
     Program PWSCF v.7.2 starts on  4Nov2023 at  5:10:27 

     This program is part of the open-source Quantum ESPRESSO suite
     for quantum simulation of materials; please cite
         "P. Giannozzi et al., J. Phys.:Condens. Matter 21 395502 (2009);
         "P. Giannozzi et al., J. Phys.:Condens. Matter 29 465901 (2017);
         "P. Giannozzi et al., J. Chem. Phys. 152 154105 (2020);
          URL http://www.quantum-espresso.org", 
     in publications or presentations arising from this work. More details at
     http://www.quantum-espresso.org/quote

     Parallel version (MPI & OpenMP), running on      48 processor cores
     Number of MPI processes:                48
     Threads/MPI process:                     1

     MPI processes distributed on     1 nodes
     88537 MiB available memory on the printing compute node when the environment starts
 
     Waiting for input...
     Reading input from standard input
Warning: card &CELL ignored
Warning: card CELL_DYNAMICS = 'BFGS', ignored
Warning: card CELL_DOFREE = '2DXY' ignored
Warning: card / ignored

     Current dimensions of program PWSCF are:
     Max number of different atomic species (ntypx) = 10
     Max number of k-points (npk) =  40000
     Max angular momentum in pseudopotentials (lmaxx) =  4

     IMPORTANT: XC functional enforced from input :
     Exchange-correlation= RVV10
                           (   1   4  13   4  26   0   0)
     Any further DFT definition will be discarded
     Please, verify this is what you really want


     gamma-point specific algorithms are used
     signal trapping enabled: kill the code with -SIGUSR1 to stop cleanly the simulation 
 
     R & G space division:  proc/nbgrp/npool/nimage =      48
     Subspace diagonalization in iterative solution of the eigenvalue problem:
     one sub-group per band group will be used
     scalapack distributed-memory algorithm (size of sub-group:  2*  2 procs)

 
     Parallelization info
     --------------------
     sticks:   dense  smooth     PW     G-vecs:    dense   smooth      PW
     Min         243     194     47                49060    35090    4376
     Max         246     196     50                49086    35128    4410
     Sum       11735    9389   2349              2355467  1685513  210763
 
     Using Slab Decomposition
 


     bravais-lattice index     =            0
     lattice parameter (alat)  =      17.8707  a.u.
     unit-cell volume          =   17436.2743 (a.u.)^3
     number of atoms/cell      =           36
     number of atomic types    =            3
     number of electrons       =       307.00
     number of Kohn-Sham states=          185
     kinetic-energy cutoff     =      80.0000  Ry
     charge density cutoff     =     400.0000  Ry
     scf convergence threshold =      1.0E-06
     mixing beta               =       0.7000
     number of iterations used =            8  local-TF  mixing
     energy convergence thresh.=      1.0E-04
     force convergence thresh. =      1.0E-02
     Exchange-correlation= RVV10
                           (   1   4  13   4  26   0   0)
     nstep                     =          200


     celldm(1)=  17.870686  celldm(2)=   0.000000  celldm(3)=   0.000000
     celldm(4)=   0.000000  celldm(5)=   0.000000  celldm(6)=   0.000000

     crystal axes: (cart. coord. in units of alat)
               a(1) = (   1.000000   0.000000   0.000000 )  
               a(2) = (   0.000000   1.155671   0.000000 )  
               a(3) = (   0.000000   0.000000   2.643601 )  

     reciprocal axes: (cart. coord. in units 2 pi/alat)
               b(1) = (  1.000000  0.000000  0.000000 )  
               b(2) = (  0.000000  0.865298  0.000000 )  
               b(3) = (  0.000000  0.000000  0.378272 )  


     PseudoPot. # 1 for Mo read from file:
     ../pseudo/Mo_ONCV_PBE-1.0.oncvpsp.upf
     MD5 check sum: 1b5d28e075c9ccadda658a603575cd1f
     Pseudo is Norm-conserving, Zval = 14.0
     Generated using ONCVPSP code by D. R. Hamann
     Using radial grid of 1526 points,  6 beta functions with: 
                l(1) =   0
                l(2) =   0
                l(3) =   1
                l(4) =   1
                l(5) =   2
                l(6) =   2

     PseudoPot. # 2 for S  read from file:
     ../pseudo/s_pbe_v1.4.uspp.F.UPF
     MD5 check sum: 88d86576ff6df21479756cfb9bdac1df
     Pseudo is Ultrasoft + core correction, Zval =  6.0
     Generated by new atomic code, or converted to UPF format
     Using radial grid of  907 points,  6 beta functions with: 
                l(1) =   0
                l(2) =   0
                l(3) =   1
                l(4) =   1
                l(5) =   2
                l(6) =   2
     Q(r) pseudized with  8 coefficients,  rinner =    1.300   1.300   1.300
                                                       1.300   1.300

     PseudoPot. # 3 for H  read from file:
     ../pseudo/H_ONCV_PBE-1.0.oncvpsp.upf
     MD5 check sum: 1790becc920ee074925cf490c71280fe
     Pseudo is Norm-conserving, Zval =  1.0
     Generated using ONCVPSP code by D. R. Hamann
     Using radial grid of 1166 points,  2 beta functions with: 
                l(1) =   0
                l(2) =   0

     atomic species   valence    mass     pseudopotential
        Mo            14.00    95.94000     Mo( 1.00)
        S              6.00    32.06500     S ( 1.00)
        H              1.00     1.00794     H ( 1.00)

     No symmetry found



   Cartesian axes

     site n.     atom                  positions (alat units)
         1           Mo  tau(   1) = (   0.6952221   0.1890506   0.2985846  )
         2           S   tau(   2) = (   0.8646417   0.0856217   0.4689279  )
         3           S   tau(   3) = (   0.8663890   0.0857843   0.1351291  )
         4           Mo  tau(   4) = (   0.8560186   0.4753274   0.2873942  )
         5           S   tau(   5) = (   0.6873294   0.3936244   0.4596353  )
         6           S   tau(   6) = (   0.6929804   0.3713468   0.1185692  )
         7           Mo  tau(   7) = (   0.6862796   0.7633098   0.2825370  )
         8           S   tau(   8) = (   0.8545980   0.6708292   0.4486168  )
         9           S   tau(   9) = (   0.8545123   0.6666874   0.1146125  )
        10           Mo  tau(  10) = (   0.8629403   1.0471007   0.3006803  )
        11           S   tau(  11) = (   0.6868280   0.9456650   0.4634891  )
        12           S   tau(  12) = (   0.6998113   0.9568511   0.1205389  )
        13           Mo  tau(  13) = (   0.3618216   0.1847309   0.2935964  )
        14           S   tau(  14) = (   0.5260962   0.0863870   0.4600448  )
        15           S   tau(  15) = (   0.5348379   0.0894875   0.1297123  )
        16           Mo  tau(  16) = (   0.5265817   0.4772436   0.2784130  )
        17           S   tau(  17) = (   0.3624753   0.3882513   0.4525556  )
        18           S   tau(  18) = (   0.3635411   0.3752055   0.1119148  )
        19           Mo  tau(  19) = (   0.3652268   0.7630864   0.2781795  )
        20           S   tau(  20) = (   0.5269494   0.6690381   0.1096838  )
        21           Mo  tau(  21) = (   0.5300192   1.0470394   0.2900995  )
        22           S   tau(  22) = (   0.3670346   0.9457522   0.4574073  )
        23           S   tau(  23) = (   0.3604225   0.9585725   0.1159032  )
        24           Mo  tau(  24) = (   0.0313099   0.1847895   0.3013130  )
        25           S   tau(  25) = (   0.1956761   0.0838230   0.4650863  )
        26           S   tau(  26) = (   0.1967693   0.0903508   0.1278874  )
        27           Mo  tau(  27) = (   0.1967578   0.4753919   0.2813011  )
        28           S   tau(  28) = (   0.0287851   0.3864324   0.4586755  )
        29           S   tau(  29) = (   0.0244514   0.3729871   0.1239344  )
        30           Mo  tau(  30) = (   0.0286728   0.7631204   0.2856894  )
        31           S   tau(  31) = (   0.2011512   0.6675435   0.4465001  )
        32           S   tau(  32) = (   0.1969214   0.6672839   0.1104564  )
        33           Mo  tau(  33) = (   0.1950294   1.0511147   0.2932237  )
        34           S   tau(  34) = (   0.0312912   0.9612169   0.4667423  )
        35           S   tau(  35) = (   0.0292670   0.9563028   0.1216485  )
        36           H   tau(  36) = (   1.0000000   0.6420393   0.5656742  )

     number of k points=     1  Gaussian smearing, width (Ry)=  0.0100
                       cart. coord. in units 2pi/alat
        k(    1) = (   0.0000000   0.0000000   0.0000000), wk =   2.0000000

     Dense  grid:  1177734 G-vectors     FFT dimensions: ( 120, 135, 320)

     Smooth grid:   842757 G-vectors     FFT dimensions: ( 108, 120, 270)

     Estimated max dynamical RAM per process >     146.59 MB

     Estimated total dynamical RAM >       6.87 GB

     Initial potential from superposition of free atoms

     starting charge     306.9873, renormalised to     307.0000

     negative rho (up, down):  1.408E-04 0.000E+00


---------------------------------------------------------------------------------
Carrying out rVV10 run using the following parameters:
Nqs =      20    Nr_points =    1024   r_max =   100.000
b_value =  6.30000    beta =  0.00901
     q_mesh =  0.00010000  0.00030000  0.00058939  0.00100810
               0.00161396  0.00249058  0.00375900  0.00559430
               0.00824984  0.01209221  0.01765183  0.02569619
               0.03733578  0.05417739  0.07854596  0.11380545
               0.16482331  0.23864234  0.34545298  0.50000000

Gradients computed in Reciprocal space

---------------------------------------------------------------------------------


     Starting wfcs are  213 randomized atomic wfcs

     total cpu time spent up to now is        2.7 secs

     Self-consistent Calculation

     iteration #  1     ecut=    80.00 Ry     beta= 0.70
     Davidson diagonalization with overlap
     ethr =  1.00E-02,  avg # of iterations =  2.0

     Threshold (ethr) on eigenvalues was too large:
     Diagonalizing with lowered threshold

     Davidson diagonalization with overlap
     ethr =  3.73E-04,  avg # of iterations =  4.0

     negative rho (up, down):  1.982E-08 0.000E+00

     total cpu time spent up to now is       17.5 secs

     total energy              =   -2205.57645656 Ry
     estimated scf accuracy    <       1.43803059 Ry

     iteration #  2     ecut=    80.00 Ry     beta= 0.70
     Davidson diagonalization with overlap
     ethr =  4.68E-04,  avg # of iterations =  2.0

     total cpu time spent up to now is       19.9 secs

     total energy              =   -2205.44673466 Ry
     estimated scf accuracy    <       0.55344212 Ry

     iteration #  3     ecut=    80.00 Ry     beta= 0.70
     Davidson diagonalization with overlap
     ethr =  1.80E-04,  avg # of iterations =  4.0

     total cpu time spent up to now is       22.4 secs

     total energy              =   -2205.50556155 Ry
     estimated scf accuracy    <       0.11392754 Ry

     iteration #  4     ecut=    80.00 Ry     beta= 0.70
     Davidson diagonalization with overlap
     ethr =  3.71E-05,  avg # of iterations = 10.0

     total cpu time spent up to now is       25.1 secs

     total energy              =   -2205.51763634 Ry
     estimated scf accuracy    <       0.03165659 Ry

     iteration #  5     ecut=    80.00 Ry     beta= 0.70
     Davidson diagonalization with overlap
     ethr =  1.03E-05,  avg # of iterations =  2.0

     total cpu time spent up to now is       27.2 secs

     total energy              =   -2205.51633944 Ry
     estimated scf accuracy    <       0.01708887 Ry

     iteration #  6     ecut=    80.00 Ry     beta= 0.70
     Davidson diagonalization with overlap
     ethr =  5.57E-06,  avg # of iterations =  2.0

     total cpu time spent up to now is       29.4 secs

     total energy              =   -2205.51545616 Ry
     estimated scf accuracy    <       0.01341219 Ry

     iteration #  7     ecut=    80.00 Ry     beta= 0.70
     Davidson diagonalization with overlap
     ethr =  4.37E-06,  avg # of iterations =  2.0

     total cpu time spent up to now is       31.7 secs

     total energy              =   -2205.51415275 Ry
     estimated scf accuracy    <       0.00731457 Ry

     iteration #  8     ecut=    80.00 Ry     beta= 0.70
     Davidson diagonalization with overlap
     c_bands:  2 eigenvalues not converged
     ethr =  2.38E-06,  avg # of iterations = 20.0

     negative rho (up, down):  4.278E-03 0.000E+00

     total cpu time spent up to now is       36.9 secs

     total energy              =   -2205.51354264 Ry
     estimated scf accuracy    <       0.00402172 Ry

     iteration #  9     ecut=    80.00 Ry     beta= 0.70
     Davidson diagonalization with overlap
     ethr =  1.31E-06,  avg # of iterations = 20.0

     negative rho (up, down):  2.719E-02 0.000E+00

     total cpu time spent up to now is       41.9 secs

     total energy              =   -2205.51347761 Ry
     estimated scf accuracy    <       0.00238405 Ry

     iteration # 10     ecut=    80.00 Ry     beta= 0.70
     Davidson diagonalization with overlap
     ethr =  7.77E-07,  avg # of iterations =  2.0

     negative rho (up, down):  3.003E-02 0.000E+00

     total cpu time spent up to now is       47.2 secs

     total energy              =   -2205.51354253 Ry
     estimated scf accuracy    <       0.00101888 Ry

     iteration # 11     ecut=    80.00 Ry     beta= 0.70
     Davidson diagonalization with overlap
     ethr =  3.32E-07,  avg # of iterations =  2.0

     negative rho (up, down):  1.612E-02 0.000E+00

     total cpu time spent up to now is       52.8 secs

     total energy              =   -2205.51359873 Ry
     estimated scf accuracy    <       0.00022647 Ry

     iteration # 12     ecut=    80.00 Ry     beta= 0.70
     Davidson diagonalization with overlap
     ethr =  7.38E-08,  avg # of iterations = 12.0

     negative rho (up, down):  2.496E-03 0.000E+00

     total cpu time spent up to now is       59.1 secs

     total energy              =   -2205.51364547 Ry
     estimated scf accuracy    <       0.00005877 Ry

     iteration # 13     ecut=    80.00 Ry     beta= 0.70
     Davidson diagonalization with overlap
     ethr =  1.91E-08,  avg # of iterations =  5.0

     negative rho (up, down):  4.455E-04 0.000E+00

     total cpu time spent up to now is       69.7 secs

     total energy              =   -2205.51366553 Ry
     estimated scf accuracy    <       0.00000203 Ry

     iteration # 14     ecut=    80.00 Ry     beta= 0.70
     Davidson diagonalization with overlap
     ethr =  6.63E-10,  avg # of iterations =  6.0

     negative rho (up, down):  1.372E-04 0.000E+00

     total cpu time spent up to now is       72.3 secs

     End of self-consistent calculation

          k = 0.0000 0.0000 0.0000 (105382 PWs)   bands (ev):

   -62.8802 -62.8693 -62.8657 -62.8500 -62.8404 -62.8386 -62.8227 -62.8140
   -62.7966 -62.7856 -62.7777 -62.7640 -37.2327 -37.1690 -37.1565 -37.1450
   -37.1320 -37.1126 -37.0869 -37.0772 -37.0718 -37.0695 -37.0597 -37.0465
   -37.0414 -37.0370 -37.0243 -37.0208 -37.0158 -37.0109 -37.0034 -36.9933
   -36.9807 -36.9585 -36.9469 -36.9387 -36.9348 -36.9285 -36.9220 -36.9116
   -36.8969 -36.8885 -36.8805 -36.8604 -36.8550 -36.8096 -36.7682 -36.7134
   -16.0188 -15.3069 -15.1853 -15.0258 -14.9341 -14.8373 -14.6146 -14.5263
   -14.4940 -14.4200 -14.3918 -14.3395 -14.3248 -14.2814 -14.1655 -14.1427
   -14.1352 -14.1155 -14.0413 -13.9037 -13.8609 -13.8428 -13.8113  -7.9988
    -7.6464  -7.4282  -7.3151  -7.2594  -7.1998  -7.1951  -7.1329  -7.0395
    -6.8334  -6.7953  -6.7681  -6.6846  -6.6429  -6.5363  -6.4353  -6.4097
    -6.2707  -6.2520  -6.0705  -5.9989  -5.9208  -5.8713  -5.8547  -5.7685
    -5.7623  -5.7181  -5.6904  -5.6664  -5.6390  -5.5767  -5.5300  -5.5034
    -5.4492  -5.4402  -5.1691  -5.1444  -5.0708  -5.0478  -4.9934  -4.9509
    -4.9234  -4.8469  -4.6764  -4.5361  -4.3495  -4.3374  -4.3065  -4.2564
    -4.2361  -4.0472  -4.0163  -3.9149  -3.8400  -3.8050  -3.7464  -3.7235
    -3.6877  -3.5726  -3.5354  -3.5279  -3.5039  -3.4730  -3.4550  -3.4023
    -3.3645  -3.2193  -3.1347  -2.9040  -2.8954  -2.8044  -2.7951  -2.7287
    -2.7164  -2.6887  -2.6529  -2.6336  -2.5833  -2.2906  -2.0733  -2.0149
    -1.9900  -0.9764  -0.8278  -0.7289  -0.1840  -0.1494  -0.0960  -0.0747
     0.1138   0.1198   0.1774   0.2305   0.2581   0.2729   0.3200   0.4091
     0.4443   0.5186   0.5334   0.5635   0.6064   0.6623   0.7272   0.7513
     0.7734   0.7883   0.8216   0.8557   0.9448   0.9840   1.0280   1.3020
     1.3849

     the Fermi energy is    -0.9887 ev

!    total energy              =   -2205.51367167 Ry
     estimated scf accuracy    <       0.00000076 Ry
     smearing contrib. (-TS)   =      -0.00713619 Ry
     internal energy E=F+TS    =   -2205.50653548 Ry

     The total energy is F=E-TS. E is the sum of the following terms:
     one-electron contribution =  -18045.98558093 Ry
     hartree contribution      =    9009.61988352 Ry
     xc contribution           =    -385.21232720 Ry
     ewald contribution        =    7216.07148914 Ry

     convergence has been achieved in  14 iterations

     negative rho (up, down):  1.372E-04 0.000E+00

     Forces acting on atoms (cartesian axes, Ry/au):

     atom    1 type  1   force =     0.01272732   -0.02457798    0.00640083
     atom    2 type  2   force =    -0.01476746    0.01670559    0.00026994
     atom    3 type  2   force =    -0.01135786    0.00885952   -0.00287184
     atom    4 type  1   force =     0.00671718    0.00769118    0.00290729
     atom    5 type  2   force =    -0.00306713   -0.00807751   -0.00509767
     atom    6 type  2   force =     0.00030562    0.00819031   -0.00266649
     atom    7 type  1   force =    -0.01125751   -0.00772802   -0.02119605
     atom    8 type  2   force =     0.06677806   -0.02486559    0.05655445
     atom    9 type  2   force =     0.01272557    0.00714696    0.01189585
     atom   10 type  1   force =    -0.01088566    0.00778537   -0.02789307
     atom   11 type  2   force =     0.00361333    0.00199400   -0.00690503
     atom   12 type  2   force =    -0.00055074   -0.00163502    0.00510643
     atom   13 type  1   force =     0.00529280    0.00418932   -0.00707788
     atom   14 type  2   force =     0.00833432    0.00004506    0.01225963
     atom   15 type  2   force =    -0.01238663    0.00237014   -0.00843616
     atom   16 type  1   force =    -0.00159833    0.01422033    0.00336498
     atom   17 type  2   force =     0.00624162    0.00031937    0.00149387
     atom   18 type  2   force =    -0.00196011   -0.00779807    0.01221716
     atom   19 type  1   force =     0.01024966   -0.00579128   -0.01058193
     atom   20 type  2   force =     0.00313769   -0.00497255    0.00100449
     atom   21 type  1   force =    -0.01025635    0.00967372   -0.00020505
     atom   22 type  2   force =    -0.00205310   -0.00039660   -0.00150971
     atom   23 type  2   force =     0.00027298    0.00233797    0.00981515
     atom   24 type  1   force =    -0.00707850   -0.00362246   -0.02601110
     atom   25 type  2   force =     0.01649155    0.01810378    0.00808740
     atom   26 type  2   force =    -0.01241158   -0.00063472   -0.00335302
     atom   27 type  1   force =    -0.00185493    0.00171303    0.01025722
     atom   28 type  2   force =    -0.00090723    0.00317092   -0.00131226
     atom   29 type  2   force =     0.00214531   -0.00159981   -0.00349577
     atom   30 type  1   force =    -0.00240442    0.01763102   -0.02318454
     atom   31 type  2   force =    -0.01196008   -0.00298965    0.02288397
     atom   32 type  2   force =    -0.00898509    0.00679211    0.00801611
     atom   33 type  1   force =     0.01376215   -0.00769200   -0.00984742
     atom   34 type  2   force =     0.00290728   -0.04309810   -0.00985951
     atom   35 type  2   force =    -0.00892686    0.00752113    0.01601272
     atom   36 type  3   force =    -0.03703288   -0.00098148   -0.01704301
     The non-local contrib.  to forces
     atom    1 type  1   force =    -0.00158630    0.03225970   -0.01231005
     atom    2 type  2   force =    -0.01116022    0.00143519   -0.27151817
     atom    3 type  2   force =    -0.01464333   -0.00273558    0.27083848
     atom    4 type  1   force =     0.00043581    0.00900259    0.00498996
     atom    5 type  2   force =     0.00235178   -0.03478312   -0.25283386
     atom    6 type  2   force =    -0.00323630    0.01091261    0.26301620
     atom    7 type  1   force =    -0.00725919   -0.01256396   -0.01971006
     atom    8 type  2   force =     0.19131009   -0.04250155   -0.04467621
     atom    9 type  2   force =     0.00940614   -0.00808411    0.28105614
     atom   10 type  1   force =     0.00556298    0.00440535   -0.00182414
     atom   11 type  2   force =     0.00702540    0.01455736   -0.25205107
     atom   12 type  2   force =    -0.01089987   -0.01909543    0.26403608
     atom   13 type  1   force =     0.00020649    0.01836079   -0.00758127
     atom   14 type  2   force =     0.01159013   -0.00893062   -0.26137370
     atom   15 type  2   force =    -0.01314401   -0.00537174    0.26040529
     atom   16 type  1   force =     0.00126148    0.02721765   -0.02719209
     atom   17 type  2   force =     0.00206286   -0.02827117   -0.24905900
     atom   18 type  2   force =    -0.00212926   -0.00358531    0.27363468
     atom   19 type  1   force =     0.01739957   -0.00226194   -0.01128094
     atom   20 type  2   force =     0.00128209   -0.01749886    0.26844166
     atom   21 type  1   force =     0.00142453    0.02644164    0.00691394
     atom   22 type  2   force =    -0.00692053    0.00560972   -0.25612466
     atom   23 type  2   force =     0.00683520   -0.01412487    0.26817470
     atom   24 type  1   force =     0.00497774    0.01358684   -0.01236717
     atom   25 type  2   force =     0.01110811    0.00533473   -0.26088112
     atom   26 type  2   force =    -0.00309470   -0.01299494    0.26355986
     atom   27 type  1   force =    -0.00441926    0.00689405    0.00976690
     atom   28 type  2   force =    -0.00015042   -0.00878010   -0.26858175
     atom   29 type  2   force =     0.00579446    0.00671922    0.26268033
     atom   30 type  1   force =     0.00110974    0.02065560    0.01314542
     atom   31 type  2   force =    -0.03757785   -0.01307087   -0.20031520
     atom   32 type  2   force =    -0.00423119   -0.00938965    0.27590016
     atom   33 type  1   force =    -0.00481927    0.01014014    0.00540072
     atom   34 type  2   force =     0.00079043   -0.04029233   -0.26978592
     atom   35 type  2   force =    -0.00222341   -0.01288881    0.27163729
     atom   36 type  3   force =    -0.01098023    0.00177083   -0.01163168
     The ionic contribution  to forces
     atom    1 type  1   force =     0.32846597    0.14276827    5.68650092
     atom    2 type  2   force =    -0.68737955    0.38926775   39.28031836
     atom    3 type  2   force =    -0.17265535    0.01061642  -36.08523422
     atom    4 type  1   force =    -0.14397670    0.28771359    0.24841051
     atom    5 type  2   force =    -1.08187914    1.37881276   38.71605906
     atom    6 type  2   force =     0.32330509   -0.53168515  -38.04437553
     atom    7 type  1   force =    -2.82429372   -2.66098497    2.38184192
     atom    8 type  2   force =    -1.77034006    0.18865393   36.76721785
     atom    9 type  2   force =     0.30684160   -0.02773885  -38.09528519
     atom   10 type  1   force =    -1.16594279   -0.13822835    5.59155234
     atom   11 type  2   force =    -0.64713512   -1.49891084   39.12150892
     atom   12 type  2   force =     0.42281078    0.72426815  -37.86614234
     atom   13 type  1   force =     0.52608210    0.91471378    2.85289024
     atom   14 type  2   force =     0.05509919   -0.01448656   38.52614207
     atom   15 type  2   force =     0.15528310   -0.06754290  -36.79197574
     atom   16 type  1   force =    -0.04951576    3.86599582    0.41258159
     atom   17 type  2   force =     0.89277796    1.40985513   37.91175058
     atom   18 type  2   force =    -0.14395142   -0.67259346  -38.57790583
     atom   19 type  1   force =     2.86993219   -2.35127129    0.52042327
     atom   20 type  2   force =     0.22364016   -0.19237502  -38.50016199
     atom   21 type  1   force =     0.02696159    0.12950626    1.16835370
     atom   22 type  2   force =     0.51913592   -1.63162660   38.41951862
     atom   23 type  2   force =    -0.07140535    0.69302891  -38.29601830
     atom   24 type  1   force =    -0.53730663    0.99710147    5.78136626
     atom   25 type  2   force =     0.68618178    0.26969619   39.26981986
     atom   26 type  2   force =    -0.27785562    0.05915902  -37.32993891
     atom   27 type  1   force =     0.26495246    0.17777921   -2.57233636
     atom   28 type  2   force =     0.09698601    0.59070927   38.05000144
     atom   29 type  2   force =    -0.26133200   -0.47953980  -37.32054559
     atom   30 type  1   force =    -0.26394058   -0.55250716   -0.75656346
     atom   31 type  2   force =     1.77032307    0.01856659   37.01323552
     atom   32 type  2   force =    -0.44245544    0.00151793  -38.70987833
     atom   33 type  1   force =     0.86836102   -0.70710516    2.01239802
     atom   34 type  2   force =     0.26571218   -1.16148457   39.28314946
     atom   35 type  2   force =    -0.29635758    0.52643897  -37.85401650
     atom   36 type  3   force =     0.23487065   -0.08808871    7.78533778
     The local contribution  to forces
     atom    1 type  1   force =    -0.31408413   -0.19918070   -5.66765576
     atom    2 type  2   force =     0.68354068   -0.37384523  -39.02880933
     atom    3 type  2   force =     0.17529754    0.00098926   35.83191744
     atom    4 type  1   force =     0.15037917   -0.28924870   -0.25049886
     atom    5 type  2   force =     1.07686160   -1.35401976  -38.48826091
     atom    6 type  2   force =    -0.32019848    0.53001419   37.79915430
     atom    7 type  1   force =     2.82061761    2.66600465   -2.38313628
     atom    8 type  2   force =     1.65641023   -0.17350229  -36.67445768
     atom    9 type  2   force =    -0.30313897    0.04252257   37.84684753
     atom   10 type  1   force =     1.14961532    0.14124497   -5.61743036
     atom   11 type  2   force =     0.64418405    1.48717358  -38.89613308
     atom   12 type  2   force =    -0.41345695   -0.70833415   37.62756047
     atom   13 type  1   force =    -0.52100739   -0.92840759   -2.85242716
     atom   14 type  2   force =    -0.05771853    0.02358127  -38.27255975
     atom   15 type  2   force =    -0.15523688    0.07501481   36.54313878
     atom   16 type  1   force =     0.04657803   -3.87954486   -0.38190205
     atom   17 type  2   force =    -0.88855800   -1.38274513  -37.68101508
     atom   18 type  2   force =     0.14420121    0.66882698   38.33709154
     atom   19 type  1   force =    -2.87753493    2.34783087   -0.51968841
     atom   20 type  2   force =    -0.22188571    0.20419376   38.25337030
     atom   21 type  1   force =    -0.03855500   -0.14639980   -1.17557540
     atom   22 type  2   force =    -0.51458026    1.62614751  -38.18476956
     atom   23 type  2   force =     0.06531416   -0.67779888   38.05804346
     atom   24 type  1   force =     0.52521800   -1.01408817   -5.79479320
     atom   25 type  2   force =    -0.68069500   -0.25650895  -39.02100979
     atom   26 type  2   force =     0.26866165   -0.04749065   37.08334122
     atom   27 type  1   force =    -0.26236101   -0.18304484    2.57269297
     atom   28 type  2   force =    -0.09786216   -0.57972709  -37.80286809
     atom   29 type  2   force =     0.25822394    0.47202994   37.07441006
     atom   30 type  1   force =     0.26043172    0.54957649    0.72020073
     atom   31 type  2   force =    -1.74693825   -0.00915198  -36.80742552
     atom   32 type  2   force =     0.43765849    0.01410521   38.46266302
     atom   33 type  1   force =    -0.84997473    0.68888739   -2.02762141
     atom   34 type  2   force =    -0.26392290    1.15716812  -39.04366011
     atom   35 type  2   force =     0.28978041   -0.50720627   37.61903542
     atom   36 type  3   force =    -0.26091907    0.08533953   -7.79069862
     The core correction contribution to forces
     atom    1 type  1   force =     0.00000000    0.00000000    0.00000000
     atom    2 type  2   force =     0.00029697   -0.00010167    0.02080443
     atom    3 type  2   force =     0.00067512    0.00003140   -0.02091425
     atom    4 type  1   force =     0.00000000    0.00000000    0.00000000
     atom    5 type  2   force =    -0.00044258    0.00185725    0.02033469
     atom    6 type  2   force =     0.00034419   -0.00109628   -0.02088587
     atom    7 type  1   force =     0.00000000    0.00000000    0.00000000
     atom    8 type  2   force =    -0.01049495    0.00256551    0.00907026
     atom    9 type  2   force =    -0.00023710    0.00048529   -0.02120971
     atom   10 type  1   force =     0.00000000    0.00000000    0.00000000
     atom   11 type  2   force =    -0.00036338   -0.00084875    0.02027306
     atom   12 type  2   force =     0.00105546    0.00150951   -0.02085860
     atom   13 type  1   force =     0.00000000    0.00000000    0.00000000
     atom   14 type  2   force =    -0.00061919   -0.00005071    0.02058032
     atom   15 type  2   force =     0.00070651    0.00035467   -0.02053231
     atom   16 type  1   force =     0.00000000    0.00000000    0.00000000
     atom   17 type  2   force =     0.00000806    0.00145723    0.02020091
     atom   18 type  2   force =    -0.00002020   -0.00046987   -0.02103251
     atom   19 type  1   force =     0.00000000    0.00000000    0.00000000
     atom   20 type  2   force =     0.00006480    0.00062850   -0.02130954
     atom   21 type  1   force =     0.00000000    0.00000000    0.00000000
     atom   22 type  2   force =     0.00018636   -0.00053765    0.02038138
     atom   23 type  2   force =    -0.00055733    0.00121857   -0.02090652
     atom   24 type  1   force =     0.00000000    0.00000000    0.00000000
     atom   25 type  2   force =    -0.00016920   -0.00041307    0.02070346
     atom   26 type  2   force =    -0.00012902    0.00070988   -0.02086437
     atom   27 type  1   force =     0.00000000    0.00000000    0.00000000
     atom   28 type  2   force =     0.00012682    0.00094296    0.02064848
     atom   29 type  2   force =    -0.00052748   -0.00081399   -0.02052847
     atom   30 type  1   force =     0.00000000    0.00000000    0.00000000
     atom   31 type  2   force =     0.00211526    0.00068526    0.01789150
     atom   32 type  2   force =    -0.00007158    0.00057734   -0.02114773
     atom   33 type  1   force =     0.00000000    0.00000000    0.00000000
     atom   34 type  2   force =     0.00034030    0.00140109    0.02091741
     atom   35 type  2   force =    -0.00008757    0.00106661   -0.02112037
     atom   36 type  3   force =     0.00000000    0.00000000    0.00000000
     The Hubbard contrib.    to forces
     atom    1 type  1   force =     0.00000000    0.00000000    0.00000000
     atom    2 type  2   force =     0.00000000    0.00000000    0.00000000
     atom    3 type  2   force =     0.00000000    0.00000000    0.00000000
     atom    4 type  1   force =     0.00000000    0.00000000    0.00000000
     atom    5 type  2   force =     0.00000000    0.00000000    0.00000000
     atom    6 type  2   force =     0.00000000    0.00000000    0.00000000
     atom    7 type  1   force =     0.00000000    0.00000000    0.00000000
     atom    8 type  2   force =     0.00000000    0.00000000    0.00000000
     atom    9 type  2   force =     0.00000000    0.00000000    0.00000000
     atom   10 type  1   force =     0.00000000    0.00000000    0.00000000
     atom   11 type  2   force =     0.00000000    0.00000000    0.00000000
     atom   12 type  2   force =     0.00000000    0.00000000    0.00000000
     atom   13 type  1   force =     0.00000000    0.00000000    0.00000000
     atom   14 type  2   force =     0.00000000    0.00000000    0.00000000
     atom   15 type  2   force =     0.00000000    0.00000000    0.00000000
     atom   16 type  1   force =     0.00000000    0.00000000    0.00000000
     atom   17 type  2   force =     0.00000000    0.00000000    0.00000000
     atom   18 type  2   force =     0.00000000    0.00000000    0.00000000
     atom   19 type  1   force =     0.00000000    0.00000000    0.00000000
     atom   20 type  2   force =     0.00000000    0.00000000    0.00000000
     atom   21 type  1   force =     0.00000000    0.00000000    0.00000000
     atom   22 type  2   force =     0.00000000    0.00000000    0.00000000
     atom   23 type  2   force =     0.00000000    0.00000000    0.00000000
     atom   24 type  1   force =     0.00000000    0.00000000    0.00000000
     atom   25 type  2   force =     0.00000000    0.00000000    0.00000000
     atom   26 type  2   force =     0.00000000    0.00000000    0.00000000
     atom   27 type  1   force =     0.00000000    0.00000000    0.00000000
     atom   28 type  2   force =     0.00000000    0.00000000    0.00000000
     atom   29 type  2   force =     0.00000000    0.00000000    0.00000000
     atom   30 type  1   force =     0.00000000    0.00000000    0.00000000
     atom   31 type  2   force =     0.00000000    0.00000000    0.00000000
     atom   32 type  2   force =     0.00000000    0.00000000    0.00000000
     atom   33 type  1   force =     0.00000000    0.00000000    0.00000000
     atom   34 type  2   force =     0.00000000    0.00000000    0.00000000
     atom   35 type  2   force =     0.00000000    0.00000000    0.00000000
     atom   36 type  3   force =     0.00000000    0.00000000    0.00000000
     The SCF correction term to forces
     atom    1 type  1   force =    -0.00006739   -0.00042947   -0.00013329
     atom    2 type  2   force =    -0.00006452   -0.00005467   -0.00052436
     atom    3 type  2   force =    -0.00003102   -0.00004620    0.00052170
     atom    4 type  1   force =    -0.00012027    0.00021948    0.00000668
     atom    5 type  2   force =     0.00004203    0.00005114   -0.00039565
     atom    6 type  2   force =     0.00009194    0.00004072    0.00042539
     atom    7 type  1   force =    -0.00032139   -0.00018796   -0.00019064
     atom    8 type  2   force =    -0.00010644   -0.00008541   -0.00059877
     atom    9 type  2   force =    -0.00014528   -0.00004217    0.00048808
     atom   10 type  1   force =    -0.00012036    0.00035918   -0.00018991
     atom   11 type  2   force =    -0.00009680    0.00001842   -0.00050186
     atom   12 type  2   force =    -0.00005934    0.00001268    0.00051182
     atom   13 type  1   force =     0.00001241   -0.00048188    0.00004131
     atom   14 type  2   force =    -0.00001646   -0.00007254   -0.00052832
     atom   15 type  2   force =     0.00000548   -0.00008893    0.00052881
     atom   16 type  1   force =     0.00007874    0.00054750   -0.00012147
     atom   17 type  2   force =    -0.00004845    0.00001909   -0.00038254
     atom   18 type  2   force =    -0.00005961    0.00001937    0.00043027
     atom   19 type  1   force =     0.00045364   -0.00009314   -0.00003485
     atom   20 type  2   force =     0.00003717    0.00007484    0.00066505
     atom   21 type  1   force =    -0.00008665    0.00012139    0.00010370
     atom   22 type  2   force =     0.00012623    0.00000619   -0.00051448
     atom   23 type  2   force =     0.00008713    0.00001002    0.00052280
     atom   24 type  1   force =     0.00003320   -0.00022682   -0.00021600
     atom   25 type  2   force =     0.00006668   -0.00000934   -0.00054402
     atom   26 type  2   force =     0.00000693   -0.00002226    0.00055017
     atom   27 type  1   force =    -0.00002630    0.00008039    0.00013470
     atom   28 type  2   force =    -0.00000666    0.00002165   -0.00051136
     atom   29 type  2   force =    -0.00001279    0.00000060    0.00048890
     atom   30 type  1   force =    -0.00000448   -0.00009815    0.00003377
     atom   31 type  2   force =     0.00011851   -0.00002287   -0.00050134
     atom   32 type  2   force =     0.00011546   -0.00002294    0.00047999
     atom   33 type  1   force =     0.00019595    0.00038140   -0.00002376
     atom   34 type  2   force =    -0.00001191    0.00010535   -0.00047935
     atom   35 type  2   force =    -0.00003789    0.00010641    0.00047787
     atom   36 type  3   force =    -0.00000342   -0.00000735   -0.00004950

     Total force =     0.146747     Total SCF correction =     0.002801

     BFGS Geometry Optimization
     Energy error            =      0.0E+00 Ry
     Gradient error          =      6.7E-02 Ry/Bohr

     number of scf cycles    =   1
     number of bfgs steps    =   0

     energy             new  =   -2205.5136716719 Ry

     new trust radius        =       0.0909725968 bohr
     new conv_thr            =       0.0000010000 Ry


ATOMIC_POSITIONS (angstrom)
Mo            6.5812834155        1.7748001227        2.8270302061
S             8.1688947372        0.8185442400        4.4346811963
S             8.1872227664        0.8159300035        1.2763637134
Mo            8.0987171453        4.4991269441        2.7193568654
S             6.4982862010        3.7181370544        4.3439630804
S             6.5535115260        3.5160716827        1.1198691800
Mo            6.4840244793        7.2143477938        2.6606680171
S             8.1170651567        6.3307126868        4.2723888905
S             8.0876517289        6.3084843231        1.0901580138
Mo            8.1548586032        9.9063002515        2.8287013837
S             6.4970796870        8.9439819922        4.3794515517
S             6.6176557605        9.0478459986        1.1426095111
Mo            3.4244604929        1.7491727431        2.7727257121
S             4.9795758256        0.8169650558        4.3570206085
S             5.0512790341        0.8475163324        1.2221942357
Mo            4.9789108815        4.5207030769        2.6346652194
S             3.4311445832        3.6717686898        4.2805001041
S             3.4368833379        3.5441021345        1.0648167226
Mo            3.4592856258        7.2132599277        2.6250771472
S             4.9848945874        6.3243009263        1.0377852822
Mo            5.0068364940        9.9067191624        2.7432924531
S             3.4698716610        8.9435413989        4.3247924103
S             3.4085736213        9.0662271841        1.1012622526
Mo            0.2923447070        1.7455926099        2.8356802278
S             1.8591891633        0.8022741142        4.4024891046
S             1.8542321079        0.8540900369        1.2076265099
Mo            1.8597097233        4.4965732603        2.6656252668
S             0.2717337626        3.6560768058        4.3368896809
S             0.2323664583        3.5264026426        1.1701680034
Mo            0.2698797867        7.2259760267        2.6894276971
S             1.8959092433        6.3112167822        4.2345537983
S             1.8574835106        6.3139380445        1.0488012280
Mo            1.8516292783        9.9360687203        2.7677352224
S             0.2974513638        9.0671912949        4.4086520393
S             0.2720475108        9.0475057263        1.1588743482
H             9.4371630445        6.0710917317        5.3404259357



     Writing config-only to output data dir ./MoS2-V-O.save/
     NEW-OLD atomic charge density approx. for the potential

     negative rho (up, down):  1.464E-04 0.000E+00

     total cpu time spent up to now is       75.6 secs

     Self-consistent Calculation

     iteration #  1     ecut=    80.00 Ry     beta= 0.70
     Davidson diagonalization with overlap
     ethr =  1.00E-06,  avg # of iterations = 10.0

     negative rho (up, down):  6.148E-05 0.000E+00

     total cpu time spent up to now is       88.9 secs

     total energy              =   -2205.53193845 Ry
     estimated scf accuracy    <       0.00288491 Ry

     iteration #  2     ecut=    80.00 Ry     beta= 0.70
     Davidson diagonalization with overlap
     ethr =  9.40E-07,  avg # of iterations =  3.0

     negative rho (up, down):  4.873E-05 0.000E+00

     total cpu time spent up to now is      104.2 secs

     total energy              =   -2205.53205642 Ry
     estimated scf accuracy    <       0.00051874 Ry

     iteration #  3     ecut=    80.00 Ry     beta= 0.70
     Davidson diagonalization with overlap
     ethr =  1.69E-07,  avg # of iterations =  5.0

     negative rho (up, down):  4.209E-05 0.000E+00

     total cpu time spent up to now is      119.1 secs

     total energy              =   -2205.53208561 Ry
     estimated scf accuracy    <       0.00015723 Ry

     iteration #  4     ecut=    80.00 Ry     beta= 0.70
     Davidson diagonalization with overlap
     ethr =  5.12E-08,  avg # of iterations =  5.0

     negative rho (up, down):  4.029E-05 0.000E+00

     total cpu time spent up to now is      133.2 secs

     total energy              =   -2205.53210436 Ry
     estimated scf accuracy    <       0.00001834 Ry

     iteration #  5     ecut=    80.00 Ry     beta= 0.70
     Davidson diagonalization with overlap
     ethr =  5.97E-09,  avg # of iterations =  7.0

     negative rho (up, down):  3.982E-05 0.000E+00

     total cpu time spent up to now is      148.5 secs

     total energy              =   -2205.53211089 Ry
     estimated scf accuracy    <       0.00000700 Ry

     iteration #  6     ecut=    80.00 Ry     beta= 0.70
     Davidson diagonalization with overlap
     ethr =  2.28E-09,  avg # of iterations =  2.0

     negative rho (up, down):  3.996E-05 0.000E+00

     total cpu time spent up to now is      159.0 secs

     total energy              =   -2205.53211162 Ry
     estimated scf accuracy    <       0.00000220 Ry

     iteration #  7     ecut=    80.00 Ry     beta= 0.70
     Davidson diagonalization with overlap
     ethr =  7.17E-10,  avg # of iterations =  3.0

     negative rho (up, down):  4.187E-05 0.000E+00

     total cpu time spent up to now is      172.9 secs

     total energy              =   -2205.53211210 Ry
     estimated scf accuracy    <       0.00000123 Ry

     iteration #  8     ecut=    80.00 Ry     beta= 0.70
     Davidson diagonalization with overlap
     ethr =  3.99E-10,  avg # of iterations =  2.0

     negative rho (up, down):  1.376E-04 0.000E+00

     total cpu time spent up to now is      174.7 secs

     End of self-consistent calculation

          k = 0.0000 0.0000 0.0000 (105382 PWs)   bands (ev):

   -62.8797 -62.8666 -62.8570 -62.8446 -62.8348 -62.8297 -62.8164 -62.8087
   -62.7865 -62.7810 -62.7697 -62.7443 -37.2231 -37.1592 -37.1505 -37.1368
   -37.1206 -37.1070 -37.0833 -37.0685 -37.0656 -37.0642 -37.0523 -37.0466
   -37.0349 -37.0295 -37.0166 -37.0135 -37.0098 -37.0037 -36.9957 -36.9887
   -36.9707 -36.9484 -36.9395 -36.9293 -36.9270 -36.9225 -36.9084 -36.9075
   -36.8852 -36.8820 -36.8720 -36.8567 -36.8482 -36.8051 -36.7618 -36.6945
   -16.0179 -15.3267 -15.1806 -15.0087 -14.9247 -14.8390 -14.6144 -14.5090
   -14.4866 -14.4138 -14.3929 -14.3312 -14.3199 -14.2782 -14.1670 -14.1326
   -14.1256 -14.1123 -14.0403 -13.8896 -13.8524 -13.8345 -13.8233  -8.0848
    -7.6418  -7.4210  -7.2967  -7.2430  -7.2020  -7.1942  -7.1331  -7.0535
    -6.8293  -6.7832  -6.7607  -6.6716  -6.6417  -6.5262  -6.4256  -6.3943
    -6.2649  -6.2388  -6.0884  -5.9859  -5.9116  -5.8554  -5.8542  -5.7644
    -5.7585  -5.7118  -5.6930  -5.6621  -5.6520  -5.5729  -5.5330  -5.4917
    -5.4280  -5.3951  -5.1501  -5.1306  -5.0526  -5.0478  -4.9746  -4.9574
    -4.9270  -4.8573  -4.6613  -4.5357  -4.3765  -4.3165  -4.3090  -4.2434
    -4.2300  -4.0510  -4.0143  -3.9349  -3.8296  -3.7878  -3.7366  -3.7250
    -3.6799  -3.5559  -3.5308  -3.5275  -3.5011  -3.4765  -3.4527  -3.4072
    -3.3522  -3.2127  -3.1382  -2.8936  -2.8878  -2.7905  -2.7816  -2.7139
    -2.7088  -2.6939  -2.6597  -2.6256  -2.5856  -2.2814  -2.1018  -2.0029
    -1.9909  -0.9597  -0.8149  -0.7089  -0.1729  -0.1498  -0.0821  -0.0761
     0.1125   0.1299   0.1955   0.2532   0.2780   0.2947   0.3323   0.4163
     0.4517   0.5272   0.5494   0.5671   0.6216   0.6739   0.7112   0.7541
     0.7744   0.7992   0.8265   0.8654   0.9746   0.9852   1.0352   1.3239
     1.3919

     the Fermi energy is    -0.9727 ev

!    total energy              =   -2205.53211158 Ry
     estimated scf accuracy    <       0.00000073 Ry
     smearing contrib. (-TS)   =      -0.00719352 Ry
     internal energy E=F+TS    =   -2205.52491806 Ry

     The total energy is F=E-TS. E is the sum of the following terms:
     one-electron contribution =  -18044.77132376 Ry
     hartree contribution      =    9009.14234152 Ry
     xc contribution           =    -385.21912226 Ry
     ewald contribution        =    7215.32318643 Ry

     convergence has been achieved in   8 iterations

     negative rho (up, down):  1.376E-04 0.000E+00

     Forces acting on atoms (cartesian axes, Ry/au):

     atom    1 type  1   force =     0.00287241   -0.01233599    0.00043615
     atom    2 type  2   force =    -0.00842237    0.01034374   -0.00236908
     atom    3 type  2   force =    -0.01065933    0.00707755   -0.00899987
     atom    4 type  1   force =     0.00759060    0.00451473    0.00509581
     atom    5 type  2   force =    -0.00145669   -0.00709458   -0.00541324
     atom    6 type  2   force =     0.00048759    0.00572704    0.00118257
     atom    7 type  1   force =     0.00058733   -0.00820645   -0.00455338
     atom    8 type  2   force =     0.05885435   -0.01723666    0.04762274
     atom    9 type  2   force =     0.00980381    0.00597894    0.00736228
     atom   10 type  1   force =    -0.00484893    0.00558955   -0.00928955
     atom   11 type  2   force =     0.00268284   -0.00023845   -0.01023546
     atom   12 type  2   force =    -0.00429104   -0.00099678   -0.00000097
     atom   13 type  1   force =     0.00433222    0.00268655   -0.00261142
     atom   14 type  2   force =     0.00581844    0.00018580    0.00886823
     atom   15 type  2   force =    -0.00881731    0.00219578   -0.00712216
     atom   16 type  1   force =    -0.00040372    0.01035799    0.00252733
     atom   17 type  2   force =     0.00537756    0.00083682    0.00158723
     atom   18 type  2   force =    -0.00174310   -0.00432157    0.01063679
     atom   19 type  1   force =     0.00321628   -0.00535147   -0.00047603
     atom   20 type  2   force =     0.00181056   -0.00465544   -0.00555615
     atom   21 type  1   force =    -0.00665264    0.00656829    0.00189013
     atom   22 type  2   force =    -0.00076399   -0.00156614   -0.00225076
     atom   23 type  2   force =     0.00173374    0.00148922    0.00439204
     atom   24 type  1   force =    -0.00440216   -0.00133262   -0.01021092
     atom   25 type  2   force =     0.01124744    0.01345845    0.00033031
     atom   26 type  2   force =    -0.00780053   -0.00127173   -0.00460753
     atom   27 type  1   force =    -0.00191245    0.00061465    0.00785167
     atom   28 type  2   force =    -0.00066174   -0.00225304   -0.00347731
     atom   29 type  2   force =     0.00177316    0.00140476   -0.00406223
     atom   30 type  1   force =     0.00064307    0.00474715   -0.00404664
     atom   31 type  2   force =    -0.00573198    0.00132078    0.01144067
     atom   32 type  2   force =    -0.00687965    0.00502566    0.00496983
     atom   33 type  1   force =     0.00624999   -0.00311412    0.00059356
     atom   34 type  2   force =     0.00016489   -0.03088801   -0.01559707
     atom   35 type  2   force =    -0.00681336    0.01065045    0.00576151
     atom   36 type  3   force =    -0.04298530    0.00008914   -0.02166907
     The non-local contrib.  to forces
     atom    1 type  1   force =    -0.00021471    0.02864057   -0.01289673
     atom    2 type  2   force =    -0.00697499   -0.00303228   -0.27132846
     atom    3 type  2   force =    -0.01238630   -0.00497057    0.26558215
     atom    4 type  1   force =     0.00097667    0.01193840    0.00245352
     atom    5 type  2   force =     0.00307473   -0.03425428   -0.25398238
     atom    6 type  2   force =    -0.00352226    0.00824686    0.26693811
     atom    7 type  1   force =    -0.00918903   -0.01468148   -0.02222426
     atom    8 type  2   force =     0.21053319   -0.04613720   -0.03601228
     atom    9 type  2   force =     0.00751972   -0.00816002    0.27879121
     atom   10 type  1   force =     0.00387542    0.00455643   -0.00308189
     atom   11 type  2   force =     0.00465583    0.01400466   -0.25358365
     atom   12 type  2   force =    -0.01334086   -0.01931164    0.26221244
     atom   13 type  1   force =     0.00152159    0.01933476   -0.00764785
     atom   14 type  2   force =     0.00996481   -0.00799631   -0.26267580
     atom   15 type  2   force =    -0.01021048   -0.00539306    0.26054375
     atom   16 type  1   force =     0.00039882    0.02935889   -0.02931851
     atom   17 type  2   force =     0.00117558   -0.02660060   -0.24922646
     atom   18 type  2   force =    -0.00151906   -0.00103561    0.27321436
     atom   19 type  1   force =     0.02179246   -0.00084178   -0.01275539
     atom   20 type  2   force =     0.00042266   -0.01597776    0.26354676
     atom   21 type  1   force =     0.00022450    0.02655990    0.00503342
     atom   22 type  2   force =    -0.00568121    0.00396925   -0.25734256
     atom   23 type  2   force =     0.00778974   -0.01555999    0.26483634
     atom   24 type  1   force =     0.00324153    0.01370725   -0.01172018
     atom   25 type  2   force =     0.00748420    0.00128523   -0.26566193
     atom   26 type  2   force =     0.00018007   -0.01305206    0.26302784
     atom   27 type  1   force =    -0.00427147    0.00631824    0.00751889
     atom   28 type  2   force =     0.00029692   -0.01183531   -0.27104493
     atom   29 type  2   force =     0.00493692    0.00693363    0.26367492
     atom   30 type  1   force =     0.00084295    0.02137817    0.01145019
     atom   31 type  2   force =    -0.02901111   -0.01071028   -0.21147597
     atom   32 type  2   force =    -0.00265150   -0.00945776    0.27468058
     atom   33 type  1   force =    -0.00217926    0.00826442    0.00364157
     atom   34 type  2   force =    -0.00094807   -0.03093471   -0.27289837
     atom   35 type  2   force =    -0.00100201   -0.01046717    0.26534871
     atom   36 type  3   force =    -0.01448014    0.00239395   -0.01419633
     The ionic contribution  to forces
     atom    1 type  1   force =     0.10175754    0.52495233    5.80790038
     atom    2 type  2   force =    -0.48045202    0.26409889   39.34744383
     atom    3 type  2   force =    -0.17306235    0.04644789  -36.19108674
     atom    4 type  1   force =    -0.34188876    0.27028830    0.36922852
     atom    5 type  2   force =    -1.08414265    1.38474991   38.60582046
     atom    6 type  2   force =     0.29625575   -0.56606845  -37.92733567
     atom    7 type  1   force =    -2.45484168   -2.65952478    2.32014217
     atom    8 type  2   force =    -2.01242430    0.35260012   36.91152730
     atom    9 type  2   force =     0.27003741   -0.09861983  -38.01974984
     atom   10 type  1   force =    -0.97580486   -0.19983730    5.31405892
     atom   11 type  2   force =    -0.58076521   -1.58340058   39.04319032
     atom   12 type  2   force =     0.35182972    0.71078745  -37.83775419
     atom   13 type  1   force =     0.47840160    0.92173443    2.78907406
     atom   14 type  2   force =    -0.01252130    0.01381050   38.62005671
     atom   15 type  2   force =     0.18585636    0.00095185  -36.84257746
     atom   16 type  1   force =     0.07348992    3.62672075    0.60262718
     atom   17 type  2   force =     0.90091429    1.37579705   37.91769829
     atom   18 type  2   force =    -0.13408526   -0.62291261  -38.49114237
     atom   19 type  1   force =     2.69665007   -2.36936317    0.45798971
     atom   20 type  2   force =     0.19642773   -0.24808522  -38.60104442
     atom   21 type  1   force =     0.10567415    0.04917742    1.33270645
     atom   22 type  2   force =     0.51548403   -1.66713454   38.45626984
     atom   23 type  2   force =    -0.05211307    0.66743938  -38.29466568
     atom   24 type  1   force =    -0.35612564    0.90832001    5.40812057
     atom   25 type  2   force =     0.54735474    0.21738955   39.23913857
     atom   26 type  2   force =    -0.22538763    0.06140814  -37.30154102
     atom   27 type  1   force =     0.29719351    0.18802059   -2.26625571
     atom   28 type  2   force =     0.10832026    0.44002050   38.02891945
     atom   29 type  2   force =    -0.24977875   -0.40562500  -37.33088119
     atom   30 type  1   force =    -0.29803992   -0.69644174   -1.21270471
     atom   31 type  2   force =     1.80831561    0.09376058   37.07191094
     atom   32 type  2   force =    -0.40105230   -0.07974009  -38.65775363
     atom   33 type  1   force =     0.65838896   -0.46424360    2.12473521
     atom   34 type  2   force =     0.19530462   -0.95157990   39.18728812
     atom   35 type  2   force =    -0.24962978    0.58916135  -37.81155701
     atom   36 type  3   force =     0.29445920   -0.09506020    7.83020265
     The local contribution  to forces
     atom    1 type  1   force =    -0.09853630   -0.56624179   -5.79547962
     atom    2 type  2   force =     0.47861669   -0.25068211  -39.09985553
     atom    3 type  2   force =     0.17423346   -0.03459817   35.93716989
     atom    4 type  1   force =     0.34865287   -0.27804956   -0.36782156
     atom    5 type  2   force =     1.08009051   -1.35950279  -38.37795054
     atom    6 type  2   force =    -0.29252473    0.56453615   37.68224740
     atom    7 type  1   force =     2.46432394    2.66632219   -2.30378204
     atom    8 type  2   force =     1.87287934   -0.32661850  -36.83620774
     atom    9 type  2   force =    -0.26757257    0.11243669   37.76924149
     atom   10 type  1   force =     0.96697213    0.20095111   -5.32157320
     atom   11 type  2   force =     0.57888202    1.57013864  -38.82058402
     atom   12 type  2   force =    -0.34384505   -0.69399360   37.59614434
     atom   13 type  1   force =    -0.47567630   -0.93858534   -2.78502327
     atom   14 type  2   force =     0.00902323   -0.00564899  -38.36961422
     atom   15 type  2   force =    -0.18510355    0.00615425   36.59527949
     atom   16 type  1   force =    -0.07440314   -3.64563366   -0.57176672
     atom   17 type  2   force =    -0.89680089   -1.34973624  -37.68752174
     atom   18 type  2   force =     0.13386850    0.62010743   38.24939418
     atom   19 type  1   force =    -2.71513756    2.36507059   -0.44680758
     atom   20 type  2   force =    -0.19513054    0.25901279   38.35298257
     atom   21 type  1   force =    -0.11257010   -0.06922104   -1.33683328
     atom   22 type  2   force =    -0.51064470    1.66217514  -38.22214522
     atom   23 type  2   force =     0.04661678   -0.65166065   38.05492661
     atom   24 type  1   force =     0.34837133   -0.92334748   -5.40779710
     atom   25 type  2   force =    -0.54339536   -0.20496617  -38.99438591
     atom   26 type  2   force =     0.21761624   -0.05035767   37.05452636
     atom   27 type  1   force =    -0.29480053   -0.19382447    2.26551926
     atom   28 type  2   force =    -0.10936989   -0.43143981  -37.78260490
     atom   29 type  2   force =     0.24706504    0.40078036   37.08353757
     atom   30 type  1   force =     0.29806793    0.68009852    1.19584595
     atom   31 type  2   force =    -1.78669316   -0.08238333  -36.86772589
     atom   32 type  2   force =     0.39693843    0.09385414   38.40895386
     atom   33 type  1   force =    -0.64982244    0.45273200   -2.12893821
     atom   34 type  2   force =    -0.19447121    0.95048134  -38.95149049
     atom   35 type  2   force =     0.24390508   -0.56912013   37.57273124
     atom   36 type  3   force =    -0.32294808    0.09275296   -7.83774105
     The core correction contribution to forces
     atom    1 type  1   force =     0.00000000    0.00000000    0.00000000
     atom    2 type  2   force =     0.00023597    0.00000334    0.02083389
     atom    3 type  2   force =     0.00055233    0.00015356   -0.02080490
     atom    4 type  1   force =     0.00000000    0.00000000    0.00000000
     atom    5 type  2   force =    -0.00049074    0.00180489    0.02031003
     atom    6 type  2   force =     0.00033674   -0.00100843   -0.02095200
     atom    7 type  1   force =     0.00000000    0.00000000    0.00000000
     atom    8 type  2   force =    -0.01208301    0.00293774    0.00786884
     atom    9 type  2   force =    -0.00015802    0.00042607   -0.02118919
     atom   10 type  1   force =     0.00000000    0.00000000    0.00000000
     atom   11 type  2   force =    -0.00020280   -0.00085844    0.02027522
     atom   12 type  2   force =     0.00109098    0.00152260   -0.02079527
     atom   13 type  1   force =     0.00000000    0.00000000    0.00000000
     atom   14 type  2   force =    -0.00059958   -0.00007297    0.02064133
     atom   15 type  2   force =     0.00061382    0.00038827   -0.02054748
     atom   16 type  1   force =     0.00000000    0.00000000    0.00000000
     atom   17 type  2   force =     0.00006955    0.00134189    0.02020033
     atom   18 type  2   force =    -0.00005052   -0.00054323   -0.02103533
     atom   19 type  1   force =     0.00000000    0.00000000    0.00000000
     atom   20 type  2   force =     0.00007946    0.00052208   -0.02120116
     atom   21 type  1   force =     0.00000000    0.00000000    0.00000000
     atom   22 type  2   force =     0.00012846   -0.00052168    0.02044468
     atom   23 type  2   force =    -0.00056729    0.00125993   -0.02083575
     atom   24 type  1   force =     0.00000000    0.00000000    0.00000000
     atom   25 type  2   force =    -0.00006487   -0.00025197    0.02081148
     atom   26 type  2   force =    -0.00023022    0.00069417   -0.02083590
     atom   27 type  1   force =     0.00000000    0.00000000    0.00000000
     atom   28 type  2   force =     0.00010823    0.00093417    0.02072520
     atom   29 type  2   force =    -0.00047360   -0.00075697   -0.02058067
     atom   30 type  1   force =     0.00000000    0.00000000    0.00000000
     atom   31 type  2   force =     0.00175671    0.00068381    0.01821836
     atom   32 type  2   force =    -0.00012076    0.00050756   -0.02110537
     atom   33 type  1   force =     0.00000000    0.00000000    0.00000000
     atom   34 type  2   force =     0.00035960    0.00109085    0.02098080
     atom   35 type  2   force =    -0.00011139    0.00103132   -0.02094357
     atom   36 type  3   force =     0.00000000    0.00000000    0.00000000
     The Hubbard contrib.    to forces
     atom    1 type  1   force =     0.00000000    0.00000000    0.00000000
     atom    2 type  2   force =     0.00000000    0.00000000    0.00000000
     atom    3 type  2   force =     0.00000000    0.00000000    0.00000000
     atom    4 type  1   force =     0.00000000    0.00000000    0.00000000
     atom    5 type  2   force =     0.00000000    0.00000000    0.00000000
     atom    6 type  2   force =     0.00000000    0.00000000    0.00000000
     atom    7 type  1   force =     0.00000000    0.00000000    0.00000000
     atom    8 type  2   force =     0.00000000    0.00000000    0.00000000
     atom    9 type  2   force =     0.00000000    0.00000000    0.00000000
     atom   10 type  1   force =     0.00000000    0.00000000    0.00000000
     atom   11 type  2   force =     0.00000000    0.00000000    0.00000000
     atom   12 type  2   force =     0.00000000    0.00000000    0.00000000
     atom   13 type  1   force =     0.00000000    0.00000000    0.00000000
     atom   14 type  2   force =     0.00000000    0.00000000    0.00000000
     atom   15 type  2   force =     0.00000000    0.00000000    0.00000000
     atom   16 type  1   force =     0.00000000    0.00000000    0.00000000
     atom   17 type  2   force =     0.00000000    0.00000000    0.00000000
     atom   18 type  2   force =     0.00000000    0.00000000    0.00000000
     atom   19 type  1   force =     0.00000000    0.00000000    0.00000000
     atom   20 type  2   force =     0.00000000    0.00000000    0.00000000
     atom   21 type  1   force =     0.00000000    0.00000000    0.00000000
     atom   22 type  2   force =     0.00000000    0.00000000    0.00000000
     atom   23 type  2   force =     0.00000000    0.00000000    0.00000000
     atom   24 type  1   force =     0.00000000    0.00000000    0.00000000
     atom   25 type  2   force =     0.00000000    0.00000000    0.00000000
     atom   26 type  2   force =     0.00000000    0.00000000    0.00000000
     atom   27 type  1   force =     0.00000000    0.00000000    0.00000000
     atom   28 type  2   force =     0.00000000    0.00000000    0.00000000
     atom   29 type  2   force =     0.00000000    0.00000000    0.00000000
     atom   30 type  1   force =     0.00000000    0.00000000    0.00000000
     atom   31 type  2   force =     0.00000000    0.00000000    0.00000000
     atom   32 type  2   force =     0.00000000    0.00000000    0.00000000
     atom   33 type  1   force =     0.00000000    0.00000000    0.00000000
     atom   34 type  2   force =     0.00000000    0.00000000    0.00000000
     atom   35 type  2   force =     0.00000000    0.00000000    0.00000000
     atom   36 type  3   force =     0.00000000    0.00000000    0.00000000
     The SCF correction term to forces
     atom    1 type  1   force =    -0.00013382    0.00031072    0.00089060
     atom    2 type  2   force =     0.00015229   -0.00004628    0.00051567
     atom    3 type  2   force =     0.00000384    0.00004267    0.00011821
     atom    4 type  1   force =    -0.00014987    0.00033541    0.00121381
     atom    5 type  2   force =     0.00001176    0.00010551    0.00036767
     atom    6 type  2   force =    -0.00005759    0.00001873    0.00026320
     atom    7 type  1   force =     0.00029442   -0.00032455    0.00128923
     atom    8 type  2   force =    -0.00005055   -0.00002098    0.00042510
     atom    9 type  2   force =    -0.00002242   -0.00010614    0.00024710
     atom   10 type  1   force =     0.00010870   -0.00008286    0.00128511
     atom   11 type  2   force =     0.00011332   -0.00012490    0.00044517
     atom   12 type  2   force =    -0.00002552   -0.00000377    0.00017019
     atom   13 type  1   force =     0.00008566    0.00020052    0.00096412
     atom   14 type  2   force =    -0.00004841    0.00009140    0.00043870
     atom   15 type  2   force =     0.00002686    0.00009229    0.00015802
     atom   16 type  1   force =     0.00011099   -0.00009017    0.00096386
     atom   17 type  2   force =     0.00001934    0.00003255    0.00041530
     atom   18 type  2   force =     0.00004354    0.00006026    0.00018444
     atom   19 type  1   force =    -0.00008837   -0.00021929    0.00107571
     atom   20 type  2   force =     0.00001156   -0.00012950    0.00013859
     atom   21 type  1   force =     0.00001914    0.00004984    0.00096202
     atom   22 type  2   force =    -0.00005026   -0.00005648    0.00050099
     atom   23 type  2   force =     0.00000791    0.00000839    0.00010900
     atom   24 type  1   force =     0.00011093   -0.00001458    0.00116427
     atom   25 type  2   force =    -0.00013096   -0.00000037    0.00040657
     atom   26 type  2   force =     0.00002132    0.00003352    0.00019367
     atom   27 type  1   force =    -0.00003365    0.00009812    0.00104771
     atom   28 type  2   force =    -0.00001694    0.00006523    0.00050635
     atom   29 type  2   force =     0.00002386    0.00007057    0.00016562
     atom   30 type  1   force =    -0.00022757   -0.00028998    0.00134040
     atom   31 type  2   force =    -0.00009972   -0.00003218    0.00049170
     atom   32 type  2   force =     0.00000680   -0.00014036    0.00017287
     atom   33 type  1   force =    -0.00013696    0.00013088    0.00113347
     atom   34 type  2   force =    -0.00007974    0.00005223    0.00050136
     atom   35 type  2   force =     0.00002505    0.00004290    0.00016063
     atom   36 type  3   force =    -0.00001597    0.00000026    0.00004414

     Total force =     0.113330     Total SCF correction =     0.004329
     Energy error            =      1.8E-02 Ry
     Gradient error          =      5.9E-02 Ry/Bohr

     number of scf cycles    =   2
     number of bfgs steps    =   1

     energy             old  =   -2205.5136716719 Ry
     energy             new  =   -2205.5321115798 Ry

     CASE: energy            _new < energy            _old

     new trust radius        =       0.1000698565 bohr
     new conv_thr            =       0.0000000589 Ry


ATOMIC_POSITIONS (angstrom)
Mo            6.5846743784        1.7648362889        2.8282282578
S             8.1623997380        0.8263021785        4.4335306095
S             8.1801236754        0.8208451729        1.2713969121
Mo            8.1035628765        4.5025741590        2.7223650017
S             6.4970844211        3.7133328791        4.3404603591
S             6.5538035515        3.5202051089        1.1200564334
Mo            6.4825987895        7.2090376882        2.6551365837
S             8.1568838157        6.3182394147        4.3049939639
S             8.0945295269        6.3125849587        1.0956806533
Mo            8.1507548493        9.9103025992        2.8197633285
S             6.4989818364        8.9441668966        4.3732465002
S             6.6154127872        9.0470945529        1.1433897517
Mo            3.4274492019        1.7511648205        2.7703297956
S             4.9837772519        0.8170654213        4.3633564923
S             5.0449493540        0.8489833748        1.2173213527
Mo            4.9784634053        4.5280882137        2.6364511634
S             3.4348042517        3.6722385112        4.2815270181
S             3.4357067218        3.5407357494        1.0720358543
Mo            3.4624707785        7.2096822356        2.6232197821
S             4.9862851831        6.3211985723        1.0351436268
Mo            5.0019215326        9.9115026126        2.7442120052
S             3.4691734085        8.9426928560        4.3234292596
S             3.4094875830        9.0673338486        1.1049724815
Mo            0.2890477953        1.7443683445        2.8265663778
S             1.8673690168        0.8118127995        4.4038917679
S             1.8484101413        0.8533532018        1.2047958702
Mo            1.8584639933        4.4971443919        2.6711435797
S             0.2712621443        3.6554281327        4.3349396563
S             0.2335865116        3.5268647656        1.1675898759
Mo            0.2698356957        7.2310598814        2.6838471777
S             1.8911969648        6.3114241599        4.2438082096
S             1.8526487039        6.3175048464        1.0525270795
Mo            1.8568776764        9.9333260081        2.7665282568
S             0.2979788156        9.0450626089        4.3992979181
S             0.2672549573        9.0540137479        1.1642210930
H             9.4098756774        6.0709865191        5.3269187705



     Writing config-only to output data dir ./MoS2-V-O.save/
     NEW-OLD atomic charge density approx. for the potential

     negative rho (up, down):  1.475E-04 0.000E+00

     total cpu time spent up to now is      178.0 secs

     Self-consistent Calculation

     iteration #  1     ecut=    80.00 Ry     beta= 0.70
     Davidson diagonalization with overlap
     ethr =  1.00E-06,  avg # of iterations = 17.0

     negative rho (up, down):  6.158E-05 0.000E+00

     total cpu time spent up to now is      193.1 secs

     total energy              =   -2205.54699269 Ry
     estimated scf accuracy    <       0.00223087 Ry

     iteration #  2     ecut=    80.00 Ry     beta= 0.70
     Davidson diagonalization with overlap
     ethr =  7.27E-07,  avg # of iterations =  2.0

     negative rho (up, down):  4.537E-05 0.000E+00

     total cpu time spent up to now is      207.1 secs

     total energy              =   -2205.54708350 Ry
     estimated scf accuracy    <       0.00043673 Ry

     iteration #  3     ecut=    80.00 Ry     beta= 0.70
     Davidson diagonalization with overlap
     ethr =  1.42E-07,  avg # of iterations =  5.0

     negative rho (up, down):  3.542E-05 0.000E+00

     total cpu time spent up to now is      221.1 secs

     total energy              =   -2205.54710591 Ry
     estimated scf accuracy    <       0.00013420 Ry

     iteration #  4     ecut=    80.00 Ry     beta= 0.70
     Davidson diagonalization with overlap
     ethr =  4.37E-08,  avg # of iterations =  6.0

     negative rho (up, down):  3.277E-05 0.000E+00

     total cpu time spent up to now is      234.7 secs

     total energy              =   -2205.54712120 Ry
     estimated scf accuracy    <       0.00001447 Ry

     iteration #  5     ecut=    80.00 Ry     beta= 0.70
     Davidson diagonalization with overlap
     ethr =  4.71E-09,  avg # of iterations = 14.0

     negative rho (up, down):  3.275E-05 0.000E+00

     total cpu time spent up to now is      247.4 secs

     total energy              =   -2205.54712573 Ry
     estimated scf accuracy    <       0.00000541 Ry

     iteration #  6     ecut=    80.00 Ry     beta= 0.70
     Davidson diagonalization with overlap
     ethr =  1.76E-09,  avg # of iterations =  2.0

     negative rho (up, down):  3.515E-05 0.000E+00

     total cpu time spent up to now is      257.9 secs

     total energy              =   -2205.54712638 Ry
     estimated scf accuracy    <       0.00000188 Ry

     iteration #  7     ecut=    80.00 Ry     beta= 0.70
     Davidson diagonalization with overlap
     ethr =  6.11E-10,  avg # of iterations =  3.0

     negative rho (up, down):  4.009E-05 0.000E+00

     total cpu time spent up to now is      269.7 secs

     total energy              =   -2205.54712666 Ry
     estimated scf accuracy    <       0.00000067 Ry

     iteration #  8     ecut=    80.00 Ry     beta= 0.70
     Davidson diagonalization with overlap
     ethr =  2.19E-10,  avg # of iterations =  2.0

     negative rho (up, down):  6.162E-05 0.000E+00

     total cpu time spent up to now is      279.2 secs

     total energy              =   -2205.54712666 Ry
     estimated scf accuracy    <       0.00000033 Ry

     iteration #  9     ecut=    80.00 Ry     beta= 0.70
     Davidson diagonalization with overlap
     ethr =  1.08E-10,  avg # of iterations =  5.0

     negative rho (up, down):  8.705E-05 0.000E+00

     total cpu time spent up to now is      291.4 secs

     total energy              =   -2205.54712661 Ry
     estimated scf accuracy    <       0.00000007 Ry

     iteration # 10     ecut=    80.00 Ry     beta= 0.70
     Davidson diagonalization with overlap
     ethr =  2.24E-11,  avg # of iterations =  6.0

     negative rho (up, down):  1.380E-04 0.000E+00

     total cpu time spent up to now is      293.6 secs

     End of self-consistent calculation

          k = 0.0000 0.0000 0.0000 (105382 PWs)   bands (ev):

   -62.8713 -62.8585 -62.8411 -62.8320 -62.8218 -62.8146 -62.8026 -62.7951
   -62.7719 -62.7660 -62.7482 -62.7148 -37.2070 -37.1426 -37.1385 -37.1212
   -37.1045 -37.0921 -37.0738 -37.0557 -37.0506 -37.0492 -37.0394 -37.0378
   -37.0207 -37.0153 -37.0031 -36.9984 -36.9959 -36.9895 -36.9815 -36.9755
   -36.9548 -36.9374 -36.9276 -36.9118 -36.9087 -36.9008 -36.8941 -36.8844
   -36.8715 -36.8612 -36.8563 -36.8425 -36.8335 -36.7922 -36.7432 -36.6642
   -16.0193 -15.3716 -15.1699 -14.9918 -14.9086 -14.8322 -14.6146 -14.4856
   -14.4723 -14.4083 -14.3825 -14.3153 -14.3020 -14.2662 -14.1614 -14.1239
   -14.1107 -14.0931 -14.0291 -13.8817 -13.8355 -13.8264 -13.8096  -8.2151
    -7.6329  -7.4081  -7.2783  -7.2226  -7.1957  -7.1841  -7.1201  -7.0621
    -6.8178  -6.7714  -6.7477  -6.6517  -6.6328  -6.5127  -6.4101  -6.3739
    -6.2529  -6.2218  -6.1124  -5.9703  -5.8964  -5.8495  -5.8370  -5.7543
    -5.7472  -5.6969  -5.6849  -5.6496  -5.6419  -5.5650  -5.5293  -5.4745
    -5.4050  -5.3540  -5.1341  -5.1137  -5.0486  -5.0188  -4.9649  -4.9365
    -4.9206  -4.8564  -4.6381  -4.5253  -4.4078  -4.3096  -4.2830  -4.2280
    -4.2104  -4.0422  -4.0067  -3.9450  -3.8154  -3.7687  -3.7292  -3.7154
    -3.6576  -3.5349  -3.5256  -3.5122  -3.4910  -3.4762  -3.4408  -3.3979
    -3.3326  -3.2018  -3.1343  -2.8831  -2.8642  -2.7730  -2.7633  -2.7027
    -2.6932  -2.6813  -2.6559  -2.6067  -2.5754  -2.2659  -2.1076  -1.9882
    -1.9770  -0.9311  -0.7909  -0.6772  -0.1557  -0.1430  -0.0818  -0.0501
     0.1188   0.1345   0.2174   0.2802   0.2973   0.3222   0.3479   0.4289
     0.4652   0.5388   0.5714   0.5787   0.6384   0.6952   0.7132   0.7610
     0.7872   0.8131   0.8428   0.8830   0.9945   0.9994   1.0514   1.3435
     1.3921

     the Fermi energy is    -0.9450 ev

!    total energy              =   -2205.54712652 Ry
     estimated scf accuracy    <       0.00000002 Ry
     smearing contrib. (-TS)   =      -0.00726450 Ry
     internal energy E=F+TS    =   -2205.53986202 Ry

     The total energy is F=E-TS. E is the sum of the following terms:
     one-electron contribution =  -18043.51547425 Ry
     hartree contribution      =    9008.63055658 Ry
     xc contribution           =    -385.23462258 Ry
     ewald contribution        =    7214.57967824 Ry

     convergence has been achieved in  10 iterations

     negative rho (up, down):  1.380E-04 0.000E+00

     Forces acting on atoms (cartesian axes, Ry/au):

     atom    1 type  1   force =    -0.00379811   -0.00318900   -0.00406518
     atom    2 type  2   force =    -0.00365028    0.00543764   -0.00307818
     atom    3 type  2   force =    -0.00916575    0.00520996   -0.01127714
     atom    4 type  1   force =     0.00769347    0.00241633    0.00564924
     atom    5 type  2   force =    -0.00015281   -0.00566783   -0.00476440
     atom    6 type  2   force =     0.00092398    0.00429475    0.00377461
     atom    7 type  1   force =     0.00687382   -0.00780639    0.00305764
     atom    8 type  2   force =     0.05015233   -0.01234667    0.04146659
     atom    9 type  2   force =     0.00723764    0.00450060    0.00505158
     atom   10 type  1   force =    -0.00161718    0.00409341    0.00013094
     atom   11 type  2   force =     0.00215867   -0.00208441   -0.01084729
     atom   12 type  2   force =    -0.00648813   -0.00111277   -0.00173039
     atom   13 type  1   force =     0.00294723    0.00122373   -0.00020037
     atom   14 type  2   force =     0.00359877    0.00047561    0.00609624
     atom   15 type  2   force =    -0.00615209    0.00159695   -0.00567111
     atom   16 type  1   force =     0.00052290    0.00741985    0.00153738
     atom   17 type  2   force =     0.00446076    0.00146150    0.00200085
     atom   18 type  2   force =    -0.00154502   -0.00122510    0.00896881
     atom   19 type  1   force =    -0.00136943   -0.00493110    0.00402919
     atom   20 type  2   force =     0.00119449   -0.00302530   -0.00737928
     atom   21 type  1   force =    -0.00368428    0.00390876    0.00161867
     atom   22 type  2   force =     0.00009158   -0.00224385   -0.00157469
     atom   23 type  2   force =     0.00237520    0.00063910    0.00181276
     atom   24 type  1   force =    -0.00268052    0.00021664   -0.00167960
     atom   25 type  2   force =     0.00682497    0.00938208   -0.00363560
     atom   26 type  2   force =    -0.00381786   -0.00155665   -0.00390921
     atom   27 type  1   force =    -0.00159862   -0.00020833    0.00471612
     atom   28 type  2   force =     0.00006045   -0.00678988   -0.00378640
     atom   29 type  2   force =     0.00139465    0.00334761   -0.00351246
     atom   30 type  1   force =     0.00285363   -0.00257366    0.00542819
     atom   31 type  2   force =     0.00177282    0.00336031    0.00362266
     atom   32 type  2   force =    -0.00475777    0.00327802    0.00339565
     atom   33 type  1   force =     0.00098267    0.00025219    0.00427944
     atom   34 type  2   force =    -0.00139591   -0.01948839   -0.01571071
     atom   35 type  2   force =    -0.00461880    0.01096451    0.00022940
     atom   36 type  3   force =    -0.04762748    0.00076975   -0.02404393
     The non-local contrib.  to forces
     atom    1 type  1   force =     0.00029471    0.02595568   -0.01310228
     atom    2 type  2   force =    -0.00369035   -0.00675179   -0.27030689
     atom    3 type  2   force =    -0.00989676   -0.00685753    0.26298464
     atom    4 type  1   force =     0.00123546    0.01451811    0.00014516
     atom    5 type  2   force =     0.00349889   -0.03300999   -0.25445932
     atom    6 type  2   force =    -0.00346593    0.00652636    0.26978197
     atom    7 type  1   force =    -0.01019768   -0.01699723   -0.02391387
     atom    8 type  2   force =     0.23222475   -0.05322756   -0.02066031
     atom    9 type  2   force =     0.00603202   -0.00877323    0.27742761
     atom   10 type  1   force =     0.00264699    0.00489635   -0.00334388
     atom   11 type  2   force =     0.00292740    0.01375784   -0.25294143
     atom   12 type  2   force =    -0.01451647   -0.01994692    0.26254870
     atom   13 type  1   force =     0.00275488    0.02001485   -0.00738120
     atom   14 type  2   force =     0.00838354   -0.00742396   -0.26360804
     atom   15 type  2   force =    -0.00787129   -0.00575381    0.26077556
     atom   16 type  1   force =    -0.00030985    0.03183873   -0.03075691
     atom   17 type  2   force =     0.00002367   -0.02493644   -0.24920259
     atom   18 type  2   force =    -0.00103633    0.00132353    0.27265137
     atom   19 type  1   force =     0.02597077    0.00081586   -0.01322045
     atom   20 type  2   force =     0.00020967   -0.01357259    0.26151063
     atom   21 type  1   force =    -0.00081153    0.02641780    0.00366062
     atom   22 type  2   force =    -0.00489788    0.00278860   -0.25762475
     atom   23 type  2   force =     0.00804143   -0.01683577    0.26321822
     atom   24 type  1   force =     0.00200712    0.01395450   -0.01064711
     atom   25 type  2   force =     0.00432808   -0.00235850   -0.26803976
     atom   26 type  2   force =     0.00302073   -0.01272931    0.26367452
     atom   27 type  1   force =    -0.00395066    0.00576362    0.00588277
     atom   28 type  2   force =     0.00098388   -0.01440491   -0.27194996
     atom   29 type  2   force =     0.00404029    0.00645754    0.26530129
     atom   30 type  1   force =     0.00074829    0.02177382    0.01031605
     atom   31 type  2   force =    -0.01783429   -0.00974530   -0.22104884
     atom   32 type  2   force =    -0.00080226   -0.00970648    0.27398734
     atom   33 type  1   force =    -0.00001372    0.00690340    0.00280731
     atom   34 type  2   force =    -0.00165763   -0.02266383   -0.27239761
     atom   35 type  2   force =     0.00039492   -0.01032914    0.26218082
     atom   36 type  3   force =    -0.01966907    0.00334938   -0.01797282
     The ionic contribution  to forces
     atom    1 type  1   force =    -0.04633924    0.79794540    5.79648896
     atom    2 type  2   force =    -0.33055234    0.16900494   39.38501895
     atom    3 type  2   force =    -0.15703195    0.05992165  -36.30553031
     atom    4 type  1   force =    -0.57668481    0.26545361    0.48982615
     atom    5 type  2   force =    -1.08869306    1.39080438   38.49352138
     atom    6 type  2   force =     0.28338579   -0.57369466  -37.82558023
     atom    7 type  1   force =    -2.22386201   -2.63287613    2.36238764
[...]
     atom   27 type  1   force =     0.00405085    0.00993577    0.00404578
     atom   28 type  2   force =    -0.00642119   -0.00904353   -0.26131552
     atom   29 type  2   force =    -0.00188350   -0.00887728    0.26930187
     atom   30 type  1   force =     0.01354516    0.02507474   -0.00228805
     atom   31 type  2   force =    -0.01689007    0.00202103   -0.25390680
     atom   32 type  2   force =     0.00366661   -0.01496727    0.26353928
     atom   33 type  1   force =     0.00431299    0.00826522    0.00026051
     atom   34 type  2   force =     0.00007900   -0.01833792   -0.26291321
     atom   35 type  2   force =    -0.00043588   -0.01715264    0.26639368
     atom   36 type  3   force =    -0.00546855    0.00802616   -0.06120858
     The ionic contribution  to forces
     atom    1 type  1   force =    -0.08306546    0.70106873    2.56865220
     atom    2 type  2   force =    -0.24859492    0.13486012   38.87795682
     atom    3 type  2   force =     0.07839770   -0.08941416  -37.44299209
     atom    4 type  1   force =    -0.80787365    0.89972368   -0.39818345
     atom    5 type  2   force =    -0.92599704    1.36962576   37.98405794
     atom    6 type  2   force =     0.04667588   -0.11663611  -38.01167363
     atom    7 type  1   force =    -2.63400939   -2.67834252    0.56884931
     atom    8 type  2   force =    -1.63024495    0.24558941   35.39542167
     atom    9 type  2   force =     0.28348127   -0.02181803  -37.50587528
     atom   10 type  1   force =    -0.27601535   -0.49184740    2.89773865
     atom   11 type  2   force =    -0.49294601   -1.51942926   38.60044619
     atom   12 type  2   force =     0.20894069    0.35084614  -38.23283290
     atom   13 type  1   force =     0.23350353    0.58819554    2.87775038
     atom   14 type  2   force =     0.02450541   -0.03069151   38.76169676
     atom   15 type  2   force =    -0.05591138   -0.14744615  -37.49552747
     atom   16 type  1   force =     1.17812146    3.51771321    0.89789805
     atom   17 type  2   force =     0.96528403    1.10588303   38.45765346
     atom   18 type  2   force =    -0.16884628   -0.40015471  -38.26836471
     atom   19 type  1   force =     3.14096470   -0.94821430    3.84362258
     atom   20 type  2   force =     0.14217860    0.02658207  -38.68542949
     atom   21 type  1   force =    -0.39670026   -0.56217546    1.56297597
     atom   22 type  2   force =     0.57104494   -1.46992858   38.49647395
     atom   23 type  2   force =    -0.22433959    0.11348240  -37.39235724
     atom   24 type  1   force =    -0.07224676    0.12324074    2.41669555
     atom   25 type  2   force =     0.17905219    0.06406843   39.05630198
     atom   26 type  2   force =    -0.05130301   -0.19798440  -37.43374792
     atom   27 type  1   force =    -0.08800417    0.32457430   -0.09303092
     atom   28 type  2   force =    -0.05125281    0.47091578   38.19405682
     atom   29 type  2   force =     0.01022122   -0.06827421  -37.95528166
     atom   30 type  1   force =    -0.21013357   -0.50330885    2.80958372
     atom   31 type  2   force =     1.14028063    0.12651121   38.56541253
     atom   32 type  2   force =    -0.36534255    0.18272939  -37.95467103
     atom   33 type  1   force =     0.69517595   -0.61811572    3.73371777
     atom   34 type  2   force =    -0.07274493   -0.40827174   39.00628893
     atom   35 type  2   force =     0.01239219    0.07223410  -37.31528235
     atom   36 type  3   force =    -0.05464830   -0.14579093    8.61199890
     The local contribution  to forces
     atom    1 type  1   force =     0.09098996   -0.72205857   -2.55905273
     atom    2 type  2   force =     0.24714417   -0.12323866  -38.63314597
     atom    3 type  2   force =    -0.07609672    0.09973507   37.19525958
     atom    4 type  1   force =     0.80826247   -0.89235444    0.40428816
     atom    5 type  2   force =     0.91397581   -1.35503463  -37.75560404
     atom    6 type  2   force =    -0.04885869    0.11805120   37.76467653
     atom    7 type  1   force =     2.67402485    2.68778448   -0.56853892
     atom    8 type  2   force =     1.58701852   -0.21123713  -35.64816629
     atom    9 type  2   force =    -0.27755905    0.03303283   37.24214477
     atom   10 type  1   force =     0.27718509    0.48315220   -2.90047328
     atom   11 type  2   force =     0.48846531    1.52333662  -38.37224293
     atom   12 type  2   force =    -0.20538794   -0.33481662   37.99210223
     atom   13 type  1   force =    -0.23875942   -0.61028222   -2.87575826
     atom   14 type  2   force =    -0.02506973    0.04167928  -38.51668912
     atom   15 type  2   force =     0.05434942    0.15363295   37.25452430
     atom   16 type  1   force =    -1.18547791   -3.57205847   -0.87318774
     atom   17 type  2   force =    -0.96160193   -1.08292455  -38.22389952
     atom   18 type  2   force =     0.17296003    0.40123973   38.02451397
     atom   19 type  1   force =    -3.18500308    0.95005829   -3.81673082
     atom   20 type  2   force =    -0.14424941   -0.01483458   38.44617218
     atom   21 type  1   force =     0.39792285    0.53892921   -1.56385846
     atom   22 type  2   force =    -0.56710988    1.47355679  -38.25718873
     atom   23 type  2   force =     0.21447710   -0.09953243   37.14623544
     atom   24 type  1   force =     0.06893520   -0.13433478   -2.41413574
     atom   25 type  2   force =    -0.17945162   -0.05337136  -38.81420712
     atom   26 type  2   force =     0.04898983    0.20672171   37.18834416
     atom   27 type  1   force =     0.08467022   -0.33451490    0.08983422
     atom   28 type  2   force =     0.05700970   -0.46188976  -37.95232335
     atom   29 type  2   force =    -0.00787578    0.07755615   37.70765458
     atom   30 type  1   force =     0.19651402    0.47973764   -2.80818071
     atom   31 type  2   force =    -1.12344326   -0.12867857  -38.33092780
     atom   32 type  2   force =     0.36239700   -0.16929779   37.71172699
     atom   33 type  1   force =    -0.69940991    0.60898295   -3.73489285
     atom   34 type  2   force =     0.07231110    0.42605881  -38.76391426
     atom   35 type  2   force =    -0.01239074   -0.05719703   37.06977515
     atom   36 type  3   force =     0.05997128    0.13989659   -8.55007947
     The core correction contribution to forces
     atom    1 type  1   force =     0.00000000    0.00000000    0.00000000
     atom    2 type  2   force =    -0.00015188    0.00057096    0.02072463
     atom    3 type  2   force =     0.00003910    0.00054868   -0.02099701
     atom    4 type  1   force =     0.00000000    0.00000000    0.00000000
     atom    5 type  2   force =    -0.00107541    0.00062807    0.01972635
     atom    6 type  2   force =    -0.00026763   -0.00024339   -0.02080761
     atom    7 type  1   force =     0.00000000    0.00000000    0.00000000
     atom    8 type  2   force =    -0.00299976    0.00267196   -0.01060828
     atom    9 type  2   force =     0.00055431    0.00071584   -0.02153880
     atom   10 type  1   force =     0.00000000    0.00000000    0.00000000
     atom   11 type  2   force =    -0.00026797    0.00005701    0.01998882
     atom   12 type  2   force =     0.00042810    0.00123634   -0.02078269
     atom   13 type  1   force =     0.00000000    0.00000000    0.00000000
     atom   14 type  2   force =    -0.00002189    0.00020932    0.02085138
     atom   15 type  2   force =    -0.00013868    0.00025466   -0.02068107
     atom   16 type  1   force =     0.00000000    0.00000000    0.00000000
     atom   17 type  2   force =     0.00044168    0.00118172    0.02022582
     atom   18 type  2   force =    -0.00004181   -0.00049489   -0.02082089
     atom   19 type  1   force =     0.00000000    0.00000000    0.00000000
     atom   20 type  2   force =    -0.00007583    0.00058034   -0.02113282
     atom   21 type  1   force =     0.00000000    0.00000000    0.00000000
     atom   22 type  2   force =     0.00021156   -0.00015024    0.02037545
     atom   23 type  2   force =    -0.00075692    0.00065550   -0.02072001
     atom   24 type  1   force =     0.00000000    0.00000000    0.00000000
     atom   25 type  2   force =     0.00002157    0.00055551    0.02063983
     atom   26 type  2   force =     0.00001028    0.00025903   -0.02090843
     atom   27 type  1   force =     0.00000000    0.00000000    0.00000000
     atom   28 type  2   force =     0.00050128    0.00043078    0.02046469
     atom   29 type  2   force =     0.00018170    0.00023071   -0.02097086
     atom   30 type  1   force =     0.00000000    0.00000000    0.00000000
     atom   31 type  2   force =     0.00105100    0.00001357    0.02021979
     atom   32 type  2   force =    -0.00042743    0.00080165   -0.02081529
     atom   33 type  1   force =     0.00000000    0.00000000    0.00000000
     atom   34 type  2   force =     0.00000514    0.00110267    0.02057808
     atom   35 type  2   force =     0.00000170    0.00096923   -0.02097083
     atom   36 type  3   force =     0.00000000    0.00000000    0.00000000
     The Hubbard contrib.    to forces
     atom    1 type  1   force =     0.00000000    0.00000000    0.00000000
     atom    2 type  2   force =     0.00000000    0.00000000    0.00000000
     atom    3 type  2   force =     0.00000000    0.00000000    0.00000000
     atom    4 type  1   force =     0.00000000    0.00000000    0.00000000
     atom    5 type  2   force =     0.00000000    0.00000000    0.00000000
     atom    6 type  2   force =     0.00000000    0.00000000    0.00000000
     atom    7 type  1   force =     0.00000000    0.00000000    0.00000000
     atom    8 type  2   force =     0.00000000    0.00000000    0.00000000
     atom    9 type  2   force =     0.00000000    0.00000000    0.00000000
     atom   10 type  1   force =     0.00000000    0.00000000    0.00000000
     atom   11 type  2   force =     0.00000000    0.00000000    0.00000000
     atom   12 type  2   force =     0.00000000    0.00000000    0.00000000
     atom   13 type  1   force =     0.00000000    0.00000000    0.00000000
     atom   14 type  2   force =     0.00000000    0.00000000    0.00000000
     atom   15 type  2   force =     0.00000000    0.00000000    0.00000000
     atom   16 type  1   force =     0.00000000    0.00000000    0.00000000
     atom   17 type  2   force =     0.00000000    0.00000000    0.00000000
     atom   18 type  2   force =     0.00000000    0.00000000    0.00000000
     atom   19 type  1   force =     0.00000000    0.00000000    0.00000000
     atom   20 type  2   force =     0.00000000    0.00000000    0.00000000
     atom   21 type  1   force =     0.00000000    0.00000000    0.00000000
     atom   22 type  2   force =     0.00000000    0.00000000    0.00000000
     atom   23 type  2   force =     0.00000000    0.00000000    0.00000000
     atom   24 type  1   force =     0.00000000    0.00000000    0.00000000
     atom   25 type  2   force =     0.00000000    0.00000000    0.00000000
     atom   26 type  2   force =     0.00000000    0.00000000    0.00000000
     atom   27 type  1   force =     0.00000000    0.00000000    0.00000000
     atom   28 type  2   force =     0.00000000    0.00000000    0.00000000
     atom   29 type  2   force =     0.00000000    0.00000000    0.00000000
     atom   30 type  1   force =     0.00000000    0.00000000    0.00000000
     atom   31 type  2   force =     0.00000000    0.00000000    0.00000000
     atom   32 type  2   force =     0.00000000    0.00000000    0.00000000
     atom   33 type  1   force =     0.00000000    0.00000000    0.00000000
     atom   34 type  2   force =     0.00000000    0.00000000    0.00000000
     atom   35 type  2   force =     0.00000000    0.00000000    0.00000000
     atom   36 type  3   force =     0.00000000    0.00000000    0.00000000
     The SCF correction term to forces
     atom    1 type  1   force =     0.00001201   -0.00000883    0.00001149
     atom    2 type  2   force =     0.00000426   -0.00002898    0.00001977
     atom    3 type  2   force =     0.00000901   -0.00001733   -0.00000736
     atom    4 type  1   force =    -0.00000117    0.00002589    0.00001893
     atom    5 type  2   force =     0.00000700    0.00001363    0.00000528
     atom    6 type  2   force =     0.00000757    0.00000059    0.00000407
     atom    7 type  1   force =     0.00003558    0.00001662    0.00007720
     atom    8 type  2   force =     0.00000658    0.00001463    0.00003545
     atom    9 type  2   force =     0.00000801   -0.00000484    0.00000686
     atom   10 type  1   force =     0.00002693   -0.00002477    0.00004651
     atom   11 type  2   force =     0.00001256   -0.00000449    0.00003995
     atom   12 type  2   force =     0.00000984    0.00001629    0.00000050
     atom   13 type  1   force =    -0.00001719   -0.00002260   -0.00000215
     atom   14 type  2   force =    -0.00000172   -0.00002129    0.00002249
     atom   15 type  2   force =    -0.00000603   -0.00000925   -0.00000873
     atom   16 type  1   force =     0.00001125   -0.00000103    0.00003309
     atom   17 type  2   force =    -0.00000847    0.00001095    0.00001326
     atom   18 type  2   force =    -0.00001051   -0.00000799   -0.00000092
     atom   19 type  1   force =    -0.00002720    0.00003424    0.00006859
     atom   20 type  2   force =    -0.00000098    0.00000222    0.00000035
     atom   21 type  1   force =    -0.00000682   -0.00001996    0.00004670
     atom   22 type  2   force =    -0.00000807   -0.00000447    0.00002693
     atom   23 type  2   force =    -0.00001389    0.00001500    0.00000426
     atom   24 type  1   force =     0.00001861   -0.00002637   -0.00000754
     atom   25 type  2   force =    -0.00000266   -0.00002530    0.00001798
     atom   26 type  2   force =    -0.00000352   -0.00001479   -0.00001071
     atom   27 type  1   force =    -0.00001319    0.00000969    0.00002531
     atom   28 type  2   force =     0.00000077    0.00001601    0.00000771
     atom   29 type  2   force =     0.00000227    0.00000155   -0.00000304
     atom   30 type  1   force =    -0.00000586    0.00003469    0.00007810
     atom   31 type  2   force =    -0.00000802    0.00001735    0.00003747
     atom   32 type  2   force =    -0.00000760    0.00000355   -0.00000193
     atom   33 type  1   force =    -0.00002043   -0.00001896    0.00002722
     atom   34 type  2   force =    -0.00000330   -0.00000824    0.00003454
     atom   35 type  2   force =     0.00000334    0.00001606    0.00000368
     atom   36 type  3   force =     0.00000113    0.00000456    0.00000192

     Total force =     0.007484     Total SCF correction =     0.000220
     Energy error            =      9.8E-05 Ry
     Gradient error          =      2.1E-03 Ry/Bohr

     bfgs converged in  37 scf cycles and  35 bfgs steps
     (criteria: energy <  1.0E-04 Ry, force <  1.0E-02 Ry/Bohr)

     End of BFGS Geometry Optimization

     Final energy             =   -2205.5985123263 Ry

     File ./MoS2-V-O.bfgs deleted, as requested
Begin final coordinates

ATOMIC_POSITIONS (angstrom)
Mo            6.5898807061        1.7614279775        2.7585138160
S             8.1674579773        0.8515227934        4.3708149570
S             8.1729287930        0.8463416422        1.1784926534
Mo            8.1620461897        4.4556763246        2.6999589137
S             6.5295070115        3.6640804371        4.2938605315
S             6.5872435405        3.5580993628        1.1043594087
Mo            6.5554652277        7.2364036613        2.6375694889
S             8.1090605954        6.2970857150        4.2175427468
S             8.2003121332        6.3268819535        1.1288946970
Mo            8.1796527037        9.9420722659        2.7717715971
S             6.5634859968        8.9738533932        4.3261050109
S             6.6251734709        9.0718713673        1.1115935394
Mo            3.4625512169        1.7606200924        2.7657661619
S             5.0285973655        0.8256391722        4.3532328944
S             5.0247265629        0.8427557184        1.1728949968
Mo            4.9889772657        4.5422478438        2.6405496933
S             3.4810698747        3.6727800243        4.3124246817
S             3.4517104702        3.5532122419        1.1006288448
Mo            3.5081947527        7.1348842634        2.6950168638
S             5.0369760897        6.3306739856        1.0356457492
Mo            5.0364354348        9.9187512986        2.7397000160
S             3.5154533961        8.9351411312        4.3377185466
S             3.4424019352        9.0214948768        1.1529031770
Mo            0.3104888546        1.7353944688        2.7696205723
S             1.9021578860        0.8511315558        4.3810982296
S             1.8955339087        0.8289337104        1.1841061040
Mo            1.8835215538        4.4870122922        2.7051115746
S             0.2983005118        3.5905403135        4.3138392255
S             0.2957622254        3.5360650218        1.1307099097
Mo            0.3297350315        7.2243727255        2.7613146827
S             1.9546643495        6.2825856222        4.3233533957
S             1.8827080280        6.3288693242        1.1222526923
Mo            1.8981841205        9.9363916241        2.7883209399
S             0.3107646281        9.0426618454        4.3774647971
S             0.3189612937        9.0582110577        1.1888221739
H             8.2290159103        6.1268704175        5.5743495365
End final coordinates



     Writing all to output data dir ./MoS2-V-O.save/
 
     init_run     :      2.40s CPU      2.58s WALL (       1 calls)
     electrons    :   3563.48s CPU   3910.26s WALL (      37 calls)
     update_pot   :     50.22s CPU     52.33s WALL (      36 calls)
     forces       :     49.88s CPU     53.39s WALL (      37 calls)

     Called by init_run:
     wfcinit      :      0.38s CPU      0.42s WALL (       1 calls)
     potinit      :      1.33s CPU      1.41s WALL (       1 calls)
     hinit0       :      0.17s CPU      0.19s WALL (       1 calls)

     Called by electrons:
     c_bands      :    391.48s CPU    395.75s WALL (     323 calls)
     sum_band     :    102.80s CPU    112.52s WALL (     323 calls)
     v_of_rho     :    134.61s CPU    155.36s WALL (     348 calls)
     newd         :     55.50s CPU     62.45s WALL (     348 calls)
     mix_rho      :   2894.77s CPU   3198.30s WALL (     323 calls)

     Called by c_bands:
     init_us_2    :      7.09s CPU      7.36s WALL (     647 calls)
     init_us_2:cp :      7.08s CPU      7.35s WALL (     647 calls)
     regterg      :    368.06s CPU    372.03s WALL (     323 calls)

     Called by *egterg:
     rdiaghg      :     30.50s CPU     30.73s WALL (    1789 calls)
     h_psi        :    211.89s CPU    213.78s WALL (    1838 calls)
     s_psi        :     26.96s CPU     27.08s WALL (    1838 calls)
     g_psi        :      1.45s CPU      1.46s WALL (    1514 calls)

     Called by h_psi:
     h_psi:calbec :     29.54s CPU     29.66s WALL (    1838 calls)
     vloc_psi     :    152.68s CPU    154.27s WALL (    1838 calls)
     add_vuspsi   :     26.24s CPU     26.38s WALL (    1838 calls)

     General routines
     calbec       :     42.03s CPU     42.20s WALL (    2309 calls)
     fft          :     89.13s CPU    104.00s WALL (   23385 calls)
     ffts         :   1296.78s CPU   1590.21s WALL (  708141 calls)
     fftw         :    129.60s CPU    130.84s WALL (  196643 calls)
     interpolate  :      2.45s CPU      2.81s WALL (     348 calls)
 
     Parallel routines
 
     PWSCF        :      1h 1m CPU      1h 7m WALL

 
   This run was terminated on:   6:17:36   4Nov2023            

=------------------------------------------------------------------------------=
   JOB DONE.
=------------------------------------------------------------------------------=
