
     Program PWSCF v.7.2 starts on  3Nov2023 at 21:25:44 

     This program is part of the open-source Quantum ESPRESSO suite
     for quantum simulation of materials; please cite
         "P. Giannozzi et al., J. Phys.:Condens. Matter 21 395502 (2009);
         "P. Giannozzi et al., J. Phys.:Condens. Matter 29 465901 (2017);
         "P. Giannozzi et al., J. Chem. Phys. 152 154105 (2020);
          URL http://www.quantum-espresso.org", 
     in publications or presentations arising from this work. More details at
     http://www.quantum-espresso.org/quote

     Parallel version (MPI & OpenMP), running on      48 processor cores
     Number of MPI processes:                48
     Threads/MPI process:                     1

     MPI processes distributed on     1 nodes
     149176 MiB available memory on the printing compute node when the environment starts
 
     Waiting for input...
     Reading input from standard input
Warning: card &CELL ignored
Warning: card CELL_DYNAMICS = 'BFGS', ignored
Warning: card CELL_DOFREE = '2DXY' ignored
Warning: card / ignored

     Current dimensions of program PWSCF are:
     Max number of different atomic species (ntypx) = 10
     Max number of k-points (npk) =  40000
     Max angular momentum in pseudopotentials (lmaxx) =  4

     IMPORTANT: XC functional enforced from input :
     Exchange-correlation= RVV10
                           (   1   4  13   4  26   0   0)
     Any further DFT definition will be discarded
     Please, verify this is what you really want


     gamma-point specific algorithms are used
     signal trapping enabled: kill the code with -SIGUSR1 to stop cleanly the simulation 
 
     R & G space division:  proc/nbgrp/npool/nimage =      48
     Subspace diagonalization in iterative solution of the eigenvalue problem:
     one sub-group per band group will be used
     scalapack distributed-memory algorithm (size of sub-group:  2*  2 procs)

 
     Parallelization info
     --------------------
     sticks:   dense  smooth     PW     G-vecs:    dense   smooth      PW
     Min         243     194     47                49060    35090    4376
     Max         246     196     50                49086    35128    4410
     Sum       11735    9389   2349              2355467  1685513  210763
 
     Using Slab Decomposition
 


     bravais-lattice index     =            0
     lattice parameter (alat)  =      17.8707  a.u.
     unit-cell volume          =   17436.2743 (a.u.)^3
     number of atoms/cell      =           36
     number of atomic types    =            3
     number of electrons       =       307.00
     number of Kohn-Sham states=          185
     kinetic-energy cutoff     =      80.0000  Ry
     charge density cutoff     =     400.0000  Ry
     scf convergence threshold =      1.0E-06
     mixing beta               =       0.7000
     number of iterations used =            8  local-TF  mixing
     energy convergence thresh.=      1.0E-04
     force convergence thresh. =      1.0E-02
     Exchange-correlation= RVV10
                           (   1   4  13   4  26   0   0)
     nstep                     =          200


     celldm(1)=  17.870686  celldm(2)=   0.000000  celldm(3)=   0.000000
     celldm(4)=   0.000000  celldm(5)=   0.000000  celldm(6)=   0.000000

     crystal axes: (cart. coord. in units of alat)
               a(1) = (   1.000000   0.000000   0.000000 )  
               a(2) = (   0.000000   1.155671   0.000000 )  
               a(3) = (   0.000000   0.000000   2.643601 )  

     reciprocal axes: (cart. coord. in units 2 pi/alat)
               b(1) = (  1.000000  0.000000  0.000000 )  
               b(2) = (  0.000000  0.865298  0.000000 )  
               b(3) = (  0.000000  0.000000  0.378272 )  


     PseudoPot. # 1 for Mo read from file:
     ../pseudo/Mo_ONCV_PBE-1.0.oncvpsp.upf
     MD5 check sum: 1b5d28e075c9ccadda658a603575cd1f
     Pseudo is Norm-conserving, Zval = 14.0
     Generated using ONCVPSP code by D. R. Hamann
     Using radial grid of 1526 points,  6 beta functions with: 
                l(1) =   0
                l(2) =   0
                l(3) =   1
                l(4) =   1
                l(5) =   2
                l(6) =   2

     PseudoPot. # 2 for S  read from file:
     ../pseudo/s_pbe_v1.4.uspp.F.UPF
     MD5 check sum: 88d86576ff6df21479756cfb9bdac1df
     Pseudo is Ultrasoft + core correction, Zval =  6.0
     Generated by new atomic code, or converted to UPF format
     Using radial grid of  907 points,  6 beta functions with: 
                l(1) =   0
                l(2) =   0
                l(3) =   1
                l(4) =   1
                l(5) =   2
                l(6) =   2
     Q(r) pseudized with  8 coefficients,  rinner =    1.300   1.300   1.300
                                                       1.300   1.300

     PseudoPot. # 3 for H  read from file:
     ../pseudo/H_ONCV_PBE-1.0.oncvpsp.upf
     MD5 check sum: 1790becc920ee074925cf490c71280fe
     Pseudo is Norm-conserving, Zval =  1.0
     Generated using ONCVPSP code by D. R. Hamann
     Using radial grid of 1166 points,  2 beta functions with: 
                l(1) =   0
                l(2) =   0

     atomic species   valence    mass     pseudopotential
        Mo            14.00    95.94000     Mo( 1.00)
        S              6.00    32.06500     S ( 1.00)
        H              1.00     1.00794     H ( 1.00)

     No symmetry found



   Cartesian axes

     site n.     atom                  positions (alat units)
         1           Mo  tau(   1) = (   0.6952221   0.1890506   0.2985846  )
         2           S   tau(   2) = (   0.8646417   0.0856217   0.4689279  )
         3           S   tau(   3) = (   0.8663890   0.0857843   0.1351291  )
         4           Mo  tau(   4) = (   0.8560186   0.4753274   0.2873942  )
         5           S   tau(   5) = (   0.6873294   0.3936244   0.4596353  )
         6           S   tau(   6) = (   0.6929804   0.3713468   0.1185692  )
         7           Mo  tau(   7) = (   0.6862796   0.7633098   0.2825370  )
         8           S   tau(   8) = (   0.8545980   0.6708292   0.4486168  )
         9           S   tau(   9) = (   0.8545123   0.6666874   0.1146125  )
        10           Mo  tau(  10) = (   0.8629403   1.0471007   0.3006803  )
        11           S   tau(  11) = (   0.6868280   0.9456650   0.4634891  )
        12           S   tau(  12) = (   0.6998113   0.9568511   0.1205389  )
        13           Mo  tau(  13) = (   0.3618216   0.1847309   0.2935964  )
        14           S   tau(  14) = (   0.5260962   0.0863870   0.4600448  )
        15           S   tau(  15) = (   0.5348379   0.0894875   0.1297123  )
        16           Mo  tau(  16) = (   0.5265817   0.4772436   0.2784130  )
        17           S   tau(  17) = (   0.3624753   0.3882513   0.4525556  )
        18           S   tau(  18) = (   0.3635411   0.3752055   0.1119148  )
        19           Mo  tau(  19) = (   0.3652268   0.7630864   0.2781795  )
        20           S   tau(  20) = (   0.5269494   0.6690381   0.1096838  )
        21           Mo  tau(  21) = (   0.5300192   1.0470394   0.2900995  )
        22           S   tau(  22) = (   0.3670346   0.9457522   0.4574073  )
        23           S   tau(  23) = (   0.3604225   0.9585725   0.1159032  )
        24           Mo  tau(  24) = (   0.0313099   0.1847895   0.3013130  )
        25           S   tau(  25) = (   0.1956761   0.0838230   0.4650863  )
        26           S   tau(  26) = (   0.1967693   0.0903508   0.1278874  )
        27           Mo  tau(  27) = (   0.1967578   0.4753919   0.2813011  )
        28           S   tau(  28) = (   0.0287851   0.3864324   0.4586755  )
        29           S   tau(  29) = (   0.0244514   0.3729871   0.1239344  )
        30           Mo  tau(  30) = (   0.0286728   0.7631204   0.2856894  )
        31           S   tau(  31) = (   0.2011512   0.6675435   0.4465001  )
        32           S   tau(  32) = (   0.1969214   0.6672839   0.1104564  )
        33           Mo  tau(  33) = (   0.1950294   1.0511147   0.2932237  )
        34           S   tau(  34) = (   0.0312912   0.9612169   0.4667423  )
        35           S   tau(  35) = (   0.0292670   0.9563028   0.1216485  )
        36           H   tau(  36) = (   0.4444444   0.1284079   0.5650415  )

     number of k points=     1  Gaussian smearing, width (Ry)=  0.0100
                       cart. coord. in units 2pi/alat
        k(    1) = (   0.0000000   0.0000000   0.0000000), wk =   2.0000000

     Dense  grid:  1177734 G-vectors     FFT dimensions: ( 120, 135, 320)

     Smooth grid:   842757 G-vectors     FFT dimensions: ( 108, 120, 270)

     Estimated max dynamical RAM per process >     146.59 MB

     Estimated total dynamical RAM >       6.87 GB

     Initial potential from superposition of free atoms

     starting charge     306.9873, renormalised to     307.0000

     negative rho (up, down):  1.410E-04 0.000E+00


---------------------------------------------------------------------------------
Carrying out rVV10 run using the following parameters:
Nqs =      20    Nr_points =    1024   r_max =   100.000
b_value =  6.30000    beta =  0.00901
     q_mesh =  0.00010000  0.00030000  0.00058939  0.00100810
               0.00161396  0.00249058  0.00375900  0.00559430
               0.00824984  0.01209221  0.01765183  0.02569619
               0.03733578  0.05417739  0.07854596  0.11380545
               0.16482331  0.23864234  0.34545298  0.50000000

Gradients computed in Reciprocal space

---------------------------------------------------------------------------------


     Starting wfcs are  213 randomized atomic wfcs

     total cpu time spent up to now is        3.7 secs

     Self-consistent Calculation

     iteration #  1     ecut=    80.00 Ry     beta= 0.70
     Davidson diagonalization with overlap
     ethr =  1.00E-02,  avg # of iterations =  2.0

     Threshold (ethr) on eigenvalues was too large:
     Diagonalizing with lowered threshold

     Davidson diagonalization with overlap
     ethr =  3.95E-04,  avg # of iterations =  4.0

     negative rho (up, down):  1.812E-08 0.000E+00

     total cpu time spent up to now is       17.9 secs

     total energy              =   -2205.62070996 Ry
     estimated scf accuracy    <       1.50268400 Ry

     iteration #  2     ecut=    80.00 Ry     beta= 0.70
     Davidson diagonalization with overlap
     ethr =  4.89E-04,  avg # of iterations =  1.0

     total cpu time spent up to now is       20.3 secs

     total energy              =   -2205.44313550 Ry
     estimated scf accuracy    <       0.62177930 Ry

     iteration #  3     ecut=    80.00 Ry     beta= 0.70
     Davidson diagonalization with overlap
     ethr =  2.03E-04,  avg # of iterations =  5.0

     total cpu time spent up to now is       22.9 secs

     total energy              =   -2205.54039982 Ry
     estimated scf accuracy    <       0.06481227 Ry

     iteration #  4     ecut=    80.00 Ry     beta= 0.70
     Davidson diagonalization with overlap
     ethr =  2.11E-05,  avg # of iterations = 18.0

     total cpu time spent up to now is       26.2 secs

     total energy              =   -2205.54461630 Ry
     estimated scf accuracy    <       0.03340448 Ry

     iteration #  5     ecut=    80.00 Ry     beta= 0.70
     Davidson diagonalization with overlap
     ethr =  1.09E-05,  avg # of iterations =  2.0

     total cpu time spent up to now is       28.4 secs

     total energy              =   -2205.54332099 Ry
     estimated scf accuracy    <       0.02055069 Ry

     iteration #  6     ecut=    80.00 Ry     beta= 0.70
     Davidson diagonalization with overlap
     ethr =  6.69E-06,  avg # of iterations =  2.0

     total cpu time spent up to now is       30.5 secs

     total energy              =   -2205.54322405 Ry
     estimated scf accuracy    <       0.01261213 Ry

     iteration #  7     ecut=    80.00 Ry     beta= 0.70
     Davidson diagonalization with overlap
     ethr =  4.11E-06,  avg # of iterations =  1.0

     total cpu time spent up to now is       32.6 secs

     total energy              =   -2205.54129515 Ry
     estimated scf accuracy    <       0.01025744 Ry

     iteration #  8     ecut=    80.00 Ry     beta= 0.70
     Davidson diagonalization with overlap
     ethr =  3.34E-06,  avg # of iterations =  2.0

     negative rho (up, down):  1.317E-03 0.000E+00

     total cpu time spent up to now is       37.0 secs

     total energy              =   -2205.54059638 Ry
     estimated scf accuracy    <       0.00503347 Ry

     iteration #  9     ecut=    80.00 Ry     beta= 0.70
     Davidson diagonalization with overlap
     ethr =  1.64E-06,  avg # of iterations =  2.0

     negative rho (up, down):  2.723E-02 0.000E+00

     total cpu time spent up to now is       41.9 secs

     total energy              =   -2205.54024000 Ry
     estimated scf accuracy    <       0.00303347 Ry

     iteration # 10     ecut=    80.00 Ry     beta= 0.70
     Davidson diagonalization with overlap
     ethr =  9.88E-07,  avg # of iterations =  2.0

     negative rho (up, down):  3.168E-02 0.000E+00

     total cpu time spent up to now is       46.9 secs

     total energy              =   -2205.54024589 Ry
     estimated scf accuracy    <       0.00166469 Ry

     iteration # 11     ecut=    80.00 Ry     beta= 0.70
     Davidson diagonalization with overlap
     ethr =  5.42E-07,  avg # of iterations =  2.0

     negative rho (up, down):  2.002E-02 0.000E+00

     total cpu time spent up to now is       52.0 secs

     total energy              =   -2205.54025004 Ry
     estimated scf accuracy    <       0.00040273 Ry

     iteration # 12     ecut=    80.00 Ry     beta= 0.70
     Davidson diagonalization with overlap
     ethr =  1.31E-07,  avg # of iterations =  6.0

     negative rho (up, down):  1.108E-02 0.000E+00

     total cpu time spent up to now is       58.3 secs

     total energy              =   -2205.54030418 Ry
     estimated scf accuracy    <       0.00014703 Ry

     iteration # 13     ecut=    80.00 Ry     beta= 0.70
     Davidson diagonalization with overlap
     ethr =  4.79E-08,  avg # of iterations =  2.0

     negative rho (up, down):  3.142E-03 0.000E+00

     total cpu time spent up to now is       63.8 secs

     total energy              =   -2205.54035904 Ry
     estimated scf accuracy    <       0.00003393 Ry

     iteration # 14     ecut=    80.00 Ry     beta= 0.70
     Davidson diagonalization with overlap
     ethr =  1.11E-08,  avg # of iterations = 11.0

     negative rho (up, down):  1.159E-03 0.000E+00

     total cpu time spent up to now is       71.9 secs

     total energy              =   -2205.54036342 Ry
     estimated scf accuracy    <       0.00000708 Ry

     iteration # 15     ecut=    80.00 Ry     beta= 0.70
     Davidson diagonalization with overlap
     ethr =  2.31E-09,  avg # of iterations =  3.0

     negative rho (up, down):  5.160E-04 0.000E+00

     total cpu time spent up to now is       79.3 secs

     total energy              =   -2205.54036487 Ry
     estimated scf accuracy    <       0.00000300 Ry

     iteration # 16     ecut=    80.00 Ry     beta= 0.70
     Davidson diagonalization with overlap
     ethr =  9.76E-10,  avg # of iterations =  2.0

     negative rho (up, down):  3.654E-04 0.000E+00

     total cpu time spent up to now is       90.9 secs

     total energy              =   -2205.54036634 Ry
     estimated scf accuracy    <       0.00000124 Ry

     iteration # 17     ecut=    80.00 Ry     beta= 0.70
     Davidson diagonalization with overlap
     ethr =  4.05E-10,  avg # of iterations =  2.0

     negative rho (up, down):  1.368E-04 0.000E+00

     total cpu time spent up to now is       92.8 secs

     End of self-consistent calculation

          k = 0.0000 0.0000 0.0000 (105382 PWs)   bands (ev):

   -62.9051 -62.8684 -62.8270 -62.7893 -62.7767 -62.7748 -62.7632 -62.7585
   -62.6886 -62.5884 -62.5722 -62.5046 -37.2113 -37.1448 -37.1195 -37.1067
   -37.0945 -37.0794 -37.0710 -37.0575 -37.0196 -37.0169 -37.0000 -36.9770
   -36.9676 -36.9599 -36.9559 -36.9506 -36.9474 -36.9420 -36.9378 -36.9267
   -36.8907 -36.8617 -36.8483 -36.8349 -36.8159 -36.8037 -36.7963 -36.7824
   -36.7586 -36.7504 -36.7388 -36.7221 -36.6810 -36.6526 -36.5359 -36.5305
   -16.6164 -15.7252 -15.1085 -14.9806 -14.9015 -14.8078 -14.5863 -14.4297
   -14.4047 -14.3758 -14.3282 -14.2888 -14.2696 -14.2251 -14.0910 -14.0623
   -14.0449 -14.0346 -13.9843 -13.8366 -13.7527 -13.7329 -13.7090  -9.4055
    -7.6474  -7.4093  -7.3044  -7.2406  -7.1944  -7.1652  -7.0864  -6.9895
    -6.8108  -6.7127  -6.6849  -6.6385  -6.5733  -6.4511  -6.4263  -6.3885
    -6.3342  -6.2264  -6.1792  -5.9406  -5.8618  -5.8463  -5.7598  -5.7311
    -5.6961  -5.6781  -5.6106  -5.5796  -5.5509  -5.5074  -5.4639  -5.3825
    -5.3606  -5.3008  -5.1712  -5.1060  -5.0001  -4.9586  -4.9306  -4.8871
    -4.8585  -4.7542  -4.6796  -4.4799  -4.4049  -4.3006  -4.2433  -4.1670
    -4.1308  -4.0187  -3.9713  -3.9287  -3.8433  -3.7308  -3.6487  -3.6139
    -3.5591  -3.4929  -3.4640  -3.4374  -3.4239  -3.4080  -3.3727  -3.3580
    -3.3122  -3.1813  -3.0944  -2.8648  -2.8093  -2.7412  -2.7161  -2.6923
    -2.6664  -2.6190  -2.5838  -2.5266  -2.4607  -2.1956  -1.9450  -1.9244
    -1.7986  -0.6477  -0.6043  -0.5613  -0.1563  -0.0799  -0.0549   0.0906
     0.1304   0.1755   0.2166   0.2390   0.2736   0.3093   0.4502   0.5194
     0.5488   0.6225   0.6261   0.6407   0.6868   0.7292   0.7792   0.7976
     0.8222   0.8397   0.9367   0.9598   1.0104   1.0533   1.1155   1.3536
     1.4491

     the Fermi energy is    -0.7038 ev

!    total energy              =   -2205.54036632 Ry
     estimated scf accuracy    <       0.00000046 Ry
     smearing contrib. (-TS)   =      -0.00995287 Ry
     internal energy E=F+TS    =   -2205.53041345 Ry

     The total energy is F=E-TS. E is the sum of the following terms:
     one-electron contribution =  -18049.99475981 Ry
     hartree contribution      =    9012.38539487 Ry
     xc contribution           =    -385.39801795 Ry
     ewald contribution        =    7217.47696944 Ry

     convergence has been achieved in  17 iterations

     negative rho (up, down):  1.368E-04 0.000E+00

     Forces acting on atoms (cartesian axes, Ry/au):

     atom    1 type  1   force =     0.02247339    0.00039958    0.00843332
     atom    2 type  2   force =    -0.00868831    0.01600826   -0.00093540
     atom    3 type  2   force =    -0.01224733    0.00893436   -0.00372842
     atom    4 type  1   force =     0.01090643   -0.00419967    0.00313869
     atom    5 type  2   force =     0.00116335   -0.00138444   -0.00532765
     atom    6 type  2   force =     0.00217916    0.00786874    0.00052783
     atom    7 type  1   force =     0.00210903   -0.00350272   -0.00683714
     atom    8 type  2   force =     0.00115077   -0.00451976    0.01679552
     atom    9 type  2   force =     0.01414401    0.00412352    0.01086814
     atom   10 type  1   force =    -0.01470910    0.01227431   -0.02441553
     atom   11 type  2   force =     0.00771929   -0.00674902   -0.00442189
     atom   12 type  2   force =    -0.00303159    0.00147358    0.00524059
     atom   13 type  1   force =    -0.01049897    0.01837803   -0.03600068
     atom   14 type  2   force =     0.03750231   -0.01305848   -0.02374051
     atom   15 type  2   force =    -0.01304487    0.00146801   -0.00739909
     atom   16 type  1   force =     0.00203874   -0.00220601   -0.00257422
     atom   17 type  2   force =     0.00549262    0.00391864    0.00291176
     atom   18 type  2   force =    -0.00613735   -0.00664322    0.01542093
     atom   19 type  1   force =     0.00925159   -0.00038427   -0.00294332
     atom   20 type  2   force =     0.00275844   -0.00460497    0.00100291
     atom   21 type  1   force =    -0.01566529   -0.01406091    0.00006583
     atom   22 type  2   force =    -0.00350187   -0.00842865   -0.00057129
     atom   23 type  2   force =    -0.00045734    0.00426080    0.00775573
     atom   24 type  1   force =    -0.01099489   -0.00033727   -0.01815233
     atom   25 type  2   force =     0.01289213    0.01818277    0.00662048
     atom   26 type  2   force =    -0.00999303   -0.00047112   -0.00395561
     atom   27 type  1   force =    -0.00654514   -0.00870627    0.00890630
     atom   28 type  2   force =     0.00035107    0.00033688   -0.00637533
     atom   29 type  2   force =     0.00260132    0.00113079   -0.00357887
     atom   30 type  1   force =    -0.00419800    0.01239119   -0.00599932
     atom   31 type  2   force =     0.00057492   -0.00129656    0.01606657
     atom   32 type  2   force =    -0.01031093    0.00489086    0.00711263
     atom   33 type  1   force =     0.01566226   -0.00598841   -0.01166551
     atom   34 type  2   force =     0.00271310   -0.04360214   -0.01051760
     atom   35 type  2   force =    -0.00753087    0.00641281    0.01534444
     atom   36 type  3   force =    -0.01612903    0.00769078    0.05292803
     The non-local contrib.  to forces
     atom    1 type  1   force =     0.00371509    0.02841703   -0.02534168
     atom    2 type  2   force =    -0.00708413    0.00264071   -0.26489439
     atom    3 type  2   force =    -0.01542104    0.00028974    0.27153351
     atom    4 type  1   force =    -0.00026271    0.01670631    0.00364579
     atom    5 type  2   force =     0.00468541   -0.03756108   -0.25239418
     atom    6 type  2   force =     0.00191957    0.00305851    0.26568426
     atom    7 type  1   force =    -0.02871429   -0.01143040   -0.01441553
     atom    8 type  2   force =     0.00397448   -0.00484633   -0.25496463
     atom    9 type  2   force =     0.01002978   -0.01141385    0.27393832
     atom   10 type  1   force =     0.00873080   -0.00655593    0.00149465
     atom   11 type  2   force =     0.01735304    0.00318875   -0.25634154
     atom   12 type  2   force =    -0.01495097   -0.01494970    0.26268579
     atom   13 type  1   force =    -0.00819348    0.02714639   -0.00634028
     atom   14 type  2   force =    -0.14619281    0.08237203    0.08261310
     atom   15 type  2   force =    -0.01377623   -0.00500125    0.26745451
     atom   16 type  1   force =    -0.00099521    0.05149415   -0.01442240
     atom   17 type  2   force =    -0.00041221   -0.02917251   -0.23781047
     atom   18 type  2   force =    -0.00659131   -0.00813855    0.27357573
     atom   19 type  1   force =     0.01912775   -0.01663173   -0.01227866
     atom   20 type  2   force =    -0.00012448   -0.02185132    0.26385347
     atom   21 type  1   force =    -0.00021171    0.01265862   -0.01528633
     atom   22 type  2   force =    -0.00628734    0.00778522   -0.25557956
     atom   23 type  2   force =     0.01077893   -0.01180953    0.26885895
     atom   24 type  1   force =     0.00663004    0.01931185   -0.01209624
     atom   25 type  2   force =     0.00993037    0.00976962   -0.24025297
     atom   26 type  2   force =    -0.00238996   -0.01195971    0.26557093
     atom   27 type  1   force =    -0.00026293    0.01706628    0.00878788
     atom   28 type  2   force =    -0.00347417   -0.02683129   -0.27344843
     atom   29 type  2   force =     0.00665296    0.00190199    0.26422159
     atom   30 type  1   force =    -0.00098731    0.01468189    0.00980793
     atom   31 type  2   force =    -0.00704712    0.00066352   -0.25244811
     atom   32 type  2   force =    -0.00638441   -0.01295529    0.27181077
     atom   33 type  1   force =    -0.00735490    0.00393038    0.00572703
     atom   34 type  2   force =    -0.00144004   -0.03756702   -0.27155989
     atom   35 type  2   force =    -0.00231225   -0.00956763    0.27213221
     atom   36 type  3   force =     0.04220392   -0.02178760   -0.05157092
     The ionic contribution  to forces
     atom    1 type  1   force =     0.72521366    0.32135148    5.35382711
     atom    2 type  2   force =    -0.57028228    0.38240475   39.25384556
     atom    3 type  2   force =    -0.14525720    0.00849150  -36.11335937
     atom    4 type  1   force =     0.13915406    0.68372430    0.64755450
     atom    5 type  2   force =    -0.83009047    1.66348276   38.69919915
     atom    6 type  2   force =     0.37251181   -0.46511127  -38.05792524
     atom    7 type  1   force =    -2.56554632   -2.81660316    2.56004338
     atom    8 type  2   force =    -0.96995871    0.04170437   37.39565378
     atom    9 type  2   force =     0.34752195   -0.02991226  -37.99210310
     atom   10 type  1   force =    -1.02657592   -0.43003057    5.60959744
     atom   11 type  2   force =    -0.47813107   -1.73388929   39.11698894
     atom   12 type  2   force =     0.46295927    0.66043874  -37.86925568
     atom   13 type  1   force =     0.20993448    1.17560728    1.99928635
     atom   14 type  2   force =     1.17599925   -0.58579358   37.09471758
     atom   15 type  2   force =     0.18565679   -0.07808661  -36.92040429
     atom   16 type  1   force =     0.03333169    4.18217827    0.34002665
     atom   17 type  2   force =     0.70289838    1.85255961   37.79759819
     atom   18 type  2   force =    -0.17463606   -0.59938186  -38.61997151
     atom   19 type  1   force =     2.69447814   -2.49662242    0.62285270
     atom   20 type  2   force =     0.23466008   -0.18861881  -38.47948456
     atom   21 type  1   force =     0.15963676   -0.29620604    0.82832210
     atom   22 type  2   force =     0.40635852   -1.93847423   38.37486953
     atom   23 type  2   force =    -0.09734347    0.62313489  -38.32245229
     atom   24 type  1   force =    -0.67415650    1.17757951    5.72310102
     atom   25 type  2   force =     0.23905427    0.20043479   39.10852022
     atom   26 type  2   force =    -0.33249388    0.05493902  -37.39902104
     atom   27 type  1   force =    -0.07549335    0.56564092   -2.32921895
     atom   28 type  2   force =     0.00163055    1.08009493   38.19535828
     atom   29 type  2   force =    -0.27780414   -0.40263588  -37.27693133
     atom   30 type  1   force =    -0.36620690   -0.92563697   -0.01951194
     atom   31 type  2   force =     1.19572492   -0.03394233   37.32788507
     atom   32 type  2   force =    -0.49168203    0.00145410  -38.62986968
     atom   33 type  1   force =     0.60809809   -1.06021119    1.89543502
     atom   34 type  2   force =     0.20104672   -1.50912008   39.35071373
     atom   35 type  2   force =    -0.31040123    0.45438361  -37.81629434
     atom   36 type  3   force =    -0.70980988    0.46067173    8.55040702
     The local contribution  to forces
     atom    1 type  1   force =    -0.70641544   -0.34947327   -5.31918579
     atom    2 type  2   force =     0.56841711   -0.36886181  -39.01004106
     atom    3 type  2   force =     0.14770947    0.00028251   35.85946924
     atom    4 type  1   force =    -0.12787106   -0.70467859   -0.64722027
     atom    5 type  2   force =     0.82709254   -1.62967801  -38.47197478
     atom    6 type  2   force =    -0.37221818    0.47044950   37.81409190
     atom    7 type  1   force =     2.59632068    2.82463214   -2.55164516
     atom    8 type  2   force =     0.96732358   -0.04194539  -37.14394708
     atom    9 type  2   force =    -0.34304600    0.04474239   37.75019633
     atom   10 type  1   force =     1.00319172    0.44897026   -5.63469747
     atom   11 type  2   force =     0.46922271    1.72467816  -38.88512617
     atom   12 type  2   force =    -0.45236016   -0.64514819   37.63297966
     atom   13 type  1   force =    -0.21229307   -1.18452986   -2.02806154
     atom   14 type  2   force =    -1.00280170    0.49663854  -37.20000031
     atom   15 type  2   force =    -0.18568529    0.08417723   36.66695382
     atom   16 type  1   force =    -0.03035587   -4.23587591   -0.32728483
     atom   17 type  2   force =    -0.69703247   -1.82148747  -37.57591618
     atom   18 type  2   force =     0.17475826    0.60097916   38.38314800
     atom   19 type  1   force =    -2.70438698    2.51297827   -0.61264899
     atom   20 type  2   force =    -0.23194545    0.20511834   38.23804063
     atom   21 type  1   force =    -0.17519144    0.26949903   -0.81215392
     atom   22 type  2   force =    -0.40362943    1.92322987  -38.13981355
     atom   23 type  2   force =     0.08687450   -0.60804966   38.08265550
     atom   24 type  1   force =     0.65657009   -1.19730568   -5.72831891
     atom   25 type  2   force =    -0.23542955   -0.19132988  -38.88081418
     atom   26 type  2   force =     0.32506017   -0.04412171   37.15089233
     atom   27 type  1   force =     0.06914991   -0.59143408    2.33017731
     atom   28 type  2   force =     0.00196064   -1.05491153  -37.94884052
     atom   29 type  2   force =     0.27431260    0.40235038   37.03013216
     atom   30 type  1   force =     0.36306028    0.92337577    0.00453554
     atom   31 type  2   force =    -1.18853672    0.03193291  -37.07951633
     atom   32 type  2   force =     0.48766861    0.01563977   38.38646631
     atom   33 type  1   force =    -0.58502967    1.05038182   -1.91198418
     atom   34 type  2   force =    -0.19727920    1.50200126  -39.11039782
     atom   35 type  2   force =     0.30527757   -0.43926363   37.58102433
     atom   36 type  3   force =     0.65148048   -0.43120357   -8.44585332
     The core correction contribution to forces
     atom    1 type  1   force =     0.00000000    0.00000000    0.00000000
     atom    2 type  2   force =     0.00025340   -0.00017439    0.02041861
     atom    3 type  2   force =     0.00073148   -0.00014498   -0.02097801
     atom    4 type  1   force =     0.00000000    0.00000000    0.00000000
     atom    5 type  2   force =    -0.00049173    0.00229589    0.02017931
     atom    6 type  2   force =     0.00002405   -0.00059904   -0.02097798
     atom    7 type  1   force =     0.00000000    0.00000000    0.00000000
     atom    8 type  2   force =    -0.00013623    0.00055941    0.02039304
     atom    9 type  2   force =    -0.00030462    0.00069793   -0.02083515
     atom   10 type  1   force =     0.00000000    0.00000000    0.00000000
     atom   11 type  2   force =    -0.00074979   -0.00066641    0.02035365
     atom   12 type  2   force =     0.00129617    0.00119371   -0.02080357
     atom   13 type  1   force =     0.00000000    0.00000000    0.00000000
     atom   14 type  2   force =     0.01046944   -0.00628294   -0.00075361
     atom   15 type  2   force =     0.00073683    0.00033748   -0.02099999
     atom   16 type  1   force =     0.00000000    0.00000000    0.00000000
     atom   17 type  2   force =     0.00000096    0.00192954    0.01938105
     atom   18 type  2   force =     0.00027101   -0.00017423   -0.02099462
     atom   19 type  1   force =     0.00000000    0.00000000    0.00000000
     atom   20 type  2   force =     0.00011964    0.00080825   -0.02109063
     atom   21 type  1   force =     0.00000000    0.00000000    0.00000000
     atom   22 type  2   force =     0.00006269   -0.00093918    0.02021232
     atom   23 type  2   force =    -0.00075437    0.00100670   -0.02090191
     atom   24 type  1   force =     0.00000000    0.00000000    0.00000000
     atom   25 type  2   force =    -0.00062168   -0.00069819    0.01943335
     atom   26 type  2   force =    -0.00015496    0.00065151   -0.02098337
     atom   27 type  1   force =     0.00000000    0.00000000    0.00000000
     atom   28 type  2   force =     0.00024078    0.00194797    0.02085219
     atom   29 type  2   force =    -0.00055292   -0.00051073   -0.02062731
     atom   30 type  1   force =     0.00000000    0.00000000    0.00000000
     atom   31 type  2   force =     0.00043532    0.00007436    0.02044297
     atom   32 type  2   force =     0.00007720    0.00077752   -0.02092754
     atom   33 type  1   force =     0.00000000    0.00000000    0.00000000
     atom   34 type  2   force =     0.00040306    0.00109820    0.02100785
     atom   35 type  2   force =    -0.00007526    0.00087212   -0.02113741
     atom   36 type  3   force =     0.00000000    0.00000000    0.00000000
     The Hubbard contrib.    to forces
     atom    1 type  1   force =     0.00000000    0.00000000    0.00000000
     atom    2 type  2   force =     0.00000000    0.00000000    0.00000000
     atom    3 type  2   force =     0.00000000    0.00000000    0.00000000
     atom    4 type  1   force =     0.00000000    0.00000000    0.00000000
     atom    5 type  2   force =     0.00000000    0.00000000    0.00000000
     atom    6 type  2   force =     0.00000000    0.00000000    0.00000000
     atom    7 type  1   force =     0.00000000    0.00000000    0.00000000
     atom    8 type  2   force =     0.00000000    0.00000000    0.00000000
     atom    9 type  2   force =     0.00000000    0.00000000    0.00000000
     atom   10 type  1   force =     0.00000000    0.00000000    0.00000000
     atom   11 type  2   force =     0.00000000    0.00000000    0.00000000
     atom   12 type  2   force =     0.00000000    0.00000000    0.00000000
     atom   13 type  1   force =     0.00000000    0.00000000    0.00000000
     atom   14 type  2   force =     0.00000000    0.00000000    0.00000000
     atom   15 type  2   force =     0.00000000    0.00000000    0.00000000
     atom   16 type  1   force =     0.00000000    0.00000000    0.00000000
     atom   17 type  2   force =     0.00000000    0.00000000    0.00000000
     atom   18 type  2   force =     0.00000000    0.00000000    0.00000000
     atom   19 type  1   force =     0.00000000    0.00000000    0.00000000
     atom   20 type  2   force =     0.00000000    0.00000000    0.00000000
     atom   21 type  1   force =     0.00000000    0.00000000    0.00000000
     atom   22 type  2   force =     0.00000000    0.00000000    0.00000000
     atom   23 type  2   force =     0.00000000    0.00000000    0.00000000
     atom   24 type  1   force =     0.00000000    0.00000000    0.00000000
     atom   25 type  2   force =     0.00000000    0.00000000    0.00000000
     atom   26 type  2   force =     0.00000000    0.00000000    0.00000000
     atom   27 type  1   force =     0.00000000    0.00000000    0.00000000
     atom   28 type  2   force =     0.00000000    0.00000000    0.00000000
     atom   29 type  2   force =     0.00000000    0.00000000    0.00000000
     atom   30 type  1   force =     0.00000000    0.00000000    0.00000000
     atom   31 type  2   force =     0.00000000    0.00000000    0.00000000
     atom   32 type  2   force =     0.00000000    0.00000000    0.00000000
     atom   33 type  1   force =     0.00000000    0.00000000    0.00000000
     atom   34 type  2   force =     0.00000000    0.00000000    0.00000000
     atom   35 type  2   force =     0.00000000    0.00000000    0.00000000
     atom   36 type  3   force =     0.00000000    0.00000000    0.00000000
     The SCF correction term to forces
     atom    1 type  1   force =    -0.00003964    0.00009930   -0.00083649
     atom    2 type  2   force =     0.00000787   -0.00000605   -0.00023429
     atom    3 type  2   force =    -0.00000976    0.00001054   -0.00036396
     atom    4 type  1   force =    -0.00011358    0.00004327   -0.00081151
     atom    5 type  2   force =    -0.00003213    0.00007097   -0.00030734
     atom    6 type  2   force =    -0.00005781    0.00006600   -0.00031529
     atom    7 type  1   force =     0.00004925   -0.00010635   -0.00079000
     atom    8 type  2   force =    -0.00005207    0.00000313   -0.00030977
     atom    9 type  2   force =    -0.00005682    0.00000427   -0.00029843
     atom   10 type  1   force =    -0.00005542   -0.00011450   -0.00078033
     atom   11 type  2   force =     0.00002468   -0.00006527   -0.00026693
     atom   12 type  2   force =     0.00002440   -0.00006603   -0.00033578
     atom   13 type  1   force =     0.00005338    0.00014918   -0.00085539
     atom   14 type  2   force =     0.00002841    0.00000244   -0.00028744
     atom   15 type  2   force =     0.00002331    0.00003612   -0.00037332
     atom   16 type  1   force =     0.00005842   -0.00000755   -0.00086382
     atom   17 type  2   force =     0.00003824    0.00008443   -0.00031100
     atom   18 type  2   force =     0.00006103    0.00006721   -0.00030685
     atom   19 type  1   force =     0.00003297   -0.00011343   -0.00083854
     atom   20 type  2   force =     0.00004893   -0.00006648   -0.00028617
     atom   21 type  1   force =     0.00010139   -0.00001756   -0.00078621
     atom   22 type  2   force =    -0.00000601   -0.00003538   -0.00023021
     atom   23 type  2   force =    -0.00001265   -0.00002664   -0.00037470
     atom   24 type  1   force =    -0.00003824    0.00007200   -0.00080837
     atom   25 type  2   force =    -0.00004100    0.00000139   -0.00023611
     atom   26 type  2   force =    -0.00001411    0.00001473   -0.00038463
     atom   27 type  1   force =     0.00006151    0.00001557   -0.00081011
     atom   28 type  2   force =    -0.00000645    0.00003176   -0.00026703
     atom   29 type  2   force =    -0.00000689    0.00001999   -0.00034415
     atom   30 type  1   force =    -0.00006379   -0.00003454   -0.00080104
     atom   31 type  2   force =    -0.00000119   -0.00003006   -0.00026720
     atom   32 type  2   force =     0.00000999   -0.00003027   -0.00033741
     atom   33 type  1   force =    -0.00005097   -0.00009446   -0.00081356
     atom   34 type  2   force =    -0.00001715   -0.00001954   -0.00025164
     atom   35 type  2   force =    -0.00001942   -0.00001670   -0.00035052
     atom   36 type  3   force =    -0.00000327    0.00000519   -0.00002493

     Total force =     0.127915     Total SCF correction =     0.003226

     BFGS Geometry Optimization
     Energy error            =      0.0E+00 Ry
     Gradient error          =      5.3E-02 Ry/Bohr

     number of scf cycles    =   1
     number of bfgs steps    =   0

     energy             new  =   -2205.5403663155 Ry

     new trust radius        =       0.0558629589 bohr
     new conv_thr            =       0.0000010000 Ry


ATOMIC_POSITIONS (angstrom)
Mo            6.5864408137        1.7880176757        2.8281057535
S             8.1721116857        0.8181752292        4.4340433589
S             8.1867520760        0.8159696040        1.2759104335
Mo            8.1009339976        4.4928345763        2.7194793148
S             6.5005248740        3.7216788725        4.3438413758
S             6.5545029577        3.5159015120        1.1215595419
Mo            6.4910977462        7.2165837255        2.6682664282
S             8.0823366884        6.3414792365        4.2513493686
S             8.0884023356        6.3068843899        1.0896141723
Mo            8.1528353263        9.9086756980        2.8305416167
S             6.4992524696        8.9393553854        4.3807655723
S             6.6163429512        9.0494909964        1.1426805018
Mo            3.4161038466        1.7566810861        2.7574204248
S             4.9950108577        0.8100309610        4.3379701549
S             5.0509307045        0.8470389467        1.2227430323
Mo            4.9808355352        4.5120106332        2.6315223296
S             3.4307482297        3.6736733426        4.2812504173
S             3.4346728370        3.5447132550        1.0665120842
Mo            3.4587574727        7.2161211929        2.6291193265
S             4.9846938943        6.3244954389        1.0377844457
Mo            5.0039742073        9.8941593391        2.7434357939
S             3.4691050083        8.9392910177        4.3252889991
S             3.4081871500        9.0672447023        1.1001724569
Mo            0.2902722421        1.7473310535        2.8398389116
S             1.8572844319        0.8023159135        4.4017128481
S             1.8555119531        0.8541766142        1.2073076375
Mo            1.8572277697        4.4910596013        2.6649103936
S             0.2723996265        3.6545770942        4.3342104199
S             0.2326077651        3.5278476140        1.1701240283
Mo            0.2689306661        7.2232032277        2.6985217223
S             1.9025424848        6.3121127253        4.2309461849
S             1.8567819055        6.3129319462        1.0483231231
Mo            1.8526347746        9.9369702211        2.7667731317
S             0.2973486105        9.0669245667        4.4083037917
S             0.2727862324        9.0469192287        1.1585207070
H             4.1944693288        1.2183920092        5.3714700685



     Writing config-only to output data dir ./MoS2-V-O.save/
     NEW-OLD atomic charge density approx. for the potential

     negative rho (up, down):  1.419E-04 0.000E+00

     total cpu time spent up to now is       96.2 secs

     Self-consistent Calculation

     iteration #  1     ecut=    80.00 Ry     beta= 0.70
     Davidson diagonalization with overlap
     ethr =  1.00E-06,  avg # of iterations =  8.0

     negative rho (up, down):  1.735E-04 0.000E+00

     total cpu time spent up to now is      109.7 secs

     total energy              =   -2205.55197789 Ry
     estimated scf accuracy    <       0.00137674 Ry

     iteration #  2     ecut=    80.00 Ry     beta= 0.70
     Davidson diagonalization with overlap
     ethr =  4.48E-07,  avg # of iterations =  3.0

     negative rho (up, down):  2.207E-04 0.000E+00

     total cpu time spent up to now is      127.6 secs

     total energy              =   -2205.55198446 Ry
     estimated scf accuracy    <       0.00028952 Ry

     iteration #  3     ecut=    80.00 Ry     beta= 0.70
     Davidson diagonalization with overlap
     ethr =  9.43E-08,  avg # of iterations =  6.0

     negative rho (up, down):  2.400E-04 0.000E+00

     total cpu time spent up to now is      141.3 secs

     total energy              =   -2205.55203719 Ry
     estimated scf accuracy    <       0.00003380 Ry

     iteration #  4     ecut=    80.00 Ry     beta= 0.70
     Davidson diagonalization with overlap
     ethr =  1.10E-08,  avg # of iterations =  6.0

     negative rho (up, down):  2.402E-04 0.000E+00

     total cpu time spent up to now is      160.9 secs

     total energy              =   -2205.55204663 Ry
     estimated scf accuracy    <       0.00000674 Ry

     iteration #  5     ecut=    80.00 Ry     beta= 0.70
     Davidson diagonalization with overlap
     ethr =  2.20E-09,  avg # of iterations =  4.0

     negative rho (up, down):  2.350E-04 0.000E+00

     total cpu time spent up to now is      174.9 secs

     total energy              =   -2205.55204723 Ry
     estimated scf accuracy    <       0.00000174 Ry

     iteration #  6     ecut=    80.00 Ry     beta= 0.70
     Davidson diagonalization with overlap
     ethr =  5.66E-10,  avg # of iterations =  5.0

     negative rho (up, down):  1.370E-04 0.000E+00

     total cpu time spent up to now is      177.1 secs

     End of self-consistent calculation

          k = 0.0000 0.0000 0.0000 (105382 PWs)   bands (ev):

   -62.9018 -62.8649 -62.8248 -62.7899 -62.7783 -62.7752 -62.7642 -62.7591
   -62.6926 -62.5974 -62.5813 -62.5104 -37.2082 -37.1425 -37.1197 -37.1088
   -37.0918 -37.0810 -37.0713 -37.0560 -37.0187 -37.0152 -37.0007 -36.9752
   -36.9652 -36.9614 -36.9579 -36.9507 -36.9483 -36.9432 -36.9400 -36.9259
   -36.8926 -36.8625 -36.8553 -36.8361 -36.8182 -36.8079 -36.7988 -36.7881
   -36.7630 -36.7570 -36.7461 -36.7319 -36.6872 -36.6612 -36.5446 -36.5386
   -16.4692 -15.7016 -15.1196 -14.9766 -14.8972 -14.8067 -14.5818 -14.4314
   -14.3987 -14.3704 -14.3410 -14.3083 -14.2688 -14.2309 -14.0860 -14.0694
   -14.0526 -14.0463 -13.9962 -13.8296 -13.7613 -13.7381 -13.7187  -9.2311
    -7.6455  -7.4144  -7.2984  -7.2289  -7.2058  -7.1762  -7.0945  -6.9910
    -6.8183  -6.7192  -6.6866  -6.6322  -6.5785  -6.4565  -6.4223  -6.3891
    -6.3372  -6.2302  -6.1750  -5.9386  -5.8593  -5.8453  -5.7585  -5.7441
    -5.7077  -5.6848  -5.6145  -5.5916  -5.5601  -5.5206  -5.4576  -5.3843
    -5.3604  -5.2963  -5.1558  -5.1000  -5.0079  -4.9559  -4.9366  -4.8939
    -4.8650  -4.7639  -4.6837  -4.4788  -4.3962  -4.2962  -4.2498  -4.1726
    -4.1398  -4.0315  -3.9792  -3.9326  -3.8427  -3.7354  -3.6465  -3.6162
    -3.5672  -3.4930  -3.4615  -3.4358  -3.4277  -3.4120  -3.3897  -3.3591
    -3.3203  -3.1855  -3.0987  -2.8724  -2.8127  -2.7417  -2.7211  -2.7008
    -2.6527  -2.6290  -2.5970  -2.5277  -2.4675  -2.1920  -1.9410  -1.9278
    -1.8229  -0.6593  -0.6230  -0.5691  -0.1627  -0.0661  -0.0523   0.1037
     0.1407   0.1844   0.2160   0.2428   0.2794   0.3141   0.4538   0.5130
     0.5492   0.6257   0.6317   0.6410   0.6880   0.7299   0.7650   0.7987
     0.8055   0.8647   0.9472   0.9542   1.0140   1.0461   1.1172   1.3332
     1.4641

     the Fermi energy is    -0.7171 ev

!    total energy              =   -2205.55204776 Ry
     estimated scf accuracy    <       0.00000054 Ry
     smearing contrib. (-TS)   =      -0.00993637 Ry
     internal energy E=F+TS    =   -2205.54211140 Ry

     The total energy is F=E-TS. E is the sum of the following terms:
     one-electron contribution =  -18053.40030300 Ry
     hartree contribution      =    9014.04079272 Ry
     xc contribution           =    -385.38383050 Ry
     ewald contribution        =    7219.20122938 Ry

     convergence has been achieved in   6 iterations

     negative rho (up, down):  1.370E-04 0.000E+00

     Forces acting on atoms (cartesian axes, Ry/au):

     atom    1 type  1   force =     0.01289627    0.00201450   -0.00119620
     atom    2 type  2   force =    -0.00441590    0.01107279   -0.00161530
     atom    3 type  2   force =    -0.01116034    0.00841142   -0.00882122
     atom    4 type  1   force =     0.00722595    0.00050611    0.00242315
     atom    5 type  2   force =     0.00224583   -0.00128466   -0.00347379
     atom    6 type  2   force =     0.00334508    0.00624508    0.00047945
     atom    7 type  1   force =     0.00380679   -0.00524728   -0.00116561
     atom    8 type  2   force =     0.00121132   -0.00350805    0.01143683
     atom    9 type  2   force =     0.01223438    0.00310298    0.00771384
     atom   10 type  1   force =    -0.00694137    0.00961571   -0.00834513
     atom   11 type  2   force =     0.00602585   -0.00535181   -0.00588706
     atom   12 type  2   force =    -0.00495260    0.00065892    0.00048836
     atom   13 type  1   force =    -0.00183650    0.01045729   -0.01496893
     atom   14 type  2   force =     0.00071370    0.00334949    0.00912275
     atom   15 type  2   force =    -0.00779995    0.00122486   -0.00531934
     atom   16 type  1   force =     0.00191016   -0.00128100   -0.00116449
     atom   17 type  2   force =     0.00488714    0.00139567    0.00160193
     atom   18 type  2   force =    -0.00601933   -0.00274525    0.00840102
     atom   19 type  1   force =     0.00504054   -0.00108512    0.00023540
     atom   20 type  2   force =     0.00270936   -0.00443011   -0.00164974
     atom   21 type  1   force =    -0.00971186   -0.01059439    0.00012592
     atom   22 type  2   force =    -0.00276318   -0.00762952    0.00038575
     atom   23 type  2   force =    -0.00054822    0.00119262    0.00216935
     atom   24 type  1   force =    -0.00684469   -0.00136628   -0.00870240
     atom   25 type  2   force =     0.01047701    0.01495306   -0.00119487
     atom   26 type  2   force =    -0.00987770   -0.00137228   -0.00789110
     atom   27 type  1   force =    -0.00368573   -0.00282264    0.00810629
     atom   28 type  2   force =     0.00016184   -0.00204859   -0.00445063
     atom   29 type  2   force =     0.00201940    0.00127071   -0.00520085
     atom   30 type  1   force =    -0.00230764    0.00290489    0.00244019
     atom   31 type  2   force =     0.00000528   -0.00048863    0.00933981
     atom   32 type  2   force =    -0.00821236    0.00339631    0.00695687
     atom   33 type  1   force =     0.00751470   -0.00128365   -0.00075290
     atom   34 type  2   force =     0.00000728   -0.03139112   -0.01510999
     atom   35 type  2   force =    -0.00607615    0.00759557    0.00822148
     atom   36 type  3   force =     0.00871565   -0.00543758    0.01726116
     The non-local contrib.  to forces
     atom    1 type  1   force =     0.00518845    0.02841344   -0.02504632
     atom    2 type  2   force =    -0.00444341   -0.00076728   -0.26386071
     atom    3 type  2   force =    -0.01299122   -0.00120215    0.26711222
     atom    4 type  1   force =     0.00103090    0.01627108    0.00318067
     atom    5 type  2   force =     0.00582254   -0.03752567   -0.25145397
     atom    6 type  2   force =     0.00205283    0.00208705    0.26564387
     atom    7 type  1   force =    -0.02813217   -0.01123735   -0.01569240
     atom    8 type  2   force =     0.00410081   -0.00432139   -0.25869997
     atom    9 type  2   force =     0.00800478   -0.01211713    0.27251864
     atom   10 type  1   force =     0.00725517   -0.00617015    0.00059597
     atom   11 type  2   force =     0.01535127    0.00370603   -0.25775292
     atom   12 type  2   force =    -0.01537963   -0.01540228    0.26072623
     atom   13 type  1   force =    -0.00898024    0.02959535   -0.00521646
     atom   14 type  2   force =    -0.17922089    0.09823045    0.10761127
     atom   15 type  2   force =    -0.01065332   -0.00542551    0.26996436
     atom   16 type  1   force =    -0.00147111    0.04965683   -0.01544355
     atom   17 type  2   force =    -0.00147663   -0.02808484   -0.23768073
     atom   18 type  2   force =    -0.00629013   -0.00606440    0.26960496
     atom   19 type  1   force =     0.01940593   -0.01637318   -0.01316650
     atom   20 type  2   force =     0.00011711   -0.02148616    0.26274482
     atom   21 type  1   force =    -0.00217382    0.01230337   -0.01509276
     atom   22 type  2   force =    -0.00556097    0.00776215   -0.25453207
     atom   23 type  2   force =     0.01018155   -0.01443027    0.26486134
     atom   24 type  1   force =     0.00558851    0.01962371   -0.01245617
     atom   25 type  2   force =     0.00731582    0.00677272   -0.24439006
     atom   26 type  2   force =    -0.00185778   -0.01221624    0.26351083
     atom   27 type  1   force =    -0.00120251    0.01465458    0.00740912
     atom   28 type  2   force =    -0.00361807   -0.02738079   -0.27231874
     atom   29 type  2   force =     0.00606128    0.00050375    0.26344208
     atom   30 type  1   force =    -0.00124314    0.01634025    0.00895840
     atom   31 type  2   force =    -0.00684203    0.00058388   -0.25765675
     atom   32 type  2   force =    -0.00393763   -0.01362892    0.27269619
     atom   33 type  1   force =    -0.00487411    0.00245854    0.00379021
     atom   34 type  2   force =    -0.00355043   -0.02735708   -0.27584099
     atom   35 type  2   force =    -0.00167291   -0.00813970    0.26840769
     atom   36 type  3   force =     0.03689659   -0.01892208   -0.04538726
     The ionic contribution  to forces
     atom    1 type  1   force =     0.29453495    0.33255431    5.55066514
     atom    2 type  2   force =    -0.41622122    0.21663792   39.35032506
     atom    3 type  2   force =    -0.16039528   -0.01062178  -36.22570242
     atom    4 type  1   force =     0.02198888    0.86158063    0.76950145
     atom    5 type  2   force =    -0.89433912    1.68677690   38.70174492
     atom    6 type  2   force =     0.34027629   -0.46949738  -38.03699257
     atom    7 type  1   force =    -2.49566529   -2.85497999    2.48550122
     atom    8 type  2   force =    -0.98582424    0.06850399   37.47853380
     atom    9 type  2   force =     0.31717095   -0.06590156  -37.93669846
     atom   10 type  1   force =    -0.81434616   -0.44264361    5.33578218
     atom   11 type  2   force =    -0.44007889   -1.69489059   39.10947645
     atom   12 type  2   force =     0.41265046    0.64331281  -37.86386092
     atom   13 type  1   force =     0.41569006    0.87679411    1.49949970
     atom   14 type  2   force =     0.87787534   -0.48075381   36.98977757
     atom   15 type  2   force =     0.28709540   -0.08826617  -36.84109168
     atom   16 type  1   force =     0.03586299    4.17159212    0.34762300
     atom   17 type  2   force =     0.74708146    1.76514144   37.85484332
     atom   18 type  2   force =    -0.14744749   -0.44876066  -38.60245243
     atom   19 type  1   force =     2.54259936   -2.69950307    0.60899318
     atom   20 type  2   force =     0.21470106   -0.21246759  -38.50056290
     atom   21 type  1   force =     0.24688247   -0.06829778    1.01104224
     atom   22 type  2   force =     0.36992014   -1.88200332   38.47959608
     atom   23 type  2   force =    -0.10054612    0.57316685  -38.36732797
     atom   24 type  1   force =    -0.43608812    0.90344446    5.53039197
     atom   25 type  2   force =     0.23632706    0.13596761   39.07496795
     atom   26 type  2   force =    -0.36151849   -0.01965671  -37.39667862
     atom   27 type  1   force =     0.02427534    0.82842005   -2.00786524
     atom   28 type  2   force =     0.03318535    1.00990341   38.25239940
     atom   29 type  2   force =    -0.26599680   -0.33596647  -37.35805982
     atom   30 type  1   force =    -0.28521913   -1.04765446   -0.05403671
     atom   31 type  2   force =     1.20254943   -0.01331367   37.35463438
     atom   32 type  2   force =    -0.44416734   -0.03572003  -38.53597700
     atom   33 type  1   force =     0.37903702   -0.80404345    1.99045026
     atom   34 type  2   force =     0.15919556   -1.28305431   39.25126165
     atom   35 type  2   force =    -0.27837980    0.47021939  -37.73544189
     atom   36 type  3   force =    -0.63266606    0.41398042    8.43573771
     The local contribution  to forces
     atom    1 type  1   force =    -0.28652866   -0.35886221   -5.52722074
     atom    2 type  2   force =     0.41593364   -0.20443165  -39.10863849
     atom    3 type  2   force =     0.16161462    0.02041840   35.97038134
     atom    4 type  1   force =    -0.01587490   -0.87778073   -0.77086177
     atom    5 type  2   force =     0.89127830   -1.65294943  -38.47407112
     atom    6 type  2   force =    -0.33905156    0.47421183   37.79255415
     atom    7 type  1   force =     2.52756552    2.86074827   -2.47173245
     atom    8 type  2   force =     0.98309570   -0.06835830  -37.22892298
     atom    9 type  2   force =    -0.31270163    0.08037369   37.69235264
     atom   10 type  1   force =     0.80007811    0.45874065   -5.34570509
     atom   11 type  2   force =     0.43133805    1.68659659  -38.87800857
     atom   12 type  2   force =    -0.40346016   -0.62833022   37.62396906
     atom   13 type  1   force =    -0.40874113   -0.89546684   -1.51020684
     atom   14 type  2   force =    -0.70948634    0.39277175  -37.08640853
     atom   15 type  2   force =    -0.28495293    0.09464474   36.58636129
     atom   16 type  1   force =    -0.03243295   -4.22286475   -0.33398569
     atom   17 type  2   force =    -0.74075525   -1.73747152  -37.63504964
     atom   18 type  2   force =     0.14750684    0.45212338   38.36199456
     atom   19 type  1   force =    -2.55678310    2.71483352   -0.59633202
     atom   20 type  2   force =    -0.21213089    0.22851757   38.25686630
     atom   21 type  1   force =    -0.25443880    0.04569903   -0.99647879
     atom   22 type  2   force =    -0.36709006    1.86774859  -38.24494300
     atom   23 type  2   force =     0.09054110   -0.55845935   38.12511333
     atom   24 type  1   force =     0.42344915   -0.92418872   -5.52737666
     atom   25 type  2   force =    -0.23271128   -0.12708558  -38.85118889
     atom   26 type  2   force =     0.35367043    0.02999652   37.14581529
     atom   27 type  1   force =    -0.02673270   -0.84650968    2.00791125
     atom   28 type  2   force =    -0.02964692   -0.98654442  -38.00554572
     atom   29 type  2   force =     0.26246477    0.33701706   37.10980789
     atom   30 type  1   force =     0.28400432    1.03418021    0.04678486
     atom   31 type  2   force =    -1.19619759    0.01195087  -37.10816496
     atom   32 type  2   force =     0.43981428    0.05186691   38.29072613
     atom   33 type  1   force =    -0.36656810    0.80048394   -1.99585545
     atom   34 type  2   force =    -0.15603395    1.27817956  -39.01167278
     atom   35 type  2   force =     0.27403257   -0.45522991   37.49591014
     atom   36 type  3   force =     0.60446075   -0.40047721   -8.37302421
     The core correction contribution to forces
     atom    1 type  1   force =     0.00000000    0.00000000    0.00000000
     atom    2 type  2   force =     0.00023296   -0.00013304    0.02043365
     atom    3 type  2   force =     0.00060205   -0.00006246   -0.02089452
     atom    4 type  1   force =     0.00000000    0.00000000    0.00000000
     atom    5 type  2   force =    -0.00057562    0.00232700    0.02014163
     atom    6 type  2   force =     0.00002025   -0.00056737   -0.02095615
     atom    7 type  1   force =     0.00000000    0.00000000    0.00000000
     atom    8 type  2   force =    -0.00014040    0.00053465    0.02049583
     atom    9 type  2   force =    -0.00021101    0.00067129   -0.02081479
     atom   10 type  1   force =     0.00000000    0.00000000    0.00000000
     atom   11 type  2   force =    -0.00060770   -0.00068091    0.02039965
     atom   12 type  2   force =     0.00125377    0.00120718   -0.02075486
     atom   13 type  1   force =     0.00000000    0.00000000    0.00000000
     atom   14 type  2   force =     0.01183432   -0.00692060   -0.00197510
     atom   15 type  2   force =     0.00071415    0.00033269   -0.02099264
     atom   16 type  1   force =     0.00000000    0.00000000    0.00000000
     atom   17 type  2   force =     0.00008804    0.00181389    0.01938422
     atom   18 type  2   force =     0.00025409   -0.00012532   -0.02093154
     atom   19 type  1   force =     0.00000000    0.00000000    0.00000000
     atom   20 type  2   force =     0.00010293    0.00077908   -0.02107153
     atom   21 type  1   force =     0.00000000    0.00000000    0.00000000
     atom   22 type  2   force =    -0.00001740   -0.00096314    0.02024456
     atom   23 type  2   force =    -0.00071643    0.00109100   -0.02084379
     atom   24 type  1   force =     0.00000000    0.00000000    0.00000000
     atom   25 type  2   force =    -0.00047470   -0.00057186    0.01950342
     atom   26 type  2   force =    -0.00023037    0.00060739   -0.02091071
     atom   27 type  1   force =     0.00000000    0.00000000    0.00000000
     atom   28 type  2   force =     0.00025400    0.00189541    0.02086587
     atom   29 type  2   force =    -0.00051028   -0.00039960   -0.02063918
     atom   30 type  1   force =     0.00000000    0.00000000    0.00000000
     atom   31 type  2   force =     0.00041327    0.00011009    0.02056160
     atom   32 type  2   force =    -0.00002472    0.00075457   -0.02092994
     atom   33 type  1   force =     0.00000000    0.00000000    0.00000000
     atom   34 type  2   force =     0.00044667    0.00076209    0.02113782
     atom   35 type  2   force =    -0.00008614    0.00082967   -0.02102583
     atom   36 type  3   force =     0.00000000    0.00000000    0.00000000
     The Hubbard contrib.    to forces
     atom    1 type  1   force =     0.00000000    0.00000000    0.00000000
     atom    2 type  2   force =     0.00000000    0.00000000    0.00000000
     atom    3 type  2   force =     0.00000000    0.00000000    0.00000000
     atom    4 type  1   force =     0.00000000    0.00000000    0.00000000
     atom    5 type  2   force =     0.00000000    0.00000000    0.00000000
     atom    6 type  2   force =     0.00000000    0.00000000    0.00000000
     atom    7 type  1   force =     0.00000000    0.00000000    0.00000000
     atom    8 type  2   force =     0.00000000    0.00000000    0.00000000
     atom    9 type  2   force =     0.00000000    0.00000000    0.00000000
     atom   10 type  1   force =     0.00000000    0.00000000    0.00000000
     atom   11 type  2   force =     0.00000000    0.00000000    0.00000000
     atom   12 type  2   force =     0.00000000    0.00000000    0.00000000
     atom   13 type  1   force =     0.00000000    0.00000000    0.00000000
     atom   14 type  2   force =     0.00000000    0.00000000    0.00000000
     atom   15 type  2   force =     0.00000000    0.00000000    0.00000000
     atom   16 type  1   force =     0.00000000    0.00000000    0.00000000
     atom   17 type  2   force =     0.00000000    0.00000000    0.00000000
     atom   18 type  2   force =     0.00000000    0.00000000    0.00000000
     atom   19 type  1   force =     0.00000000    0.00000000    0.00000000
     atom   20 type  2   force =     0.00000000    0.00000000    0.00000000
     atom   21 type  1   force =     0.00000000    0.00000000    0.00000000
     atom   22 type  2   force =     0.00000000    0.00000000    0.00000000
     atom   23 type  2   force =     0.00000000    0.00000000    0.00000000
     atom   24 type  1   force =     0.00000000    0.00000000    0.00000000
     atom   25 type  2   force =     0.00000000    0.00000000    0.00000000
     atom   26 type  2   force =     0.00000000    0.00000000    0.00000000
     atom   27 type  1   force =     0.00000000    0.00000000    0.00000000
     atom   28 type  2   force =     0.00000000    0.00000000    0.00000000
     atom   29 type  2   force =     0.00000000    0.00000000    0.00000000
     atom   30 type  1   force =     0.00000000    0.00000000    0.00000000
     atom   31 type  2   force =     0.00000000    0.00000000    0.00000000
     atom   32 type  2   force =     0.00000000    0.00000000    0.00000000
     atom   33 type  1   force =     0.00000000    0.00000000    0.00000000
     atom   34 type  2   force =     0.00000000    0.00000000    0.00000000
     atom   35 type  2   force =     0.00000000    0.00000000    0.00000000
     atom   36 type  3   force =     0.00000000    0.00000000    0.00000000
     The SCF correction term to forces
     atom    1 type  1   force =    -0.00029792   -0.00009560    0.00039161
     atom    2 type  2   force =     0.00008267   -0.00023773    0.00011108
     atom    3 type  2   force =     0.00001002   -0.00012515    0.00026805
     atom    4 type  1   force =     0.00008161    0.00043056    0.00058868
     atom    5 type  2   force =     0.00006026    0.00008197    0.00015065
     atom    6 type  2   force =     0.00004782    0.00000638    0.00021603
     atom    7 type  1   force =     0.00003927    0.00021721    0.00074391
     atom    8 type  2   force =    -0.00002001    0.00012843    0.00001604
     atom    9 type  2   force =    -0.00002816    0.00007212    0.00034170
     atom   10 type  1   force =     0.00007206   -0.00031574    0.00096770
     atom   11 type  2   force =     0.00002366   -0.00008749   -0.00001578
     atom   12 type  2   force =    -0.00001650   -0.00013313    0.00039474
     atom   13 type  1   force =     0.00019534   -0.00046990    0.00094057
     atom   14 type  2   force =    -0.00028819    0.00001713    0.00010344
     atom   15 type  2   force =    -0.00000271   -0.00006545    0.00042522
     atom   16 type  1   force =    -0.00004823    0.00033023    0.00062764
     atom   17 type  2   force =    -0.00004994   -0.00000788    0.00009065
     atom   18 type  2   force =    -0.00004210    0.00007718    0.00017136
     atom   19 type  1   force =    -0.00018110   -0.00004697    0.00072663
     atom   20 type  2   force =    -0.00008031    0.00022243    0.00035946
     atom   21 type  1   force =     0.00001884   -0.00030358    0.00064112
     atom   22 type  2   force =    -0.00001434   -0.00017838    0.00000607
     atom   23 type  2   force =    -0.00000778   -0.00018017    0.00035233
     atom   24 type  1   force =     0.00020632   -0.00025029    0.00072435
     atom   25 type  2   force =     0.00002063   -0.00013440   -0.00010140
     atom   26 type  2   force =     0.00005905   -0.00010782    0.00035800
     atom   27 type  1   force =    -0.00002533    0.00060784    0.00063705
     atom   28 type  2   force =    -0.00001198    0.00007324    0.00013445
     atom   29 type  2   force =     0.00000097    0.00011140    0.00023407
     atom   30 type  1   force =     0.00015085    0.00003433    0.00071953
     atom   31 type  2   force =     0.00008275    0.00017562   -0.00004856
     atom   32 type  2   force =     0.00010360    0.00011921    0.00042738
     atom   33 type  1   force =    -0.00007957   -0.00018725    0.00084797
     atom   34 type  2   force =    -0.00005003    0.00007405   -0.00000981
     atom   35 type  2   force =     0.00003066   -0.00008844    0.00035727
     atom   36 type  3   force =     0.00002491   -0.00002328   -0.00007918

     Total force =     0.072827     Total SCF correction =     0.003128
     Energy error            =      1.2E-02 Ry
     Gradient error          =      3.1E-02 Ry/Bohr

     number of scf cycles    =   2
     number of bfgs steps    =   1

     energy             old  =   -2205.5403663155 Ry
     energy             new  =   -2205.5520477638 Ry

     CASE: energy            _new < energy            _old

     new trust radius        =       0.0806185326 bohr
     new conv_thr            =       0.0000000314 Ry


ATOMIC_POSITIONS (angstrom)
Mo            6.6035835434        1.7900122764        2.8288256155
S             8.1660236358        0.8321720418        4.4323089466
S             8.1734983672        0.8258936881        1.2667417847
Mo            8.1101690789        4.4923913006        2.7224622940
S             6.5029061820        3.7201588155        4.3393831611
S             6.5581478676        3.5235410003        1.1221292897
Mo            6.4951642858        7.2108475882        2.6656615288
S             8.0837360111        6.3371660229        4.2658636639
S             8.1030892360        6.3107271548        1.0993026630
Mo            8.1430344689        9.9204732449        2.8172802779
S             6.5066516208        8.9328073432        4.3742219767
S             6.6109892186        9.0504383355        1.1442937080
Mo            3.4120596855        1.7706157469        2.7353449122
S             5.0039227432        0.8103335253        4.3413914485
S             5.0406826482        0.8485207605        1.2160829654
Mo            4.9830913677        4.5103136042        2.6298547147
S             3.4365804909        3.6758550440        4.2834062275
S             3.4276272900        3.5406557181        1.0778509200
Mo            3.4655604963        7.2150096649        2.6286957313
S             4.9878642782        6.3192907244        1.0364431298
Mo            4.9913409185        9.8810430391        2.7435694410
S             3.4657204097        8.9302181045        4.3255286633
S             3.4075677818        9.0693093565        1.1039291995
Mo            0.2813786239        1.7459637161        2.8276149299
S             1.8700329299        0.8204631987        4.4020358347
S             1.8439674355        0.8527741995        1.1989695039
Mo            1.8523015479        4.4864757147        2.6745394943
S             0.2726299192        3.6527119652        4.3285974760
S             0.2350905500        3.5292987641        1.1644151189
Mo            0.2658243776        7.2286742504        2.6995139242
S             1.9026737492        6.3113654599        4.2433154378
S             1.8467439168        6.3172208958        1.0564703002
Mo            1.8631876528        9.9344399856        2.7634984680
S             0.2979513550        9.0276350295        4.3916913954
S             0.2653808519        9.0555172764        1.1696727981
H             4.1991769209        1.2149340763        5.3994329271



     Writing config-only to output data dir ./MoS2-V-O.save/
     NEW-OLD atomic charge density approx. for the potential

     negative rho (up, down):  1.490E-04 0.000E+00

     total cpu time spent up to now is      180.4 secs

     Self-consistent Calculation

     iteration #  1     ecut=    80.00 Ry     beta= 0.70
     Davidson diagonalization with overlap
     c_bands:  1 eigenvalues not converged
     ethr =  1.00E-06,  avg # of iterations = 20.0

     negative rho (up, down):  1.343E-04 0.000E+00

     total cpu time spent up to now is      193.1 secs

     total energy              =   -2205.56028948 Ry
     estimated scf accuracy    <       0.00131978 Ry

     iteration #  2     ecut=    80.00 Ry     beta= 0.70
     Davidson diagonalization with overlap
     ethr =  4.30E-07,  avg # of iterations =  2.0

     negative rho (up, down):  1.313E-04 0.000E+00

     total cpu time spent up to now is      212.5 secs

     total energy              =   -2205.56030464 Ry
     estimated scf accuracy    <       0.00029375 Ry

     iteration #  3     ecut=    80.00 Ry     beta= 0.70
     Davidson diagonalization with overlap
     ethr =  9.57E-08,  avg # of iterations =  5.0

     negative rho (up, down):  1.331E-04 0.000E+00

     total cpu time spent up to now is      224.6 secs

     total energy              =   -2205.56034619 Ry
     estimated scf accuracy    <       0.00006636 Ry

     iteration #  4     ecut=    80.00 Ry     beta= 0.70
     Davidson diagonalization with overlap
     ethr =  2.16E-08,  avg # of iterations =  6.0

     negative rho (up, down):  1.329E-04 0.000E+00

     total cpu time spent up to now is      249.2 secs

     total energy              =   -2205.56035920 Ry
     estimated scf accuracy    <       0.00000479 Ry

     iteration #  5     ecut=    80.00 Ry     beta= 0.70
     Davidson diagonalization with overlap
     ethr =  1.56E-09,  avg # of iterations =  5.0

     negative rho (up, down):  1.341E-04 0.000E+00

     total cpu time spent up to now is      262.4 secs

     total energy              =   -2205.56036084 Ry
     estimated scf accuracy    <       0.00000176 Ry

     iteration #  6     ecut=    80.00 Ry     beta= 0.70
     Davidson diagonalization with overlap
     ethr =  5.72E-10,  avg # of iterations =  2.0

     negative rho (up, down):  1.349E-04 0.000E+00

     total cpu time spent up to now is      276.9 secs

     total energy              =   -2205.56036108 Ry
     estimated scf accuracy    <       0.00000026 Ry

     iteration #  7     ecut=    80.00 Ry     beta= 0.70
     Davidson diagonalization with overlap
     ethr =  8.60E-11,  avg # of iterations =  6.0

     negative rho (up, down):  1.354E-04 0.000E+00

     total cpu time spent up to now is      288.6 secs

     total energy              =   -2205.56036112 Ry
     estimated scf accuracy    <       0.00000008 Ry

     iteration #  8     ecut=    80.00 Ry     beta= 0.70
     Davidson diagonalization with overlap
     ethr =  2.59E-11,  avg # of iterations =  2.0

     negative rho (up, down):  1.375E-04 0.000E+00

     total cpu time spent up to now is      290.5 secs

     End of self-consistent calculation

          k = 0.0000 0.0000 0.0000 (105382 PWs)   bands (ev):

   -62.9034 -62.8650 -62.8238 -62.7907 -62.7813 -62.7778 -62.7659 -62.7604
   -62.6947 -62.6055 -62.5889 -62.5165 -37.2053 -37.1430 -37.1230 -37.1164
   -37.0934 -37.0820 -37.0728 -37.0562 -37.0197 -37.0144 -37.0027 -36.9740
   -36.9662 -36.9632 -36.9603 -36.9524 -36.9483 -36.9449 -36.9423 -36.9252
   -36.8945 -36.8668 -36.8628 -36.8379 -36.8192 -36.8123 -36.8027 -36.7934
   -36.7674 -36.7624 -36.7523 -36.7399 -36.6932 -36.6718 -36.5522 -36.5456
   -16.3830 -15.6889 -15.1347 -14.9751 -14.8943 -14.8030 -14.5791 -14.4364
   -14.3960 -14.3609 -14.3562 -14.3306 -14.2698 -14.2349 -14.0859 -14.0784
   -14.0607 -14.0581 -14.0070 -13.8308 -13.7742 -13.7469 -13.7171  -9.1166
    -7.6416  -7.4122  -7.2890  -7.2238  -7.2111  -7.1839  -7.1015  -6.9998
    -6.8250  -6.7263  -6.6878  -6.6234  -6.5848  -6.4642  -6.4301  -6.3885
    -6.3393  -6.2313  -6.1732  -5.9331  -5.8582  -5.8469  -5.7629  -5.7548
    -5.7286  -5.6926  -5.6163  -5.6024  -5.5643  -5.5388  -5.4471  -5.3863
    -5.3546  -5.2963  -5.1354  -5.0868  -5.0228  -4.9645  -4.9452  -4.8961
    -4.8712  -4.7751  -4.6876  -4.4870  -4.3932  -4.2909  -4.2608  -4.1781
    -4.1498  -4.0543  -3.9815  -3.9403  -3.8348  -3.7428  -3.6434  -3.6167
    -3.5828  -3.4998  -3.4562  -3.4464  -3.4282  -3.4149  -3.3928  -3.3597
    -3.3250  -3.1945  -3.1044  -2.8851  -2.8154  -2.7539  -2.7174  -2.7009
    -2.6489  -2.6330  -2.6137  -2.5231  -2.4746  -2.1869  -1.9419  -1.9258
    -1.8466  -0.6733  -0.6442  -0.5688  -0.1814  -0.0707  -0.0382   0.1234
     0.1445   0.1791   0.2001   0.2436   0.2951   0.3218   0.4456   0.5057
     0.5492   0.6274   0.6343   0.6404   0.6896   0.7289   0.7471   0.7857
     0.8057   0.9158   0.9468   0.9640   1.0128   1.0344   1.1190   1.3019
     1.4639

     the Fermi energy is    -0.7315 ev

!    total energy              =   -2205.56036112 Ry
     estimated scf accuracy    <       0.00000001 Ry
     smearing contrib. (-TS)   =      -0.00978573 Ry
     internal energy E=F+TS    =   -2205.55057539 Ry

     The total energy is F=E-TS. E is the sum of the following terms:
     one-electron contribution =  -18055.59276862 Ry
     hartree contribution      =    9015.13815829 Ry
     xc contribution           =    -385.38315342 Ry
     ewald contribution        =    7220.28718836 Ry

     convergence has been achieved in   8 iterations

     negative rho (up, down):  1.375E-04 0.000E+00

     Forces acting on atoms (cartesian axes, Ry/au):

     atom    1 type  1   force =    -0.00483267    0.00274212   -0.00725114
     atom    2 type  2   force =     0.00066765    0.00453095   -0.00150364
     atom    3 type  2   force =    -0.00764577    0.00607178   -0.01264783
     atom    4 type  1   force =     0.00201213    0.00438357    0.00044229
     atom    5 type  2   force =     0.00384739   -0.00055276   -0.00106789
     atom    6 type  2   force =     0.00467389    0.00438180   -0.00022678
     atom    7 type  1   force =     0.00524403   -0.00605705    0.00277336
     atom    8 type  2   force =     0.00105230   -0.00276438    0.00578021
     atom    9 type  2   force =     0.00825518    0.00170949    0.00302822
     atom   10 type  1   force =    -0.00056142    0.00556277    0.00564711
     atom   11 type  2   force =     0.00290686   -0.00260244   -0.00592365
     atom   12 type  2   force =    -0.00618203   -0.00087807   -0.00289903
     atom   13 type  1   force =     0.00316364   -0.00025780    0.00667216
     atom   14 type  2   force =    -0.01331387    0.00760883    0.01171327
     atom   15 type  2   force =    -0.00105934   -0.00034563   -0.00067061
     atom   16 type  1   force =     0.00216427   -0.00046346    0.00006552
     atom   17 type  2   force =     0.00369362   -0.00071043    0.00044502
     atom   18 type  2   force =    -0.00526562    0.00356455   -0.00102924
     atom   19 type  1   force =    -0.00060677   -0.00212754    0.00184743
     atom   20 type  2   force =     0.00240240   -0.00325431   -0.00317173
     atom   21 type  1   force =    -0.00123911   -0.00143716    0.00257367
     atom   22 type  2   force =    -0.00152800   -0.00596290    0.00247761
     atom   23 type  2   force =    -0.00155802   -0.00274678   -0.00312958
     atom   24 type  1   force =    -0.00133792   -0.00129512   -0.00036521
     atom   25 type  2   force =     0.00543734    0.00943452   -0.00872255
     atom   26 type  2   force =    -0.00628220   -0.00192323   -0.00812526
     atom   27 type  1   force =     0.00024709    0.00292520    0.00423941
     atom   28 type  2   force =    -0.00028156   -0.00471207   -0.00058330
     atom   29 type  2   force =     0.00159113    0.00184517   -0.00469374
     atom   30 type  1   force =     0.00010160   -0.00713746    0.00696371
     atom   31 type  2   force =     0.00009694   -0.00022491    0.00253832
     atom   32 type  2   force =    -0.00420056    0.00132814    0.00665113
     atom   33 type  1   force =    -0.00189402    0.00295416    0.00634530
     atom   34 type  2   force =    -0.00261866   -0.01143557   -0.01356504
     atom   35 type  2   force =    -0.00315213    0.00686003    0.00130232
     atom   36 type  3   force =     0.01600220   -0.00901400    0.00407016
     The non-local contrib.  to forces
     atom    1 type  1   force =     0.00861608    0.02902671   -0.02482595
     atom    2 type  2   force =    -0.00096507   -0.00563322   -0.26085330
     atom    3 type  2   force =    -0.00834334   -0.00366170    0.26247048
     atom    4 type  1   force =     0.00280502    0.01624682    0.00270824
     atom    5 type  2   force =     0.00727987   -0.03604794   -0.25031447
     atom    6 type  2   force =     0.00286184    0.00043506    0.26558572
     atom    7 type  1   force =    -0.02711710   -0.01110848   -0.01698991
     atom    8 type  2   force =     0.00467819   -0.00408083   -0.26213188
     atom    9 type  2   force =     0.00367395   -0.01305908    0.26974612
     atom   10 type  1   force =     0.00551049   -0.00535818    0.00038748
     atom   11 type  2   force =     0.01278502    0.00451017   -0.25836616
     atom   12 type  2   force =    -0.01480183   -0.01637415    0.26025615
     atom   13 type  1   force =    -0.01015353    0.03280649   -0.00370243
     atom   14 type  2   force =    -0.19241504    0.10427178    0.11133223
     atom   15 type  2   force =    -0.00627771   -0.00704859    0.27382980
     atom   16 type  1   force =    -0.00251191    0.04752665   -0.01646471
     atom   17 type  2   force =    -0.00356041   -0.02595572   -0.23727402
     atom   18 type  2   force =    -0.00545548   -0.00198056    0.26373812
     atom   19 type  1   force =     0.01966032   -0.01583428   -0.01374266
     atom   20 type  2   force =     0.00017605   -0.02020272    0.26223889
     atom   21 type  1   force =    -0.00546296    0.01023992   -0.01603157
     atom   22 type  2   force =    -0.00527747    0.00787425   -0.25212493
     atom   23 type  2   force =     0.00889442   -0.01828424    0.26080646
     atom   24 type  1   force =     0.00382794    0.01988289   -0.01158148
     atom   25 type  2   force =     0.00217103    0.00189263   -0.24845827
     atom   26 type  2   force =     0.00146608   -0.01130022    0.26379581
     atom   27 type  1   force =    -0.00258484    0.01188826    0.00585622
     atom   28 type  2   force =    -0.00363501   -0.02750985   -0.27018022
     atom   29 type  2   force =     0.00526771   -0.00159390    0.26422853
     atom   30 type  1   force =    -0.00170959    0.01834745    0.00860991
     atom   31 type  2   force =    -0.00605718   -0.00018472   -0.26279402
     atom   32 type  2   force =     0.00064503   -0.01441461    0.27341156
     atom   33 type  1   force =    -0.00164993    0.00035578    0.00209670
     atom   34 type  2   force =    -0.00519588   -0.01056951   -0.27664363
     atom   35 type  2   force =    -0.00007505   -0.00833335    0.26556811
     atom   36 type  3   force =     0.03467497   -0.01753725   -0.04360257
     The ionic contribution  to forces
     atom    1 type  1   force =    -0.40752918    0.16736624    5.63327383
     atom    2 type  2   force =    -0.25987629   -0.00724764   39.47251162
     atom    3 type  2   force =    -0.16176560   -0.09096529  -36.44572072
     atom    4 type  1   force =    -0.14857797    1.01090612    0.92467682
     atom    5 type  2   force =    -0.97843116    1.68403905   38.68326954
     atom    6 type  2   force =     0.28436838   -0.45845341  -38.02299475
     atom    7 type  1   force =    -2.47297559   -2.78777751    2.39005529
     atom    8 type  2   force =    -1.03518935    0.10672415   37.65262231
     atom    9 type  2   force =     0.26253863   -0.07507978  -37.88168070
     atom   10 type  1   force =    -0.64246191   -0.44929345    5.06292178
     atom   11 type  2   force =    -0.41512542   -1.59155495   39.03916064
[...]
     atom   27 type  1   force =    -0.00266368    0.01760459    0.00383917
     atom   28 type  2   force =     0.00014061   -0.01726777   -0.27167432
     atom   29 type  2   force =     0.00027246   -0.01131317    0.26973350
     atom   30 type  1   force =    -0.00014116    0.01933173    0.00720427
     atom   31 type  2   force =    -0.00832719   -0.00308582   -0.26390036
     atom   32 type  2   force =     0.00471536   -0.01068410    0.26442328
     atom   33 type  1   force =    -0.00050417   -0.00039484    0.00095196
     atom   34 type  2   force =    -0.00062904   -0.00455471   -0.27041456
     atom   35 type  2   force =     0.00077263   -0.01040503    0.26800236
     atom   36 type  3   force =     0.00056583   -0.00020120   -0.06401694
     The ionic contribution  to forces
     atom    1 type  1   force =    -0.89723497   -0.11821564    2.43965384
     atom    2 type  2   force =    -0.21251681   -0.17664077   38.98493121
     atom    3 type  2   force =    -0.10605624   -0.27852811  -37.59536104
     atom    4 type  1   force =    -0.20288780    0.46975133    0.62820413
     atom    5 type  2   force =    -1.00583464    1.27023673   38.71904409
     atom    6 type  2   force =    -0.03328583   -0.36035863  -38.33630882
     atom    7 type  1   force =    -3.48609640   -1.63839651    2.81295154
     atom    8 type  2   force =    -1.14011033    0.23060290   38.52732319
     atom    9 type  2   force =     0.21666794    0.11038017  -38.17187451
     atom   10 type  1   force =    -0.72722976   -0.37230210    3.05128405
     atom   11 type  2   force =    -0.49499795   -1.37671964   38.66733284
     atom   12 type  2   force =     0.13451842    0.42758063  -37.81235079
     atom   13 type  1   force =     0.87205777    0.07258058    2.24679063
     atom   14 type  2   force =     0.02002335   -0.21086798   35.14044362
     atom   15 type  2   force =     0.03803348   -0.27595229  -36.40618830
     atom   16 type  1   force =    -0.39653930    3.83024354    1.83544381
     atom   17 type  2   force =     0.94910995    1.36722953   38.52365299
     atom   18 type  2   force =     0.05296674   -0.28560468  -38.22845978
     atom   19 type  1   force =     3.40638264   -2.23892121    1.47833112
     atom   20 type  2   force =    -0.03762179    0.07280773  -38.10645939
     atom   21 type  1   force =     0.21247074    0.23367714    1.66426045
     atom   22 type  2   force =     0.47396171   -1.43124909   38.74933530
     atom   23 type  2   force =    -0.07350943    0.48213527  -38.17745092
     atom   24 type  1   force =     0.00692615    0.12341049    2.40506505
     atom   25 type  2   force =     0.22980938   -0.14477089   38.94440729
     atom   26 type  2   force =     0.07141071   -0.21771788  -37.64968606
     atom   27 type  1   force =     0.51614309    0.56714859    0.59696904
     atom   28 type  2   force =     0.06126749    0.48638880   38.27222666
     atom   29 type  2   force =     0.01348772   -0.19980287  -37.69738743
     atom   30 type  1   force =    -0.03619243   -0.12162535    1.64381903
     atom   31 type  2   force =     1.30741610    0.15217099   38.31574912
     atom   32 type  2   force =    -0.19958035    0.01219672  -38.21132445
     atom   33 type  1   force =     0.50609299   -0.29767948    2.70387494
     atom   34 type  2   force =     0.01897798   -0.42802556   38.67052845
     atom   35 type  2   force =    -0.04670268    0.25754670  -37.33242377
     atom   36 type  3   force =    -0.01132765    0.00729085    8.70365287
     The local contribution  to forces
     atom    1 type  1   force =     0.88307859    0.08616962   -2.42823016
     atom    2 type  2   force =     0.22134549    0.17934399  -38.75018557
     atom    3 type  2   force =     0.10791953    0.28408155   37.34999897
     atom    4 type  1   force =     0.20183768   -0.48868424   -0.63156485
     atom    5 type  2   force =     1.00372459   -1.24203132  -38.49119780
     atom    6 type  2   force =     0.02754311    0.36555842   38.09526108
     atom    7 type  1   force =     3.51506077    1.64556236   -2.80029757
     atom    8 type  2   force =     1.13256943   -0.22976713  -38.28342063
     atom    9 type  2   force =    -0.21405634   -0.09701431   37.92995040
     atom   10 type  1   force =     0.72658625    0.37348652   -3.05290697
     atom   11 type  2   force =     0.49342271    1.37036037  -38.43561468
     atom   12 type  2   force =    -0.12859744   -0.41133224   37.56773761
     atom   13 type  1   force =    -0.85807931   -0.10445099   -2.23388114
     atom   14 type  2   force =    -0.01649155    0.21052183  -35.40325264
     atom   15 type  2   force =    -0.03754038    0.28475484   36.14527210
     atom   16 type  1   force =     0.39969852   -3.88567007   -1.81336140
     atom   17 type  2   force =    -0.94522968   -1.34020213  -38.29732452
     atom   18 type  2   force =    -0.04859789    0.29013925   37.98652364
     atom   19 type  1   force =    -3.43079926    2.24630118   -1.47283878
     atom   20 type  2   force =     0.03856430   -0.05669624   37.86135983
     atom   21 type  1   force =    -0.20981801   -0.22979677   -1.65103104
     atom   22 type  2   force =    -0.47150793    1.42084149  -38.51969709
     atom   23 type  2   force =     0.06996651   -0.46534567   37.93592962
     atom   24 type  1   force =    -0.00773402   -0.14514041   -2.40394047
     atom   25 type  2   force =    -0.23846750    0.14737845  -38.70873964
     atom   26 type  2   force =    -0.07377994    0.22327902   37.40432989
     atom   27 type  1   force =    -0.51386639   -0.58463455   -0.60059580
     atom   28 type  2   force =    -0.06101440   -0.47051451  -38.02099883
     atom   29 type  2   force =    -0.01338182    0.21014096   37.44886421
     atom   30 type  1   force =     0.03636415    0.10270707   -1.65067947
     atom   31 type  2   force =    -1.29931755   -0.15021243  -38.07177137
     atom   32 type  2   force =     0.19545021   -0.00149524   37.96727502
     atom   33 type  1   force =    -0.50544528    0.29768270   -2.70494242
     atom   34 type  2   force =    -0.01835958    0.43313948  -38.42153592
     atom   35 type  2   force =     0.04605505   -0.24767054   37.08498162
     atom   36 type  3   force =     0.01086965   -0.00681075   -8.63936725
     The core correction contribution to forces
     atom    1 type  1   force =     0.00000000    0.00000000    0.00000000
     atom    2 type  2   force =     0.00068062    0.00005535    0.02020619
     atom    3 type  2   force =     0.00014684    0.00010494   -0.02100092
     atom    4 type  1   force =     0.00000000    0.00000000    0.00000000
     atom    5 type  2   force =    -0.00026154    0.00184474    0.01994755
     atom    6 type  2   force =    -0.00025983   -0.00002577   -0.02080624
     atom    7 type  1   force =     0.00000000    0.00000000    0.00000000
     atom    8 type  2   force =    -0.00033205    0.00032742    0.02081736
     atom    9 type  2   force =     0.00039036    0.00069672   -0.02075592
     atom   10 type  1   force =     0.00000000    0.00000000    0.00000000
     atom   11 type  2   force =     0.00027448   -0.00095666    0.02005031
     atom   12 type  2   force =     0.00065566    0.00086002   -0.02085218
     atom   13 type  1   force =     0.00000000    0.00000000    0.00000000
     atom   14 type  2   force =     0.00019346   -0.00042728   -0.01153081
     atom   15 type  2   force =     0.00007033    0.00026144   -0.02127360
     atom   16 type  1   force =     0.00000000    0.00000000    0.00000000
     atom   17 type  2   force =     0.00035445    0.00181293    0.01985137
     atom   18 type  2   force =     0.00026731    0.00006063   -0.02079901
     atom   19 type  1   force =     0.00000000    0.00000000    0.00000000
     atom   20 type  2   force =     0.00002296    0.00078006   -0.02108576
     atom   21 type  1   force =     0.00000000    0.00000000    0.00000000
     atom   22 type  2   force =    -0.00028201   -0.00119879    0.02005070
     atom   23 type  2   force =    -0.00050467    0.00109238   -0.02087009
     atom   24 type  1   force =     0.00000000    0.00000000    0.00000000
     atom   25 type  2   force =    -0.00065090    0.00002889    0.02024349
     atom   26 type  2   force =    -0.00014737    0.00019074   -0.02100688
     atom   27 type  1   force =     0.00000000    0.00000000    0.00000000
     atom   28 type  2   force =    -0.00000908    0.00113833    0.02095935
     atom   29 type  2   force =    -0.00001390    0.00035622   -0.02086631
     atom   30 type  1   force =     0.00000000    0.00000000    0.00000000
     atom   31 type  2   force =     0.00054710    0.00035350    0.02078709
     atom   32 type  2   force =    -0.00048659    0.00050275   -0.02079875
     atom   33 type  1   force =     0.00000000    0.00000000    0.00000000
     atom   34 type  2   force =     0.00006641    0.00007142    0.02090895
     atom   35 type  2   force =    -0.00004207    0.00057574   -0.02090850
     atom   36 type  3   force =     0.00000000    0.00000000    0.00000000
     The Hubbard contrib.    to forces
     atom    1 type  1   force =     0.00000000    0.00000000    0.00000000
     atom    2 type  2   force =     0.00000000    0.00000000    0.00000000
     atom    3 type  2   force =     0.00000000    0.00000000    0.00000000
     atom    4 type  1   force =     0.00000000    0.00000000    0.00000000
     atom    5 type  2   force =     0.00000000    0.00000000    0.00000000
     atom    6 type  2   force =     0.00000000    0.00000000    0.00000000
     atom    7 type  1   force =     0.00000000    0.00000000    0.00000000
     atom    8 type  2   force =     0.00000000    0.00000000    0.00000000
     atom    9 type  2   force =     0.00000000    0.00000000    0.00000000
     atom   10 type  1   force =     0.00000000    0.00000000    0.00000000
     atom   11 type  2   force =     0.00000000    0.00000000    0.00000000
     atom   12 type  2   force =     0.00000000    0.00000000    0.00000000
     atom   13 type  1   force =     0.00000000    0.00000000    0.00000000
     atom   14 type  2   force =     0.00000000    0.00000000    0.00000000
     atom   15 type  2   force =     0.00000000    0.00000000    0.00000000
     atom   16 type  1   force =     0.00000000    0.00000000    0.00000000
     atom   17 type  2   force =     0.00000000    0.00000000    0.00000000
     atom   18 type  2   force =     0.00000000    0.00000000    0.00000000
     atom   19 type  1   force =     0.00000000    0.00000000    0.00000000
     atom   20 type  2   force =     0.00000000    0.00000000    0.00000000
     atom   21 type  1   force =     0.00000000    0.00000000    0.00000000
     atom   22 type  2   force =     0.00000000    0.00000000    0.00000000
     atom   23 type  2   force =     0.00000000    0.00000000    0.00000000
     atom   24 type  1   force =     0.00000000    0.00000000    0.00000000
     atom   25 type  2   force =     0.00000000    0.00000000    0.00000000
     atom   26 type  2   force =     0.00000000    0.00000000    0.00000000
     atom   27 type  1   force =     0.00000000    0.00000000    0.00000000
     atom   28 type  2   force =     0.00000000    0.00000000    0.00000000
     atom   29 type  2   force =     0.00000000    0.00000000    0.00000000
     atom   30 type  1   force =     0.00000000    0.00000000    0.00000000
     atom   31 type  2   force =     0.00000000    0.00000000    0.00000000
     atom   32 type  2   force =     0.00000000    0.00000000    0.00000000
     atom   33 type  1   force =     0.00000000    0.00000000    0.00000000
     atom   34 type  2   force =     0.00000000    0.00000000    0.00000000
     atom   35 type  2   force =     0.00000000    0.00000000    0.00000000
     atom   36 type  3   force =     0.00000000    0.00000000    0.00000000
     The SCF correction term to forces
     atom    1 type  1   force =     0.00000475    0.00000378    0.00001965
     atom    2 type  2   force =    -0.00000893    0.00000136    0.00000350
     atom    3 type  2   force =    -0.00000105    0.00000884    0.00000674
     atom    4 type  1   force =    -0.00000908   -0.00002316    0.00000155
     atom    5 type  2   force =    -0.00000560   -0.00000755   -0.00000094
     atom    6 type  2   force =    -0.00000182   -0.00000930    0.00001199
     atom    7 type  1   force =    -0.00000540    0.00000159    0.00003955
     atom    8 type  2   force =    -0.00000959   -0.00000363    0.00000708
     atom    9 type  2   force =     0.00000863   -0.00001061   -0.00000437
     atom   10 type  1   force =    -0.00000898    0.00003403    0.00001958
     atom   11 type  2   force =    -0.00000760    0.00000747    0.00001498
     atom   12 type  2   force =     0.00000418    0.00001140    0.00000945
     atom   13 type  1   force =     0.00000533    0.00001184    0.00000086
     atom   14 type  2   force =     0.00001098   -0.00000455    0.00000726
     atom   15 type  2   force =     0.00000506    0.00000781    0.00000115
     atom   16 type  1   force =     0.00000160   -0.00003287    0.00002111
     atom   17 type  2   force =     0.00001066   -0.00000104    0.00000198
     atom   18 type  2   force =    -0.00000008   -0.00000043    0.00000337
     atom   19 type  1   force =     0.00000567    0.00000436    0.00001859
     atom   20 type  2   force =    -0.00000753   -0.00001268    0.00001534
     atom   21 type  1   force =    -0.00000778    0.00001057    0.00004754
     atom   22 type  2   force =     0.00001215    0.00000959    0.00000802
     atom   23 type  2   force =    -0.00000872    0.00000943    0.00000611
     atom   24 type  1   force =    -0.00001331   -0.00000702    0.00000044
     atom   25 type  2   force =    -0.00000096   -0.00000152    0.00000931
     atom   26 type  2   force =    -0.00000528    0.00000446   -0.00000484
     atom   27 type  1   force =     0.00000725   -0.00001407   -0.00001024
     atom   28 type  2   force =    -0.00000392   -0.00000813    0.00000093
     atom   29 type  2   force =     0.00000061   -0.00000117   -0.00000520
     atom   30 type  1   force =     0.00000282   -0.00000142   -0.00000468
     atom   31 type  2   force =     0.00000816   -0.00000259    0.00000057
     atom   32 type  2   force =    -0.00000366   -0.00000552   -0.00000787
     atom   33 type  1   force =     0.00001229    0.00001084    0.00001078
     atom   34 type  2   force =    -0.00000185    0.00000960    0.00000715
     atom   35 type  2   force =     0.00000379    0.00000392   -0.00000403
     atom   36 type  3   force =     0.00000057   -0.00000110    0.00000111

     Total force =     0.004395     Total SCF correction =     0.000115
     Energy error            =      5.0E-05 Ry
     Gradient error          =      9.7E-04 Ry/Bohr

     bfgs converged in  28 scf cycles and  27 bfgs steps
     (criteria: energy <  1.0E-04 Ry, force <  1.0E-02 Ry/Bohr)

     End of BFGS Geometry Optimization

     Final energy             =   -2205.5886119909 Ry

     File ./MoS2-V-O.bfgs deleted, as requested
Begin final coordinates

ATOMIC_POSITIONS (angstrom)
Mo            6.5843845750        1.8096631206        2.7654837898
S             8.1213912793        0.8681968734        4.3774406246
S             8.1215887038        0.8549938665        1.1733083933
Mo            8.1085663661        4.5092263455        2.7153524031
S             6.5201871086        3.6991445658        4.3324998230
S             6.5509771033        3.5790793349        1.1007171154
Mo            6.5261146439        7.1718867240        2.6754475555
S             8.0833823124        6.3109582825        4.3135780097
S             8.1284432189        6.3279846716        1.1042082373
Mo            8.1044726950        9.9548257130        2.7734566192
S             6.5169115322        8.9255556003        4.3439724787
S             6.5675406548        9.0300425153        1.1314689936
Mo            3.3683189092        1.8114037631        2.7613248064
S             4.9730939904        0.8267082840        4.2283593688
S             4.9779626781        0.8475710625        1.2198946187
Mo            4.9870728683        4.5297217538        2.6598574125
S             3.4399252729        3.7033746865        4.3221417189
S             3.4020058752        3.5866982350        1.1009900549
Mo            3.4105728231        7.2064227441        2.6514475799
S             4.9712963189        6.3246190772        1.0645147868
Mo            4.9682291485        9.8511104124        2.7453632525
S             3.4230570699        8.9339600454        4.3415004097
S             3.3731583566        9.0539328047        1.1123646683
Mo            0.2458976941        1.7519751522        2.7711812400
S             1.8295920546        0.8712599083        4.3728143611
S             1.8291657103        0.8647810058        1.1696535843
Mo            1.8411746060        4.5111211250        2.7126753292
S             0.2482593468        3.6233519929        4.3159150245
S             0.2452396781        3.5719556048        1.1463670846
Mo            0.2434892301        7.2271903364        2.7311370219
S             1.8706063108        6.3208637057        4.2991976023
S             1.8066169431        6.3276498073        1.0973271552
Mo            1.8393053833        9.9607925459        2.7655529394
S             0.2458998133        9.0422413942        4.3517986147
S             0.2399588096        9.0729058824        1.1787070607
H             4.9614923720        0.8320996898        5.5933201331
End final coordinates



     Writing all to output data dir ./MoS2-V-O.save/
 
     init_run     :      2.45s CPU      3.01s WALL (       1 calls)
     electrons    :   2648.88s CPU   2905.32s WALL (      28 calls)
     update_pot   :     37.87s CPU     39.43s WALL (      27 calls)
     forces       :     38.26s CPU     40.95s WALL (      28 calls)

     Called by init_run:
     wfcinit      :      0.41s CPU      0.60s WALL (       1 calls)
     potinit      :      1.36s CPU      1.44s WALL (       1 calls)
     hinit0       :      0.16s CPU      0.38s WALL (       1 calls)

     Called by electrons:
     c_bands      :    298.78s CPU    302.15s WALL (     246 calls)
     sum_band     :     79.58s CPU     86.86s WALL (     246 calls)
     v_of_rho     :    103.92s CPU    119.82s WALL (     262 calls)
     newd         :     42.44s CPU     47.66s WALL (     262 calls)
     mix_rho      :   2136.24s CPU   2359.44s WALL (     246 calls)

     Called by c_bands:
     init_us_2    :      5.44s CPU      5.64s WALL (     493 calls)
     init_us_2:cp :      5.44s CPU      5.64s WALL (     493 calls)
     regterg      :    280.59s CPU    283.75s WALL (     246 calls)

     Called by *egterg:
     rdiaghg      :     22.73s CPU     23.04s WALL (    1310 calls)
     h_psi        :    162.09s CPU    163.50s WALL (    1350 calls)
     s_psi        :     20.34s CPU     20.40s WALL (    1350 calls)
     g_psi        :      1.11s CPU      1.12s WALL (    1103 calls)

     Called by h_psi:
     h_psi:calbec :     22.31s CPU     22.41s WALL (    1350 calls)
     vloc_psi     :    117.11s CPU    118.31s WALL (    1350 calls)
     add_vuspsi   :     20.02s CPU     20.11s WALL (    1350 calls)

     General routines
     calbec       :     31.90s CPU     32.04s WALL (    1708 calls)
     fft          :     70.46s CPU     81.99s WALL (   17617 calls)
     ffts         :    952.21s CPU   1167.73s WALL (  520490 calls)
     fftw         :    101.79s CPU    102.66s WALL (  149434 calls)
     interpolate  :      1.99s CPU      2.30s WALL (     262 calls)
 
     Parallel routines
 
     PWSCF        :  45m33.07s CPU  49m56.93s WALL

 
   This run was terminated on:  22:15:41   3Nov2023            

=------------------------------------------------------------------------------=
   JOB DONE.
=------------------------------------------------------------------------------=
