
     Program PWSCF v.7.2 starts on  3Nov2023 at 23:54:45 

     This program is part of the open-source Quantum ESPRESSO suite
     for quantum simulation of materials; please cite
         "P. Giannozzi et al., J. Phys.:Condens. Matter 21 395502 (2009);
         "P. Giannozzi et al., J. Phys.:Condens. Matter 29 465901 (2017);
         "P. Giannozzi et al., J. Chem. Phys. 152 154105 (2020);
          URL http://www.quantum-espresso.org", 
     in publications or presentations arising from this work. More details at
     http://www.quantum-espresso.org/quote

     Parallel version (MPI & OpenMP), running on      48 processor cores
     Number of MPI processes:                48
     Threads/MPI process:                     1

     MPI processes distributed on     1 nodes
     65756 MiB available memory on the printing compute node when the environment starts
 
     Waiting for input...
     Reading input from standard input
Warning: card &CELL ignored
Warning: card CELL_DYNAMICS = 'BFGS', ignored
Warning: card CELL_DOFREE = '2DXY' ignored
Warning: card / ignored

     Current dimensions of program PWSCF are:
     Max number of different atomic species (ntypx) = 10
     Max number of k-points (npk) =  40000
     Max angular momentum in pseudopotentials (lmaxx) =  4

     IMPORTANT: XC functional enforced from input :
     Exchange-correlation= RVV10
                           (   1   4  13   4  26   0   0)
     Any further DFT definition will be discarded
     Please, verify this is what you really want


     gamma-point specific algorithms are used
     signal trapping enabled: kill the code with -SIGUSR1 to stop cleanly the simulation 
 
     R & G space division:  proc/nbgrp/npool/nimage =      48
     Subspace diagonalization in iterative solution of the eigenvalue problem:
     one sub-group per band group will be used
     scalapack distributed-memory algorithm (size of sub-group:  2*  2 procs)

 
     Parallelization info
     --------------------
     sticks:   dense  smooth     PW     G-vecs:    dense   smooth      PW
     Min         243     194     47                49060    35090    4376
     Max         246     196     50                49086    35128    4410
     Sum       11735    9389   2349              2355467  1685513  210763
 
     Using Slab Decomposition
 


     bravais-lattice index     =            0
     lattice parameter (alat)  =      17.8707  a.u.
     unit-cell volume          =   17436.2743 (a.u.)^3
     number of atoms/cell      =           36
     number of atomic types    =            3
     number of electrons       =       307.00
     number of Kohn-Sham states=          185
     kinetic-energy cutoff     =      80.0000  Ry
     charge density cutoff     =     400.0000  Ry
     scf convergence threshold =      1.0E-06
     mixing beta               =       0.7000
     number of iterations used =            8  local-TF  mixing
     energy convergence thresh.=      1.0E-04
     force convergence thresh. =      1.0E-02
     Exchange-correlation= RVV10
                           (   1   4  13   4  26   0   0)
     nstep                     =          200


     celldm(1)=  17.870686  celldm(2)=   0.000000  celldm(3)=   0.000000
     celldm(4)=   0.000000  celldm(5)=   0.000000  celldm(6)=   0.000000

     crystal axes: (cart. coord. in units of alat)
               a(1) = (   1.000000   0.000000   0.000000 )  
               a(2) = (   0.000000   1.155671   0.000000 )  
               a(3) = (   0.000000   0.000000   2.643601 )  

     reciprocal axes: (cart. coord. in units 2 pi/alat)
               b(1) = (  1.000000  0.000000  0.000000 )  
               b(2) = (  0.000000  0.865298  0.000000 )  
               b(3) = (  0.000000  0.000000  0.378272 )  


     PseudoPot. # 1 for Mo read from file:
     ../pseudo/Mo_ONCV_PBE-1.0.oncvpsp.upf
     MD5 check sum: 1b5d28e075c9ccadda658a603575cd1f
     Pseudo is Norm-conserving, Zval = 14.0
     Generated using ONCVPSP code by D. R. Hamann
     Using radial grid of 1526 points,  6 beta functions with: 
                l(1) =   0
                l(2) =   0
                l(3) =   1
                l(4) =   1
                l(5) =   2
                l(6) =   2

     PseudoPot. # 2 for S  read from file:
     ../pseudo/s_pbe_v1.4.uspp.F.UPF
     MD5 check sum: 88d86576ff6df21479756cfb9bdac1df
     Pseudo is Ultrasoft + core correction, Zval =  6.0
     Generated by new atomic code, or converted to UPF format
     Using radial grid of  907 points,  6 beta functions with: 
                l(1) =   0
                l(2) =   0
                l(3) =   1
                l(4) =   1
                l(5) =   2
                l(6) =   2
     Q(r) pseudized with  8 coefficients,  rinner =    1.300   1.300   1.300
                                                       1.300   1.300

     PseudoPot. # 3 for H  read from file:
     ../pseudo/H_ONCV_PBE-1.0.oncvpsp.upf
     MD5 check sum: 1790becc920ee074925cf490c71280fe
     Pseudo is Norm-conserving, Zval =  1.0
     Generated using ONCVPSP code by D. R. Hamann
     Using radial grid of 1166 points,  2 beta functions with: 
                l(1) =   0
                l(2) =   0

     atomic species   valence    mass     pseudopotential
        Mo            14.00    95.94000     Mo( 1.00)
        S              6.00    32.06500     S ( 1.00)
        H              1.00     1.00794     H ( 1.00)

     No symmetry found



   Cartesian axes

     site n.     atom                  positions (alat units)
         1           Mo  tau(   1) = (   0.6952221   0.1890506   0.2985846  )
         2           S   tau(   2) = (   0.8646417   0.0856217   0.4689279  )
         3           S   tau(   3) = (   0.8663890   0.0857843   0.1351291  )
         4           Mo  tau(   4) = (   0.8560186   0.4753274   0.2873942  )
         5           S   tau(   5) = (   0.6873294   0.3936244   0.4596353  )
         6           S   tau(   6) = (   0.6929804   0.3713468   0.1185692  )
         7           Mo  tau(   7) = (   0.6862796   0.7633098   0.2825370  )
         8           S   tau(   8) = (   0.8545980   0.6708292   0.4486168  )
         9           S   tau(   9) = (   0.8545123   0.6666874   0.1146125  )
        10           Mo  tau(  10) = (   0.8629403   1.0471007   0.3006803  )
        11           S   tau(  11) = (   0.6868280   0.9456650   0.4634891  )
        12           S   tau(  12) = (   0.6998113   0.9568511   0.1205389  )
        13           Mo  tau(  13) = (   0.3618216   0.1847309   0.2935964  )
        14           S   tau(  14) = (   0.5260962   0.0863870   0.4600448  )
        15           S   tau(  15) = (   0.5348379   0.0894875   0.1297123  )
        16           Mo  tau(  16) = (   0.5265817   0.4772436   0.2784130  )
        17           S   tau(  17) = (   0.3624753   0.3882513   0.4525556  )
        18           S   tau(  18) = (   0.3635411   0.3752055   0.1119148  )
        19           Mo  tau(  19) = (   0.3652268   0.7630864   0.2781795  )
        20           S   tau(  20) = (   0.5269494   0.6690381   0.1096838  )
        21           Mo  tau(  21) = (   0.5300192   1.0470394   0.2900995  )
        22           S   tau(  22) = (   0.3670346   0.9457522   0.4574073  )
        23           S   tau(  23) = (   0.3604225   0.9585725   0.1159032  )
        24           Mo  tau(  24) = (   0.0313099   0.1847895   0.3013130  )
        25           S   tau(  25) = (   0.1956761   0.0838230   0.4650863  )
        26           S   tau(  26) = (   0.1967693   0.0903508   0.1278874  )
        27           Mo  tau(  27) = (   0.1967578   0.4753919   0.2813011  )
        28           S   tau(  28) = (   0.0287851   0.3864324   0.4586755  )
        29           S   tau(  29) = (   0.0244514   0.3729871   0.1239344  )
        30           Mo  tau(  30) = (   0.0286728   0.7631204   0.2856894  )
        31           S   tau(  31) = (   0.2011512   0.6675435   0.4465001  )
        32           S   tau(  32) = (   0.1969214   0.6672839   0.1104564  )
        33           Mo  tau(  33) = (   0.1950294   1.0511147   0.2932237  )
        34           S   tau(  34) = (   0.0312912   0.9612169   0.4667423  )
        35           S   tau(  35) = (   0.0292670   0.9563028   0.1216485  )
        36           H   tau(  36) = (   0.0000000   0.3852236   0.5650415  )

     number of k points=     1  Gaussian smearing, width (Ry)=  0.0100
                       cart. coord. in units 2pi/alat
        k(    1) = (   0.0000000   0.0000000   0.0000000), wk =   2.0000000

     Dense  grid:  1177734 G-vectors     FFT dimensions: ( 120, 135, 320)

     Smooth grid:   842757 G-vectors     FFT dimensions: ( 108, 120, 270)

     Estimated max dynamical RAM per process >     146.59 MB

     Estimated total dynamical RAM >       6.87 GB

     Initial potential from superposition of free atoms

     starting charge     306.9873, renormalised to     307.0000

     negative rho (up, down):  1.409E-04 0.000E+00


---------------------------------------------------------------------------------
Carrying out rVV10 run using the following parameters:
Nqs =      20    Nr_points =    1024   r_max =   100.000
b_value =  6.30000    beta =  0.00901
     q_mesh =  0.00010000  0.00030000  0.00058939  0.00100810
               0.00161396  0.00249058  0.00375900  0.00559430
               0.00824984  0.01209221  0.01765183  0.02569619
               0.03733578  0.05417739  0.07854596  0.11380545
               0.16482331  0.23864234  0.34545298  0.50000000

Gradients computed in Reciprocal space

---------------------------------------------------------------------------------


     Starting wfcs are  213 randomized atomic wfcs

     total cpu time spent up to now is        2.8 secs

     Self-consistent Calculation

     iteration #  1     ecut=    80.00 Ry     beta= 0.70
     Davidson diagonalization with overlap
     ethr =  1.00E-02,  avg # of iterations =  2.0

     Threshold (ethr) on eigenvalues was too large:
     Diagonalizing with lowered threshold

     Davidson diagonalization with overlap
     ethr =  3.92E-04,  avg # of iterations =  4.0

     negative rho (up, down):  2.626E-08 0.000E+00

     total cpu time spent up to now is       17.2 secs

     total energy              =   -2205.48432286 Ry
     estimated scf accuracy    <       1.49255791 Ry

     iteration #  2     ecut=    80.00 Ry     beta= 0.70
     Davidson diagonalization with overlap
     ethr =  4.86E-04,  avg # of iterations =  1.0

     total cpu time spent up to now is       19.6 secs

     total energy              =   -2205.30346229 Ry
     estimated scf accuracy    <       0.61509321 Ry

     iteration #  3     ecut=    80.00 Ry     beta= 0.70
     Davidson diagonalization with overlap
     ethr =  2.00E-04,  avg # of iterations =  2.0

     total cpu time spent up to now is       22.1 secs

     total energy              =   -2205.39936737 Ry
     estimated scf accuracy    <       0.06561405 Ry

     iteration #  4     ecut=    80.00 Ry     beta= 0.70
     Davidson diagonalization with overlap
     ethr =  2.14E-05,  avg # of iterations = 19.0

     total cpu time spent up to now is       25.5 secs

     total energy              =   -2205.40264081 Ry
     estimated scf accuracy    <       0.03448746 Ry

     iteration #  5     ecut=    80.00 Ry     beta= 0.70
     Davidson diagonalization with overlap
     ethr =  1.12E-05,  avg # of iterations =  2.0

     total cpu time spent up to now is       27.8 secs

     total energy              =   -2205.40149094 Ry
     estimated scf accuracy    <       0.02054384 Ry

     iteration #  6     ecut=    80.00 Ry     beta= 0.70
     Davidson diagonalization with overlap
     ethr =  6.69E-06,  avg # of iterations =  2.0

     total cpu time spent up to now is       30.2 secs

     total energy              =   -2205.40097559 Ry
     estimated scf accuracy    <       0.01538335 Ry

     iteration #  7     ecut=    80.00 Ry     beta= 0.70
     Davidson diagonalization with overlap
     ethr =  5.01E-06,  avg # of iterations =  1.0

     total cpu time spent up to now is       32.5 secs

     total energy              =   -2205.39932134 Ry
     estimated scf accuracy    <       0.01047759 Ry

     iteration #  8     ecut=    80.00 Ry     beta= 0.70
     Davidson diagonalization with overlap
     ethr =  3.41E-06,  avg # of iterations =  2.0

     negative rho (up, down):  5.964E-03 0.000E+00

     total cpu time spent up to now is       37.0 secs

     total energy              =   -2205.39812524 Ry
     estimated scf accuracy    <       0.00571632 Ry

     iteration #  9     ecut=    80.00 Ry     beta= 0.70
     Davidson diagonalization with overlap
     ethr =  1.86E-06,  avg # of iterations =  2.0

     negative rho (up, down):  2.570E-02 0.000E+00

     total cpu time spent up to now is       41.6 secs

     total energy              =   -2205.39774451 Ry
     estimated scf accuracy    <       0.00334381 Ry

     iteration # 10     ecut=    80.00 Ry     beta= 0.70
     Davidson diagonalization with overlap
     ethr =  1.09E-06,  avg # of iterations =  2.0

     negative rho (up, down):  3.125E-02 0.000E+00

     total cpu time spent up to now is       46.0 secs

     total energy              =   -2205.39772273 Ry
     estimated scf accuracy    <       0.00151680 Ry

     iteration # 11     ecut=    80.00 Ry     beta= 0.70
     Davidson diagonalization with overlap
     ethr =  4.94E-07,  avg # of iterations =  2.0

     negative rho (up, down):  1.976E-02 0.000E+00

     total cpu time spent up to now is       50.9 secs

     total energy              =   -2205.39777703 Ry
     estimated scf accuracy    <       0.00049046 Ry

     iteration # 12     ecut=    80.00 Ry     beta= 0.70
     Davidson diagonalization with overlap
     ethr =  1.60E-07,  avg # of iterations =  2.0

     negative rho (up, down):  6.898E-03 0.000E+00

     total cpu time spent up to now is       57.6 secs

     total energy              =   -2205.39781404 Ry
     estimated scf accuracy    <       0.00014471 Ry

     iteration # 13     ecut=    80.00 Ry     beta= 0.70
     Davidson diagonalization with overlap
     ethr =  4.71E-08,  avg # of iterations =  6.0

     negative rho (up, down):  1.144E-03 0.000E+00

     total cpu time spent up to now is       66.5 secs

     total energy              =   -2205.39783898 Ry
     estimated scf accuracy    <       0.00002386 Ry

     iteration # 14     ecut=    80.00 Ry     beta= 0.70
     Davidson diagonalization with overlap
     ethr =  7.77E-09,  avg # of iterations = 19.0

     negative rho (up, down):  8.117E-04 0.000E+00

     total cpu time spent up to now is       77.4 secs

     total energy              =   -2205.39785162 Ry
     estimated scf accuracy    <       0.00000596 Ry

     iteration # 15     ecut=    80.00 Ry     beta= 0.70
     Davidson diagonalization with overlap
     ethr =  1.94E-09,  avg # of iterations =  2.0

     negative rho (up, down):  2.909E-04 0.000E+00

     total cpu time spent up to now is       88.3 secs

     total energy              =   -2205.39786092 Ry
     estimated scf accuracy    <       0.00000303 Ry

     iteration # 16     ecut=    80.00 Ry     beta= 0.70
     Davidson diagonalization with overlap
     ethr =  9.89E-10,  avg # of iterations =  3.0

     negative rho (up, down):  1.371E-04 0.000E+00

     total cpu time spent up to now is       90.6 secs

     End of self-consistent calculation

          k = 0.0000 0.0000 0.0000 (105382 PWs)   bands (ev):

   -62.9336 -62.8764 -62.8570 -62.7506 -62.7395 -62.7334 -62.7259 -62.7232
   -62.6980 -62.5056 -62.4886 -62.4571 -37.2300 -37.1690 -37.1479 -37.1093
   -37.0822 -37.0705 -37.0620 -37.0221 -37.0116 -36.9997 -36.9926 -36.9661
   -36.9508 -36.9427 -36.9344 -36.9188 -36.9143 -36.9080 -36.9033 -36.8979
   -36.8702 -36.8513 -36.8453 -36.8040 -36.7789 -36.7734 -36.7451 -36.7377
   -36.7084 -36.6844 -36.6727 -36.6490 -36.6235 -36.6215 -36.4607 -36.4519
   -17.7820 -15.7928 -15.0299 -15.0164 -14.8648 -14.7534 -14.6766 -14.4095
   -14.3844 -14.3519 -14.2946 -14.2640 -14.2284 -14.1776 -14.1192 -14.0398
   -14.0195 -14.0165 -13.9108 -13.8700 -13.7341 -13.7031 -13.6881 -10.2416
    -7.6574  -7.3758  -7.2906  -7.2613  -7.1755  -7.1612  -7.0600  -7.0356
    -6.8061  -6.7368  -6.6974  -6.6563  -6.5509  -6.4758  -6.3962  -6.3390
    -6.3208  -6.1632  -6.1421  -5.9026  -5.8770  -5.8407  -5.7778  -5.6994
    -5.6318  -5.6187  -5.6044  -5.5852  -5.5609  -5.5201  -5.4640  -5.3912
    -5.3520  -5.2989  -5.1038  -5.0618  -4.9900  -4.9478  -4.9124  -4.8817
    -4.8240  -4.7591  -4.5669  -4.5523  -4.3860  -4.2852  -4.2162  -4.1884
    -4.1351  -4.0444  -3.9126  -3.8242  -3.7164  -3.7001  -3.6616  -3.6411
    -3.5891  -3.5163  -3.4811  -3.4564  -3.4263  -3.3742  -3.3431  -3.2978
    -3.2528  -3.1564  -3.0538  -2.8511  -2.7930  -2.7153  -2.6969  -2.6794
    -2.6226  -2.5698  -2.5379  -2.4874  -2.4333  -2.2062  -1.9171  -1.9001
    -1.7588  -0.6079  -0.5191  -0.3103  -0.1417  -0.1082  -0.0055   0.0420
     0.0709   0.1352   0.2684   0.3425   0.3822   0.4050   0.4369   0.5076
     0.5320   0.6386   0.6593   0.6640   0.7296   0.7585   0.7973   0.8423
     0.8833   0.9038   0.9613   0.9948   1.0373   1.0706   1.1043   1.3729
     1.4703

     the Fermi energy is    -0.6356 ev

!    total energy              =   -2205.39785960 Ry
     estimated scf accuracy    <       0.00000079 Ry
     smearing contrib. (-TS)   =      -0.00814187 Ry
     internal energy E=F+TS    =   -2205.38971772 Ry

     The total energy is F=E-TS. E is the sum of the following terms:
     one-electron contribution =  -18051.25268546 Ry
     hartree contribution      =    9013.23368975 Ry
     xc contribution           =    -385.58747335 Ry
     ewald contribution        =    7218.21675133 Ry

     convergence has been achieved in  16 iterations

     negative rho (up, down):  1.371E-04 0.000E+00

     Forces acting on atoms (cartesian axes, Ry/au):

     atom    1 type  1   force =     0.01396997   -0.02250618    0.00322564
     atom    2 type  2   force =    -0.01614857    0.01457463    0.00168133
     atom    3 type  2   force =    -0.01061523    0.00951800   -0.00385746
     atom    4 type  1   force =    -0.00357734    0.00152521    0.00137760
     atom    5 type  2   force =    -0.00327928   -0.00457658   -0.00803644
     atom    6 type  2   force =     0.00603118    0.01116307    0.00313375
     atom    7 type  1   force =    -0.00228848    0.00152360   -0.00605140
     atom    8 type  2   force =     0.00098804   -0.00007027    0.01854314
     atom    9 type  2   force =     0.01499023    0.00175831    0.00982939
     atom   10 type  1   force =    -0.01059590    0.00867895   -0.02594098
     atom   11 type  2   force =     0.00293194   -0.00248633   -0.00501489
     atom   12 type  2   force =    -0.00089254    0.00148640    0.00586122
     atom   13 type  1   force =     0.00331966    0.00727777   -0.00844405
     atom   14 type  2   force =     0.00788188    0.00066169    0.01137515
     atom   15 type  2   force =    -0.01220940    0.00088236   -0.00951138
     atom   16 type  1   force =     0.00153735   -0.00372443    0.00219491
     atom   17 type  2   force =     0.01338647    0.00199640   -0.00210780
     atom   18 type  2   force =    -0.00964771   -0.00559196    0.01657089
     atom   19 type  1   force =     0.01025404    0.00442764   -0.00278412
     atom   20 type  2   force =     0.00317204   -0.00508009    0.00066283
     atom   21 type  1   force =    -0.00484089    0.00666593   -0.00113175
     atom   22 type  2   force =    -0.00103699   -0.00269508   -0.00104510
     atom   23 type  2   force =    -0.00093610    0.00202708    0.00928793
     atom   24 type  1   force =    -0.01260776   -0.02053867   -0.01765926
     atom   25 type  2   force =     0.01830531    0.01503086    0.00723372
     atom   26 type  2   force =    -0.01125871   -0.00036086   -0.00402179
     atom   27 type  1   force =     0.01282943    0.00586132    0.01346263
     atom   28 type  2   force =     0.16237559   -0.00171776   -0.71436129
     atom   29 type  2   force =     0.00307359    0.00201560    0.00009087
     atom   30 type  1   force =    -0.00378159    0.00765946   -0.00525249
     atom   31 type  2   force =     0.00320203    0.00729773    0.01808064
     atom   32 type  2   force =    -0.01099402   -0.00018313    0.00646663
     atom   33 type  1   force =     0.01363538   -0.00403260   -0.00843360
     atom   34 type  2   force =     0.00293022   -0.04443581   -0.01026062
     atom   35 type  2   force =    -0.00794404    0.00865033    0.01515509
     atom   36 type  3   force =    -0.17215980   -0.00268257    0.68968106
     The non-local contrib.  to forces
     atom    1 type  1   force =    -0.00622567    0.03154705   -0.01167955
     atom    2 type  2   force =    -0.00287335    0.00774345   -0.26146416
     atom    3 type  2   force =    -0.00890717   -0.00372453    0.27433157
     atom    4 type  1   force =    -0.01659444    0.01523164   -0.00399440
     atom    5 type  2   force =     0.01361256   -0.03028657   -0.24830370
     atom    6 type  2   force =     0.00077963    0.01363504    0.26150022
     atom    7 type  1   force =    -0.03712979   -0.01048830   -0.00936579
     atom    8 type  2   force =     0.00625477   -0.01049077   -0.24380947
     atom    9 type  2   force =     0.01250305   -0.01762578    0.27674529
     atom   10 type  1   force =    -0.00193668   -0.00480363   -0.00100912
     atom   11 type  2   force =     0.01573235    0.00511772   -0.26101845
     atom   12 type  2   force =    -0.01111561   -0.01388306    0.26083423
     atom   13 type  1   force =     0.00536377    0.01781534   -0.00629219
     atom   14 type  2   force =     0.01003898   -0.00526186   -0.25832124
     atom   15 type  2   force =    -0.01373272   -0.00196259    0.26060581
     atom   16 type  1   force =     0.00030159    0.05873004   -0.00586455
     atom   17 type  2   force =    -0.00166971   -0.02545574   -0.24722289
     atom   18 type  2   force =    -0.00897931   -0.00015991    0.27300158
     atom   19 type  1   force =     0.03010906   -0.01126968   -0.00573935
     atom   20 type  2   force =    -0.00014104   -0.02093629    0.26287458
     atom   21 type  1   force =     0.00193886    0.01268626    0.00523061
     atom   22 type  2   force =    -0.00883851    0.00357571   -0.26012010
     atom   23 type  2   force =     0.00530578   -0.01198317    0.26567862
     atom   24 type  1   force =     0.00852894    0.00099233   -0.02027239
     atom   25 type  2   force =     0.00290005    0.00956231   -0.25221275
     atom   26 type  2   force =    -0.00590876   -0.01512911    0.26598266
     atom   27 type  1   force =     0.01740427    0.01580345   -0.00989599
     atom   28 type  2   force =     0.07982396   -0.00473816   -0.32506368
     atom   29 type  2   force =     0.00650476    0.00221330    0.27201745
     atom   30 type  1   force =    -0.00077056    0.02212893    0.01114343
     atom   31 type  2   force =    -0.00891492   -0.00221742   -0.24490553
     atom   32 type  2   force =    -0.00895971   -0.02048768    0.27344618
     atom   33 type  1   force =    -0.00030438    0.00065108    0.00621663
     atom   34 type  2   force =    -0.00028058   -0.04010244   -0.27197859
     atom   35 type  2   force =    -0.00240385   -0.01305481    0.27220993
     atom   36 type  3   force =     0.03950728    0.00230188   -0.13693627
     The ionic contribution  to forces
     atom    1 type  1   force =     0.19972818    0.06127472    5.54627298
     atom    2 type  2   force =    -0.77204222    0.15643760   39.21802997
     atom    3 type  2   force =    -0.18329878   -0.03280466  -36.12476692
     atom    4 type  1   force =    -0.22486344    0.79470530    0.08992258
     atom    5 type  2   force =    -1.22918869    1.50482920   38.66224778
     atom    6 type  2   force =     0.30916833   -0.50336386  -38.07309130
     atom    7 type  1   force =    -2.69060494   -2.65734198    2.53315527
     atom    8 type  2   force =    -1.10335313    0.27117867   37.30813492
     atom    9 type  2   force =     0.32221717    0.00794110  -38.04187438
     atom   10 type  1   force =    -1.14428011   -0.39918866    5.63785386
     atom   11 type  2   force =    -0.58981472   -1.59746863   39.14497710
     atom   12 type  2   force =     0.43211772    0.69458147  -37.84508958
     atom   13 type  1   force =     0.61379117    0.85428209    2.75199435
     atom   14 type  2   force =     0.04707478   -0.07142406   38.51417176
     atom   15 type  2   force =     0.15295139   -0.08927708  -36.80839009
     atom   16 type  1   force =    -0.05424562    4.00348329    0.39551399
     atom   17 type  2   force =     0.98161071    1.50180408   37.87800763
     atom   18 type  2   force =    -0.13414014   -0.64760081  -38.59977083
     atom   19 type  1   force =     2.77722398   -2.34035156    0.63152323
     atom   20 type  2   force =     0.22574173   -0.17301334  -38.48221078
     atom   21 type  1   force =     0.03035936    0.01189008    1.18333161
     atom   22 type  2   force =     0.47917190   -1.70836627   38.43759188
     atom   23 type  2   force =    -0.07826270    0.66724125  -38.27888573
     atom   24 type  1   force =    -0.48623313    0.70296047    5.33721252
     atom   25 type  2   force =     0.77206971    0.09300528   39.22326805
     atom   26 type  2   force =    -0.26541968    0.02280547  -37.36367111
     atom   27 type  1   force =     0.33556023    0.56581431   -2.67752774
     atom   28 type  2   force =     0.85423715    1.04012786   35.25087649
     atom   29 type  2   force =    -0.25779063   -0.43237739  -37.38894940
     atom   30 type  1   force =    -0.32394259   -0.67615448   -0.15501292
     atom   31 type  2   force =     1.35164812    0.13564959   37.26571600
     atom   32 type  2   force =    -0.45881110    0.03321720  -38.66571815
     atom   33 type  1   force =     0.84676870   -0.93002735    2.04715587
     atom   34 type  2   force =     0.24472781   -1.43870792   39.35170622
     atom   35 type  2   force =    -0.29856945    0.48025175  -37.81599525
     atom   36 type  3   force =    -0.68130708    0.09398728    9.91229015
     The local contribution  to forces
     atom    1 type  1   force =    -0.17961484   -0.11528053   -5.53073723
     atom    2 type  2   force =     0.75901347   -0.14894332  -38.97513987
     atom    3 type  2   force =     0.18125908    0.04600065   35.86842287
     atom    4 type  1   force =     0.23762432   -0.80841383   -0.08373350
     atom    5 type  2   force =     1.21361174   -1.48087503  -38.44203377
     atom    6 type  2   force =    -0.30397313    0.50211633   37.83633501
     atom    7 type  1   force =     2.72535862    2.66936124   -2.52915352
     atom    8 type  2   force =     1.09850341   -0.26184872  -37.06553280
     atom    9 type  2   force =    -0.31930756    0.01036548   37.79666661
     atom   10 type  1   force =     1.13564980    0.41263025   -5.66210330
     atom   11 type  2   force =     0.57781469    1.59047579  -38.90968601
     atom   12 type  2   force =    -0.42294119   -0.68039041   37.61156205
     atom   13 type  1   force =    -0.61576107   -0.86491366   -2.75344568
     atom   14 type  2   force =    -0.04870608    0.07765433  -38.26497733
     atom   15 type  2   force =    -0.15217695    0.09201330   36.55957108
     atom   16 type  1   force =     0.05561328   -4.06594443   -0.38676181
     atom   17 type  2   force =    -0.96694988   -1.47576611  -37.65292510
     atom   18 type  2   force =     0.13308481    0.64277823   38.36508217
     atom   19 type  1   force =    -2.79693549    2.35616664   -0.62784634
     atom   20 type  2   force =    -0.22257285    0.18805232   38.24185181
     atom   21 type  1   force =    -0.03717071   -0.01805706   -1.18891517
     atom   22 type  2   force =    -0.47169297    1.70263199  -38.19915260
     atom   23 type  2   force =     0.07245646   -0.65429945   38.04401940
     atom   24 type  1   force =     0.46508600   -0.72461743   -5.33390486
     atom   25 type  2   force =    -0.75700565   -0.08672210  -38.98409065
     atom   26 type  2   force =     0.26003023   -0.00884567   37.11544213
     atom   27 type  1   force =    -0.33998116   -0.57573268    2.70169091
     atom   28 type  2   force =    -0.76877158   -1.03808642  -35.66103224
     atom   29 type  2   force =     0.25487844    0.43271250   37.13889670
     atom   30 type  1   force =     0.32088692    0.66185669    0.13941100
     atom   31 type  2   force =    -1.34020525   -0.12653449  -37.02269232
     atom   32 type  2   force =     0.45657776   -0.01410855   38.42044298
     atom   33 type  1   force =    -0.83280995    0.92530260   -2.06107623
     atom   34 type  2   force =    -0.24188268    1.43313041  -39.11111787
     atom   35 type  2   force =     0.29311287   -0.45958403   37.58085450
     atom   36 type  3   force =     0.46963398   -0.09897781   -9.08564856
     The core correction contribution to forces
     atom    1 type  1   force =     0.00000000    0.00000000    0.00000000
     atom    2 type  2   force =    -0.00025042   -0.00068243    0.02015216
     atom    3 type  2   force =     0.00031812    0.00002811   -0.02109542
     atom    4 type  1   force =     0.00000000    0.00000000    0.00000000
     atom    5 type  2   force =    -0.00132369    0.00177650    0.01989136
     atom    6 type  2   force =     0.00001036   -0.00119765   -0.02078987
     atom    7 type  1   force =     0.00000000    0.00000000    0.00000000
     atom    8 type  2   force =    -0.00045007    0.00108837    0.01968895
     atom    9 type  2   force =    -0.00046836    0.00107077   -0.02097793
     atom   10 type  1   force =     0.00000000    0.00000000    0.00000000
     atom   11 type  2   force =    -0.00079820   -0.00060232    0.02061251
     atom   12 type  2   force =     0.00103758    0.00117469   -0.02068409
     atom   13 type  1   force =     0.00000000    0.00000000    0.00000000
     atom   14 type  2   force =    -0.00052450   -0.00028515    0.02039811
     atom   15 type  2   force =     0.00074959    0.00013302   -0.02053232
     atom   16 type  1   force =     0.00000000    0.00000000    0.00000000
     atom   17 type  2   force =     0.00047868    0.00140301    0.01994596
     atom   18 type  2   force =     0.00048561   -0.00060578   -0.02097832
     atom   19 type  1   force =     0.00000000    0.00000000    0.00000000
     atom   20 type  2   force =     0.00013695    0.00081833   -0.02104630
     atom   21 type  1   force =     0.00000000    0.00000000    0.00000000
     atom   22 type  2   force =     0.00032961   -0.00054524    0.02050583
     atom   23 type  2   force =    -0.00043740    0.00104360   -0.02074634
     atom   24 type  1   force =     0.00000000    0.00000000    0.00000000
     atom   25 type  2   force =     0.00034417   -0.00084108    0.02015707
     atom   26 type  2   force =     0.00006032    0.00076458   -0.02100151
     atom   27 type  1   force =     0.00000000    0.00000000    0.00000000
     atom   28 type  2   force =    -0.00298822    0.00094173    0.02080570
     atom   29 type  2   force =    -0.00057235   -0.00055932   -0.02118522
     atom   30 type  1   force =     0.00000000    0.00000000    0.00000000
     atom   31 type  2   force =     0.00071508    0.00046988    0.01993480
     atom   32 type  2   force =     0.00024386    0.00125694   -0.02101086
     atom   33 type  1   force =     0.00000000    0.00000000    0.00000000
     atom   34 type  2   force =     0.00035986    0.00126371    0.02102535
     atom   35 type  2   force =    -0.00008228    0.00106860   -0.02114484
     atom   36 type  3   force =     0.00000000    0.00000000    0.00000000
     The Hubbard contrib.    to forces
     atom    1 type  1   force =     0.00000000    0.00000000    0.00000000
     atom    2 type  2   force =     0.00000000    0.00000000    0.00000000
     atom    3 type  2   force =     0.00000000    0.00000000    0.00000000
     atom    4 type  1   force =     0.00000000    0.00000000    0.00000000
     atom    5 type  2   force =     0.00000000    0.00000000    0.00000000
     atom    6 type  2   force =     0.00000000    0.00000000    0.00000000
     atom    7 type  1   force =     0.00000000    0.00000000    0.00000000
     atom    8 type  2   force =     0.00000000    0.00000000    0.00000000
     atom    9 type  2   force =     0.00000000    0.00000000    0.00000000
     atom   10 type  1   force =     0.00000000    0.00000000    0.00000000
     atom   11 type  2   force =     0.00000000    0.00000000    0.00000000
     atom   12 type  2   force =     0.00000000    0.00000000    0.00000000
     atom   13 type  1   force =     0.00000000    0.00000000    0.00000000
     atom   14 type  2   force =     0.00000000    0.00000000    0.00000000
     atom   15 type  2   force =     0.00000000    0.00000000    0.00000000
     atom   16 type  1   force =     0.00000000    0.00000000    0.00000000
     atom   17 type  2   force =     0.00000000    0.00000000    0.00000000
     atom   18 type  2   force =     0.00000000    0.00000000    0.00000000
     atom   19 type  1   force =     0.00000000    0.00000000    0.00000000
     atom   20 type  2   force =     0.00000000    0.00000000    0.00000000
     atom   21 type  1   force =     0.00000000    0.00000000    0.00000000
     atom   22 type  2   force =     0.00000000    0.00000000    0.00000000
     atom   23 type  2   force =     0.00000000    0.00000000    0.00000000
     atom   24 type  1   force =     0.00000000    0.00000000    0.00000000
     atom   25 type  2   force =     0.00000000    0.00000000    0.00000000
     atom   26 type  2   force =     0.00000000    0.00000000    0.00000000
     atom   27 type  1   force =     0.00000000    0.00000000    0.00000000
     atom   28 type  2   force =     0.00000000    0.00000000    0.00000000
     atom   29 type  2   force =     0.00000000    0.00000000    0.00000000
     atom   30 type  1   force =     0.00000000    0.00000000    0.00000000
     atom   31 type  2   force =     0.00000000    0.00000000    0.00000000
     atom   32 type  2   force =     0.00000000    0.00000000    0.00000000
     atom   33 type  1   force =     0.00000000    0.00000000    0.00000000
     atom   34 type  2   force =     0.00000000    0.00000000    0.00000000
     atom   35 type  2   force =     0.00000000    0.00000000    0.00000000
     atom   36 type  3   force =     0.00000000    0.00000000    0.00000000
     The SCF correction term to forces
     atom    1 type  1   force =     0.00008232   -0.00005083   -0.00059652
     atom    2 type  2   force =     0.00000397    0.00001593    0.00013727
     atom    3 type  2   force =     0.00001355    0.00001504   -0.00071551
     atom    4 type  1   force =     0.00025625   -0.00000131   -0.00078303
     atom    5 type  2   force =     0.00000882   -0.00002408    0.00019593
     atom    6 type  2   force =     0.00004602   -0.00003020   -0.00078628
     atom    7 type  1   force =     0.00008764   -0.00001077   -0.00065331
     atom    8 type  2   force =     0.00003307   -0.00000123    0.00009559
     atom    9 type  2   force =     0.00004596    0.00000334   -0.00069617
     atom   10 type  1   force =    -0.00002889    0.00003759   -0.00064838
     atom   11 type  2   force =    -0.00000216   -0.00001230    0.00013400
     atom   12 type  2   force =     0.00000899    0.00000031   -0.00072735
     atom   13 type  1   force =    -0.00007419    0.00009060   -0.00066649
     atom   14 type  2   force =    -0.00000128   -0.00002498    0.00013788
     atom   15 type  2   force =    -0.00000068   -0.00002770   -0.00073182
     atom   16 type  1   force =    -0.00013189    0.00000328   -0.00065869
     atom   17 type  2   force =    -0.00008330    0.00000775    0.00012064
     atom   18 type  2   force =    -0.00009867   -0.00000709   -0.00072967
     atom   19 type  1   force =    -0.00014348   -0.00012116   -0.00068762
     atom   20 type  2   force =     0.00000727   -0.00000452   -0.00077244
     atom   21 type  1   force =     0.00003161    0.00014324   -0.00074476
     atom   22 type  2   force =    -0.00000700    0.00000531    0.00016393
     atom   23 type  2   force =     0.00000177    0.00002145   -0.00074398
     atom   24 type  1   force =     0.00001045    0.00012256   -0.00066050
     atom   25 type  2   force =    -0.00000296    0.00002305    0.00014604
     atom   26 type  2   force =    -0.00002079    0.00004047   -0.00073993
     atom   27 type  1   force =    -0.00015388   -0.00002717   -0.00077052
     atom   28 type  2   force =     0.00007430    0.00003382    0.00008648
     atom   29 type  2   force =     0.00005339    0.00002310   -0.00065461
     atom   30 type  1   force =     0.00004466   -0.00017508   -0.00075996
     atom   31 type  2   force =    -0.00004099   -0.00007324    0.00006173
     atom   32 type  2   force =    -0.00004481   -0.00006444   -0.00065948
     atom   33 type  1   force =    -0.00001897    0.00003766   -0.00069582
     atom   34 type  2   force =     0.00000582   -0.00002297    0.00013831
     atom   35 type  2   force =    -0.00000131   -0.00003459   -0.00073521
     atom   36 type  3   force =     0.00000603    0.00000269    0.00000978

     Total force =     1.025801     Total SCF correction =     0.003553

     BFGS Geometry Optimization
     Energy error            =      0.0E+00 Ry
     Gradient error          =      7.1E-01 Ry/Bohr

     number of scf cycles    =   1
     number of bfgs steps    =   0

     energy             new  =   -2205.3978595952 Ry

     new trust radius        =       0.5000000000 bohr
     new conv_thr            =       0.0000010000 Ry


ATOMIC_POSITIONS (angstrom)
Mo            6.5795939597        1.7796776446        2.8248080405
S             8.1708769409        0.8149679610        4.4351456007
S             8.1893991710        0.8146793726        1.2764902243
Mo            8.0938705343        4.4956078049        2.7183159431
S             6.4987248758        3.7207585603        4.3437581169
S             6.5555280859        3.5157693340        1.1224120476
Mo            6.4891551625        7.2189875635        2.6696988949
S             8.0820845805        6.3438456122        4.2491588129
S             8.0863316869        6.3053373679        1.0874130919
Mo            8.1567921133        9.9053149982        2.8340926260
S             6.4962265280        8.9420288223        4.3812942998
S             6.6176248406        9.0492480594        1.1420242072
Mo            3.4228586281        1.7495843718        2.7734214157
S             4.9780121987        0.8171801925        4.3546414678
S             5.0534240723        0.8465807919        1.2232232255
Mo            4.9803119282        4.5118328469        2.6336772869
S             3.4326764704        3.6723207274        4.2789483023
S             3.4344361052        3.5462090430        1.0643366092
Mo            3.4575652053        7.2179236751        2.6296713173
S             4.9843798409        6.3250975051        1.0374931244
Mo            5.0105155287        9.9040075924        2.7429922059
S             3.4705835850        8.9427778820        4.3252138516
S             3.4080910728        9.0657221061        1.0994228307
Mo            0.2915369288        1.7400915554        2.8430666924
S             1.8570735630        0.7981227203        4.4008220491
S             1.8567337131        0.8542955849        1.2079482990
Mo            1.8653249314        4.4977837002        2.6650596929
S             0.3308592333        3.6537784206        4.0795773861
S             0.2323412993        3.5279772016        1.1720507051
Mo            0.2697863482        7.2194124707        2.6997993813
S             1.9033947291        6.3154345631        4.2289743287
S             1.8582674906        6.3102776727        1.0468948449
Mo            1.8492713681        9.9386826935        2.7699002779
S             0.2969712112        9.0739488935        4.4101636246
S             0.2739022413        9.0466499655        1.1558743604
H            -0.0621791601        3.6419978003        5.5925546860



     Writing config-only to output data dir ./MoS2-V-O.save/
     NEW-OLD atomic charge density approx. for the potential

     negative rho (up, down):  1.502E-04 0.000E+00

     total cpu time spent up to now is       94.2 secs

     Self-consistent Calculation

     iteration #  1     ecut=    80.00 Ry     beta= 0.70
     Davidson diagonalization with overlap
     ethr =  1.00E-06,  avg # of iterations = 19.0

     negative rho (up, down):  5.710E-04 0.000E+00

     total cpu time spent up to now is      107.6 secs

     total energy              =   -2205.52598471 Ry
     estimated scf accuracy    <       0.08658223 Ry

     iteration #  2     ecut=    80.00 Ry     beta= 0.70
     Davidson diagonalization with overlap
     ethr =  2.82E-05,  avg # of iterations =  2.0

     negative rho (up, down):  1.235E-03 0.000E+00

     total cpu time spent up to now is      126.3 secs

     total energy              =   -2205.52909611 Ry
     estimated scf accuracy    <       0.01201973 Ry

     iteration #  3     ecut=    80.00 Ry     beta= 0.70
     Davidson diagonalization with overlap
     ethr =  3.92E-06,  avg # of iterations =  5.0

     negative rho (up, down):  1.903E-03 0.000E+00

     total cpu time spent up to now is      146.6 secs

     total energy              =   -2205.53031656 Ry
     estimated scf accuracy    <       0.00137257 Ry

     iteration #  4     ecut=    80.00 Ry     beta= 0.70
     Davidson diagonalization with overlap
     ethr =  4.47E-07,  avg # of iterations =  4.0

     negative rho (up, down):  2.158E-03 0.000E+00

     total cpu time spent up to now is      162.5 secs

     total energy              =   -2205.53046015 Ry
     estimated scf accuracy    <       0.00022899 Ry

     iteration #  5     ecut=    80.00 Ry     beta= 0.70
     Davidson diagonalization with overlap
     ethr =  7.46E-08,  avg # of iterations =  5.0

     negative rho (up, down):  2.325E-03 0.000E+00

     total cpu time spent up to now is      175.9 secs

     total energy              =   -2205.53047606 Ry
     estimated scf accuracy    <       0.00009708 Ry

     iteration #  6     ecut=    80.00 Ry     beta= 0.70
     Davidson diagonalization with overlap
     ethr =  3.16E-08,  avg # of iterations =  5.0

     negative rho (up, down):  2.234E-03 0.000E+00

     total cpu time spent up to now is      190.8 secs

     total energy              =   -2205.53048274 Ry
     estimated scf accuracy    <       0.00002519 Ry

     iteration #  7     ecut=    80.00 Ry     beta= 0.70
     Davidson diagonalization with overlap
     ethr =  8.21E-09,  avg # of iterations = 11.0

     negative rho (up, down):  1.929E-03 0.000E+00

     total cpu time spent up to now is      203.1 secs

     total energy              =   -2205.53048532 Ry
     estimated scf accuracy    <       0.00000850 Ry

     iteration #  8     ecut=    80.00 Ry     beta= 0.70
     Davidson diagonalization with overlap
     ethr =  2.77E-09,  avg # of iterations =  2.0

     negative rho (up, down):  1.362E-03 0.000E+00

     total cpu time spent up to now is      213.5 secs

     total energy              =   -2205.53048308 Ry
     estimated scf accuracy    <       0.00000418 Ry

     iteration #  9     ecut=    80.00 Ry     beta= 0.70
     Davidson diagonalization with overlap
     ethr =  1.36E-09,  avg # of iterations =  2.0

     negative rho (up, down):  8.520E-04 0.000E+00

     total cpu time spent up to now is      222.4 secs

     total energy              =   -2205.53048147 Ry
     estimated scf accuracy    <       0.00000122 Ry

     iteration # 10     ecut=    80.00 Ry     beta= 0.70
     Davidson diagonalization with overlap
     ethr =  3.98E-10,  avg # of iterations =  5.0

     negative rho (up, down):  1.355E-04 0.000E+00

     total cpu time spent up to now is      224.7 secs

     End of self-consistent calculation

          k = 0.0000 0.0000 0.0000 (105382 PWs)   bands (ev):

   -62.8808 -62.8320 -62.8154 -62.7794 -62.7701 -62.7635 -62.7538 -62.7502
   -62.7352 -62.5716 -62.5458 -62.5382 -37.2500 -37.1599 -37.1345 -37.0977
   -37.0719 -37.0643 -37.0490 -37.0353 -37.0235 -37.0059 -37.0034 -36.9774
   -36.9747 -36.9681 -36.9542 -36.9473 -36.9445 -36.9362 -36.9352 -36.9285
   -36.8999 -36.8860 -36.8629 -36.8307 -36.8077 -36.8029 -36.7944 -36.7716
   -36.7647 -36.7378 -36.7298 -36.7102 -36.6941 -36.6906 -36.5314 -36.5145
   -16.4936 -15.6929 -15.0543 -15.0068 -14.8912 -14.7667 -14.6791 -14.4474
   -14.4147 -14.3607 -14.3284 -14.2940 -14.2495 -14.2075 -14.1445 -14.0628
   -14.0547 -14.0476 -13.9402 -13.8863 -13.7681 -13.7388 -13.7142  -8.9253
    -7.7866  -7.5916  -7.3725  -7.3008  -7.2125  -7.1765  -7.0801  -7.0182
    -6.8405  -6.7867  -6.7099  -6.6426  -6.5737  -6.5175  -6.4150  -6.3673
    -6.3122  -6.1966  -6.1798  -5.9747  -5.9669  -5.8919  -5.7876  -5.7646
    -5.6636  -5.6521  -5.6382  -5.6106  -5.5973  -5.5665  -5.5045  -5.4081
    -5.3821  -5.3414  -5.1544  -5.0776  -5.0277  -5.0019  -4.9560  -4.8898
    -4.8573  -4.7815  -4.6151  -4.4879  -4.4073  -4.3675  -4.2463  -4.2364
    -4.1579  -4.0760  -3.9515  -3.8729  -3.7490  -3.7359  -3.6843  -3.6489
    -3.6277  -3.5478  -3.5261  -3.5022  -3.4603  -3.4043  -3.3800  -3.3336
    -3.2836  -3.1832  -3.0770  -2.8660  -2.8207  -2.7768  -2.7269  -2.6848
    -2.6504  -2.6110  -2.5810  -2.5309  -2.4724  -2.2491  -1.9587  -1.9357
    -1.8114  -0.7032  -0.5726  -0.4423  -0.1422  -0.1127  -0.0416   0.0309
     0.1235   0.1410   0.2965   0.3168   0.3489   0.3845   0.4341   0.5038
     0.5507   0.6132   0.6166   0.6952   0.7088   0.7515   0.7782   0.8303
     0.8569   0.8856   0.9141   0.9751   1.0006   1.0468   1.0734   1.3326
     1.4571

     the Fermi energy is    -0.7191 ev

!    total energy              =   -2205.53048054 Ry
     estimated scf accuracy    <       0.00000036 Ry
     smearing contrib. (-TS)   =      -0.00742303 Ry
     internal energy E=F+TS    =   -2205.52305751 Ry

     The total energy is F=E-TS. E is the sum of the following terms:
     one-electron contribution =  -18078.24209213 Ry
     hartree contribution      =    9026.42660487 Ry
     xc contribution           =    -385.45052020 Ry
     ewald contribution        =    7231.74294995 Ry

     convergence has been achieved in  10 iterations

     negative rho (up, down):  1.355E-04 0.000E+00

     Forces acting on atoms (cartesian axes, Ry/au):

     atom    1 type  1   force =     0.00493334   -0.01585612   -0.00013761
     atom    2 type  2   force =    -0.01034475    0.01438119    0.00344731
     atom    3 type  2   force =    -0.01356280    0.00615845   -0.00953482
     atom    4 type  1   force =    -0.01829945    0.01260974   -0.02793203
     atom    5 type  2   force =     0.00438961   -0.00452155   -0.00396711
     atom    6 type  2   force =     0.00242274    0.00738918    0.00441293
     atom    7 type  1   force =    -0.00163865    0.00062256   -0.00183733
     atom    8 type  2   force =     0.00152325   -0.00404180    0.01721140
     atom    9 type  2   force =     0.01312734    0.00407947    0.00685635
     atom   10 type  1   force =    -0.00755803    0.00623982   -0.01444919
     atom   11 type  2   force =     0.00209149   -0.00108648   -0.00510317
     atom   12 type  2   force =    -0.00212593    0.00092915    0.00168134
     atom   13 type  1   force =     0.00582976    0.00229867   -0.00731551
     atom   14 type  2   force =     0.00645249    0.00021675    0.00912391
     atom   15 type  2   force =    -0.01031220    0.00110870   -0.00850076
     atom   16 type  1   force =     0.00016272   -0.00337443   -0.00299467
     atom   17 type  2   force =     0.01222319    0.00165636    0.00286989
     atom   18 type  2   force =    -0.00382585   -0.00750734    0.01315506
     atom   19 type  1   force =     0.00986298    0.00833284   -0.00125552
     atom   20 type  2   force =     0.00264389   -0.00536822    0.00001044
     atom   21 type  1   force =    -0.00493294    0.00522778    0.00121171
     atom   22 type  2   force =     0.00066936   -0.00162064    0.00006251
     atom   23 type  2   force =    -0.00038476    0.00097916    0.00590333
     atom   24 type  1   force =    -0.00496071   -0.04790849   -0.04411864
     atom   25 type  2   force =     0.01378646    0.01340847    0.00629158
     atom   26 type  2   force =    -0.00586891   -0.00224763   -0.00580847
     atom   27 type  1   force =     0.05421957    0.02609719   -0.03263289
     atom   28 type  2   force =    -0.07906755   -0.00953010    0.17169440
     atom   29 type  2   force =     0.00158848    0.00165844   -0.01875978
     atom   30 type  1   force =    -0.00416893    0.00562909   -0.00060216
     atom   31 type  2   force =     0.00147836    0.00642129    0.01712568
     atom   32 type  2   force =    -0.00975740    0.00345227    0.00411162
     atom   33 type  1   force =     0.01002881   -0.00337555   -0.00232002
     atom   34 type  2   force =     0.00122058   -0.03582017   -0.01368210
     atom   35 type  2   force =    -0.00654176    0.00733191    0.01075963
     atom   36 type  3   force =     0.03469622    0.00603004   -0.07497730
     The non-local contrib.  to forces
     atom    1 type  1   force =    -0.00349307    0.03013148   -0.01167568
     atom    2 type  2   force =    -0.00104130    0.00683571   -0.25984893
     atom    3 type  2   force =    -0.01337206   -0.00554786    0.26763855
     atom    4 type  1   force =    -0.01074985    0.01369267    0.00775254
     atom    5 type  2   force =     0.01282787   -0.03397712   -0.24470874
     atom    6 type  2   force =    -0.00254205    0.00708941    0.26060708
     atom    7 type  1   force =    -0.03356605   -0.01050519   -0.01313053
     atom    8 type  2   force =     0.00741894   -0.01118731   -0.24926532
     atom    9 type  2   force =     0.01274815   -0.01620322    0.27492218
     atom   10 type  1   force =    -0.00017440   -0.00484428   -0.00040589
     atom   11 type  2   force =     0.01329300    0.00651813   -0.26174948
     atom   12 type  2   force =    -0.01236928   -0.01328220    0.25927701
     atom   13 type  1   force =     0.00498527    0.01973451   -0.00752185
     atom   14 type  2   force =     0.00860475   -0.00414615   -0.26116086
     atom   15 type  2   force =    -0.01223395   -0.00190885    0.26060750
     atom   16 type  1   force =     0.00411046    0.05313314   -0.01162955
     atom   17 type  2   force =    -0.00423209   -0.02497546   -0.24617166
     atom   18 type  2   force =    -0.00323122   -0.00271394    0.26935255
     atom   19 type  1   force =     0.02744677   -0.01248354   -0.00577862
     atom   20 type  2   force =    -0.00020439   -0.02109800    0.26327024
     atom   21 type  1   force =     0.00171825    0.01426395    0.00529542
     atom   22 type  2   force =    -0.00670378    0.00543948   -0.25961524
     atom   23 type  2   force =     0.00618020   -0.01220530    0.26331518
     atom   24 type  1   force =     0.00556926    0.00740847   -0.01243849
     atom   25 type  2   force =     0.00019412    0.00925594   -0.25824395
     atom   26 type  2   force =    -0.00141265   -0.01500482    0.26418561
     atom   27 type  1   force =     0.00239448    0.00677634   -0.00106817
     atom   28 type  2   force =    -0.07892433   -0.00168268    0.35972785
     atom   29 type  2   force =     0.00659231    0.00137299    0.26882911
     atom   30 type  1   force =    -0.00058592    0.02134845    0.00947210
     atom   31 type  2   force =    -0.00883939   -0.00495382   -0.24865768
     atom   32 type  2   force =    -0.01053408   -0.01602948    0.27083214
     atom   33 type  1   force =    -0.00116788    0.00074882    0.00689176
     atom   34 type  2   force =    -0.00151660   -0.03303180   -0.27566933
     atom   35 type  2   force =    -0.00163212   -0.01337267    0.27079325
     atom   36 type  3   force =     0.01101823    0.00071794   -0.03670675
     The ionic contribution  to forces
     atom    1 type  1   force =    -0.02315250    0.21668834    5.77753080
     atom    2 type  2   force =    -0.63574481    0.16378592   39.44162352
     atom    3 type  2   force =    -0.21799189   -0.06669858  -36.22891794
     atom    4 type  1   force =    -1.09867403    1.19449888    0.38316573
     atom    5 type  2   force =    -1.10042680    1.49366039   38.77468235
     atom    6 type  2   force =     0.23905313   -0.52878511  -38.03235719
     atom    7 type  1   force =    -2.64376416   -2.68987461    2.60057597
     atom    8 type  2   force =    -1.08925170    0.19509920   37.52400606
     atom    9 type  2   force =     0.26644568    0.03896947  -38.01084369
     atom   10 type  1   force =    -1.00537633   -0.47896107    5.54916146
     atom   11 type  2   force =    -0.55158130   -1.59540846   39.18602114
     atom   12 type  2   force =     0.38568539    0.65619477  -37.83819720
     atom   13 type  1   force =     0.73996450    0.66895452    2.80864496
     atom   14 type  2   force =     0.01131219   -0.05083096   38.62765853
     atom   15 type  2   force =     0.16825077   -0.06601790  -36.83275579
     atom   16 type  1   force =     0.06391538    4.03180214    0.53523219
     atom   17 type  2   force =     1.00921330    1.47563058   38.09169877
     atom   18 type  2   force =    -0.05776581   -0.61224516  -38.59969197
     atom   19 type  1   force =     2.74250180   -2.37500938    0.69013904
     atom   20 type  2   force =     0.22119605   -0.18306137  -38.48487041
     atom   21 type  1   force =     0.03850641    0.00101594    1.34032766
     atom   22 type  2   force =     0.47175764   -1.69546291   38.52244449
     atom   23 type  2   force =    -0.06657762    0.63954590  -38.27567838
     atom   24 type  1   force =    -0.51343731   -0.41540306    5.27457096
     atom   25 type  2   force =     0.67576872    0.07755369   39.37352111
     atom   26 type  2   force =    -0.20384696   -0.03608902  -37.37784417
     atom   27 type  1   force =     1.41894195    1.33765311   -2.82761793
     atom   28 type  2   force =    -0.02110457    0.98302719   34.79773885
     atom   29 type  2   force =    -0.27023331   -0.40840829  -37.65814785
     atom   30 type  1   force =    -0.32195543   -0.62443392   -0.04074065
     atom   31 type  2   force =     1.31978189    0.16498909   37.48548952
     atom   32 type  2   force =    -0.40630920    0.08487675  -38.64782611
     atom   33 type  1   force =     0.72816085   -0.86498241    2.20920524
     atom   34 type  2   force =     0.20279812   -1.30432443   39.35062715
     atom   35 type  2   force =    -0.26236276    0.46614413  -37.75649173
     atom   36 type  3   force =    -0.21369728    0.10590663    8.26791549
     The local contribution  to forces
     atom    1 type  1   force =     0.03170114   -0.26291653   -5.76602794
     atom    2 type  2   force =     0.62659542   -0.15561995  -39.19848979
     atom    3 type  2   force =     0.21723366    0.07828957   35.97258438
     atom    4 type  1   force =     1.09128108   -1.19549593   -0.41896783
     atom    5 type  2   force =     1.09314358   -1.46616637  -38.55361768
     atom    6 type  2   force =    -0.23424258    0.52993128   37.79672488
     atom    7 type  1   force =     2.67586824    2.70116393   -2.58930877
     atom    8 type  2   force =     1.08381862   -0.18889178  -37.27742708
     atom    9 type  2   force =    -0.26553901   -0.01957251   37.76360788
     atom   10 type  1   force =     0.99786992    0.48999013   -5.56335809
     atom   11 type  2   force =     0.54101052    1.58843230  -38.94986862
     atom   12 type  2   force =    -0.37645993   -0.64315264   37.60118804
     atom   13 type  1   force =    -0.73917353   -0.68651271   -2.80863046
     atom   14 type  2   force =    -0.01295138    0.05545005  -38.37778555
     atom   15 type  2   force =    -0.16704470    0.06886523   36.58412050
     atom   16 type  1   force =    -0.06789542   -4.08832998   -0.52670107
     atom   17 type  2   force =    -0.99332196   -1.45037648  -37.86251598
     atom   18 type  2   force =     0.05695588    0.60780160   38.36422479
     atom   19 type  1   force =    -2.76018680    2.39604757   -0.68567091
     atom   20 type  2   force =    -0.21845345    0.19804074   38.24255870
     atom   21 type  1   force =    -0.04517137   -0.00996694   -1.34436396
     atom   22 type  2   force =    -0.46461285    1.68906139  -38.28312166
     atom   23 type  2   force =     0.06045364   -0.62739105   38.03889760
     atom   24 type  1   force =     0.50285087    0.36003674   -5.30646426
     atom   25 type  2   force =    -0.66251133   -0.07266766  -39.12933055
     atom   26 type  2   force =     0.19957101    0.04809357   37.12868342
     atom   27 type  1   force =    -1.36724050   -1.31833419    2.79585243
     atom   28 type  2   force =     0.01625340   -0.99163058  -34.97328344
     atom   29 type  2   force =     0.26576402    0.40914613   37.39124471
     atom   30 type  1   force =     0.31830502    0.60871022    0.03060885
     atom   31 type  2   force =    -1.31016937   -0.15412400  -37.23969129
     atom   32 type  2   force =     0.40668736   -0.06639495   38.40186624
     atom   33 type  1   force =    -0.71684367    0.86077126   -2.21846265
     atom   34 type  2   force =    -0.20040213    1.30042576  -39.10968281
     atom   35 type  2   force =     0.25752823   -0.44656871   37.51752899
     atom   36 type  3   force =     0.23736888   -0.10059695   -8.30613401
     The core correction contribution to forces
     atom    1 type  1   force =     0.00000000    0.00000000    0.00000000
     atom    2 type  2   force =    -0.00026530   -0.00067812    0.02018708
     atom    3 type  2   force =     0.00054227    0.00012670   -0.02088815
     atom    4 type  1   force =     0.00000000    0.00000000    0.00000000
     atom    5 type  2   force =    -0.00120351    0.00190976    0.01979508
     atom    6 type  2   force =     0.00019866   -0.00093065   -0.02074053
     atom    7 type  1   force =     0.00000000    0.00000000    0.00000000
     atom    8 type  2   force =    -0.00047711    0.00109189    0.01996098
     atom    9 type  2   force =    -0.00046903    0.00095149   -0.02092814
     atom   10 type  1   force =     0.00000000    0.00000000    0.00000000
     atom   11 type  2   force =    -0.00063818   -0.00065510    0.02064752
     atom   12 type  2   force =     0.00105614    0.00115558   -0.02065038
     atom   13 type  1   force =     0.00000000    0.00000000    0.00000000
     atom   14 type  2   force =    -0.00049218   -0.00032551    0.02053059
     atom   15 type  2   force =     0.00070308    0.00015725   -0.02052826
     atom   16 type  1   force =     0.00000000    0.00000000    0.00000000
     atom   17 type  2   force =     0.00060701    0.00133315    0.01997928
     atom   18 type  2   force =     0.00016111   -0.00045265   -0.02087537
     atom   19 type  1   force =     0.00000000    0.00000000    0.00000000
     atom   20 type  2   force =     0.00013519    0.00080255   -0.02108152
     atom   21 type  1   force =     0.00000000    0.00000000    0.00000000
     atom   22 type  2   force =     0.00021673   -0.00063585    0.02050772
     atom   23 type  2   force =    -0.00046164    0.00106105   -0.02070015
     atom   24 type  1   force =     0.00000000    0.00000000    0.00000000
     atom   25 type  2   force =     0.00043134   -0.00082910    0.02041545
     atom   26 type  2   force =    -0.00015241    0.00076200   -0.02091643
     atom   27 type  1   force =     0.00000000    0.00000000    0.00000000
     atom   28 type  2   force =     0.00475628    0.00075653   -0.01267131
     atom   29 type  2   force =    -0.00053461   -0.00048156   -0.02085992
     atom   30 type  1   force =     0.00000000    0.00000000    0.00000000
     atom   31 type  2   force =     0.00067787    0.00063804    0.02009145
     atom   32 type  2   force =     0.00032302    0.00101411   -0.02088432
     atom   33 type  1   force =     0.00000000    0.00000000    0.00000000
     atom   34 type  2   force =     0.00037283    0.00101449    0.02116947
     atom   35 type  2   force =    -0.00009294    0.00109367   -0.02112564
     atom   36 type  3   force =     0.00000000    0.00000000    0.00000000
     The Hubbard contrib.    to forces
     atom    1 type  1   force =     0.00000000    0.00000000    0.00000000
     atom    2 type  2   force =     0.00000000    0.00000000    0.00000000
     atom    3 type  2   force =     0.00000000    0.00000000    0.00000000
     atom    4 type  1   force =     0.00000000    0.00000000    0.00000000
     atom    5 type  2   force =     0.00000000    0.00000000    0.00000000
     atom    6 type  2   force =     0.00000000    0.00000000    0.00000000
     atom    7 type  1   force =     0.00000000    0.00000000    0.00000000
     atom    8 type  2   force =     0.00000000    0.00000000    0.00000000
     atom    9 type  2   force =     0.00000000    0.00000000    0.00000000
     atom   10 type  1   force =     0.00000000    0.00000000    0.00000000
     atom   11 type  2   force =     0.00000000    0.00000000    0.00000000
     atom   12 type  2   force =     0.00000000    0.00000000    0.00000000
     atom   13 type  1   force =     0.00000000    0.00000000    0.00000000
     atom   14 type  2   force =     0.00000000    0.00000000    0.00000000
     atom   15 type  2   force =     0.00000000    0.00000000    0.00000000
     atom   16 type  1   force =     0.00000000    0.00000000    0.00000000
     atom   17 type  2   force =     0.00000000    0.00000000    0.00000000
     atom   18 type  2   force =     0.00000000    0.00000000    0.00000000
     atom   19 type  1   force =     0.00000000    0.00000000    0.00000000
     atom   20 type  2   force =     0.00000000    0.00000000    0.00000000
     atom   21 type  1   force =     0.00000000    0.00000000    0.00000000
     atom   22 type  2   force =     0.00000000    0.00000000    0.00000000
     atom   23 type  2   force =     0.00000000    0.00000000    0.00000000
     atom   24 type  1   force =     0.00000000    0.00000000    0.00000000
     atom   25 type  2   force =     0.00000000    0.00000000    0.00000000
     atom   26 type  2   force =     0.00000000    0.00000000    0.00000000
     atom   27 type  1   force =     0.00000000    0.00000000    0.00000000
     atom   28 type  2   force =     0.00000000    0.00000000    0.00000000
     atom   29 type  2   force =     0.00000000    0.00000000    0.00000000
     atom   30 type  1   force =     0.00000000    0.00000000    0.00000000
     atom   31 type  2   force =     0.00000000    0.00000000    0.00000000
     atom   32 type  2   force =     0.00000000    0.00000000    0.00000000
     atom   33 type  1   force =     0.00000000    0.00000000    0.00000000
     atom   34 type  2   force =     0.00000000    0.00000000    0.00000000
     atom   35 type  2   force =     0.00000000    0.00000000    0.00000000
     atom   36 type  3   force =     0.00000000    0.00000000    0.00000000
     The SCF correction term to forces
     atom    1 type  1   force =    -0.00012149    0.00023706    0.00004963
     atom    2 type  2   force =     0.00011199    0.00005408   -0.00001014
     atom    3 type  2   force =     0.00002597   -0.00001492    0.00006276
     atom    4 type  1   force =    -0.00015592   -0.00008943    0.00013194
     atom    5 type  2   force =     0.00004921    0.00004825   -0.00010371
     atom    6 type  2   force =    -0.00004367    0.00008072    0.00019310
     atom    7 type  1   force =    -0.00017594   -0.00016510    0.00004041
     atom    8 type  2   force =     0.00001523   -0.00015734   -0.00004881
     atom    9 type  2   force =    -0.00005770   -0.00006930    0.00011253
     atom   10 type  1   force =     0.00012352    0.00005151    0.00016774
     atom   11 type  2   force =     0.00000819    0.00002311   -0.00013932
     atom   12 type  2   force =    -0.00003750    0.00001010    0.00007829
     atom   13 type  1   force =     0.00005426    0.00011880    0.00020625
     atom   14 type  2   force =    -0.00002014    0.00006579   -0.00010439
     atom   15 type  2   force =     0.00001334    0.00000944    0.00006969
     atom   16 type  1   force =     0.00003305    0.00001672    0.00011817
     atom   17 type  2   force =    -0.00004233    0.00004103   -0.00010610
     atom   18 type  2   force =     0.00005494    0.00009928    0.00015948
     atom   19 type  1   force =     0.00010196   -0.00022535    0.00006937
     atom   20 type  2   force =    -0.00002877   -0.00005567    0.00014784
     atom   21 type  1   force =     0.00001451   -0.00008871   -0.00003300
     atom   22 type  2   force =     0.00001238   -0.00002628   -0.00013838
     atom   23 type  2   force =     0.00002139   -0.00003498    0.00008349
     atom   24 type  1   force =     0.00005722    0.00004584    0.00022757
     atom   25 type  2   force =    -0.00009565    0.00009207   -0.00005607
     atom   26 type  2   force =    -0.00002715   -0.00001289    0.00009752
     atom   27 type  1   force =     0.00012439   -0.00000161    0.00021519
     atom   28 type  2   force =    -0.00004759   -0.00000410    0.00019686
     atom   29 type  2   force =     0.00000081    0.00002563    0.00018858
     atom   30 type  1   force =     0.00006814    0.00000080    0.00007195
     atom   31 type  2   force =     0.00002812   -0.00013155   -0.00009191
     atom   32 type  2   force =     0.00007624   -0.00001771    0.00013808
     atom   33 type  1   force =    -0.00011975    0.00008325    0.00006005
     atom   34 type  2   force =    -0.00003090    0.00009227   -0.00011217
     atom   35 type  2   force =     0.00001856    0.00003194    0.00006918
     atom   36 type  3   force =     0.00000713   -0.00000112   -0.00003762

     Total force =     0.243169     Total SCF correction =     0.001004
     Energy error            =      1.3E-01 Ry
     Gradient error          =      1.7E-01 Ry/Bohr

     number of scf cycles    =   2
     number of bfgs steps    =   1

     energy             old  =   -2205.3978595952 Ry
     energy             new  =   -2205.5304805416 Ry

     CASE: energy            _new < energy            _old

     new trust radius        =       0.1144519407 bohr
     new conv_thr            =       0.0000001717 Ry


ATOMIC_POSITIONS (angstrom)
Mo            6.5823025976        1.7717518067        2.8248583982
S             8.1656549864        0.8219532149        4.4367569167
S             8.1829204330        0.8177847829        1.2720611477
Mo            8.0855033950        4.5013406790        2.7057826078
S             6.5005878616        3.7185625484        4.3416913408
S             6.5568294006        3.5194863926        1.1245088871
Mo            6.4883373711        7.2193210456        2.6686605613
S             8.0828051014        6.3420226310        4.2575570834
S             8.0927666521        6.3072361058        1.0908436996
Mo            8.1530187538        9.9084278382        2.8266808835
S             6.4972707017        8.9414528502        4.3788210430
S             6.6166361809        9.0497183417        1.1429856548
Mo            3.4256001180        1.7508732169        2.7698322348
S             4.9811930729        0.8173008662        4.3591472789
S             5.0483539700        0.8471109107        1.2190630053
Mo            4.9804387622        4.5101832034        2.6324048502
S             3.4386483256        3.6731363243        4.2801675665
S             3.4323768395        3.5426327905        1.0708391090
Mo            3.4623648683        7.2218312036        2.6290088365
S             4.9856811927        6.3225025938        1.0375209094
Mo            5.0081250078        9.9065944763        2.7434985758
S             3.4708489670        8.9419540427        4.3252056120
S             3.4078851646        9.0662337422        1.1024053170
Mo            0.2888634041        1.7177970206        2.8225794856
S             1.8639208645        0.8046857282        4.4039078722
S             1.8536980951        0.8532706266        1.2051919442
Mo            1.8901936514        4.5097426869        2.6508298554
S             0.3009002335        3.6494259905        4.1320338191
S             0.2331638369        3.5287944025        1.1636039760
Mo            0.2677768513        7.2222147166        2.6993452247
S             1.9041721396        6.3185810385        4.2373178773
S             1.8534896108        6.3118262880        1.0489720383
Mo            1.8542634857        9.9370218122        2.7685615623
S             0.2976230431        9.0562669827        4.4036435028
S             0.2706789927        9.0502537160        1.1612485857
H            -0.0525469206        3.6446204608        5.5828026092



     Writing config-only to output data dir ./MoS2-V-O.save/
     NEW-OLD atomic charge density approx. for the potential

     negative rho (up, down):  1.471E-04 0.000E+00

     total cpu time spent up to now is      228.3 secs

     Self-consistent Calculation

     iteration #  1     ecut=    80.00 Ry     beta= 0.70
     Davidson diagonalization with overlap
     c_bands:  1 eigenvalues not converged
     ethr =  1.00E-06,  avg # of iterations = 20.0

     negative rho (up, down):  4.352E-05 0.000E+00

     total cpu time spent up to now is      244.9 secs

     total energy              =   -2205.55938329 Ry
     estimated scf accuracy    <       0.00967409 Ry

     iteration #  2     ecut=    80.00 Ry     beta= 0.70
     Davidson diagonalization with overlap
     ethr =  3.15E-06,  avg # of iterations =  2.0

     negative rho (up, down):  3.392E-05 0.000E+00

     total cpu time spent up to now is      262.9 secs

     total energy              =   -2205.55995512 Ry
     estimated scf accuracy    <       0.00151685 Ry

     iteration #  3     ecut=    80.00 Ry     beta= 0.70
     Davidson diagonalization with overlap
     ethr =  4.94E-07,  avg # of iterations =  2.0

     negative rho (up, down):  2.768E-05 0.000E+00

     total cpu time spent up to now is      284.7 secs

     total energy              =   -2205.56001092 Ry
     estimated scf accuracy    <       0.00052307 Ry

     iteration #  4     ecut=    80.00 Ry     beta= 0.70
     Davidson diagonalization with overlap
     ethr =  1.70E-07,  avg # of iterations =  3.0

     negative rho (up, down):  2.690E-05 0.000E+00

     total cpu time spent up to now is      300.3 secs

     total energy              =   -2205.56005163 Ry
     estimated scf accuracy    <       0.00009219 Ry

     iteration #  5     ecut=    80.00 Ry     beta= 0.70
     Davidson diagonalization with overlap
     ethr =  3.00E-08,  avg # of iterations =  5.0

     negative rho (up, down):  2.664E-05 0.000E+00

     total cpu time spent up to now is      313.7 secs

     total energy              =   -2205.56006839 Ry
     estimated scf accuracy    <       0.00001746 Ry

     iteration #  6     ecut=    80.00 Ry     beta= 0.70
     Davidson diagonalization with overlap
     ethr =  5.69E-09,  avg # of iterations =  4.0

     negative rho (up, down):  2.548E-05 0.000E+00

     total cpu time spent up to now is      326.9 secs

     total energy              =   -2205.56007204 Ry
     estimated scf accuracy    <       0.00000581 Ry

     iteration #  7     ecut=    80.00 Ry     beta= 0.70
     Davidson diagonalization with overlap
     ethr =  1.89E-09,  avg # of iterations =  4.0

     negative rho (up, down):  2.547E-05 0.000E+00

     total cpu time spent up to now is      335.8 secs

     total energy              =   -2205.56007357 Ry
     estimated scf accuracy    <       0.00000211 Ry

     iteration #  8     ecut=    80.00 Ry     beta= 0.70
     Davidson diagonalization with overlap
     ethr =  6.87E-10,  avg # of iterations =  5.0

     negative rho (up, down):  3.581E-05 0.000E+00

     total cpu time spent up to now is      345.8 secs

     total energy              =   -2205.56007464 Ry
     estimated scf accuracy    <       0.00000074 Ry

     iteration #  9     ecut=    80.00 Ry     beta= 0.70
     Davidson diagonalization with overlap
     ethr =  2.42E-10,  avg # of iterations =  5.0

     negative rho (up, down):  5.597E-05 0.000E+00

     total cpu time spent up to now is      355.4 secs

     total energy              =   -2205.56007478 Ry
     estimated scf accuracy    <       0.00000025 Ry

     iteration # 10     ecut=    80.00 Ry     beta= 0.70
     Davidson diagonalization with overlap
     ethr =  8.21E-11,  avg # of iterations =  2.0

     negative rho (up, down):  1.362E-04 0.000E+00

     total cpu time spent up to now is      357.6 secs

     End of self-consistent calculation

          k = 0.0000 0.0000 0.0000 (105382 PWs)   bands (ev):

   -62.8943 -62.8495 -62.8289 -62.7622 -62.7527 -62.7470 -62.7356 -62.7316
   -62.7162 -62.5377 -62.5124 -62.4948 -37.2191 -37.1553 -37.1348 -37.0997
   -37.0738 -37.0634 -37.0500 -37.0256 -37.0209 -37.0017 -36.9960 -36.9724
   -36.9586 -36.9543 -36.9406 -36.9311 -36.9292 -36.9197 -36.9168 -36.9111
   -36.8805 -36.8711 -36.8535 -36.8133 -36.7920 -36.7880 -36.7663 -36.7500
   -36.7330 -36.7088 -36.6963 -36.6750 -36.6570 -36.6561 -36.4935 -36.4818
   -16.4902 -15.6930 -15.0438 -14.9979 -14.8802 -14.7555 -14.6572 -14.4284
   -14.3994 -14.3438 -14.3082 -14.2845 -14.2415 -14.1961 -14.1286 -14.0584
   -14.0385 -14.0360 -13.9326 -13.8723 -13.7649 -13.7303 -13.6950  -9.0743
    -7.7232  -7.4860  -7.3478  -7.2871  -7.1990  -7.1549  -7.0703  -7.0293
    -6.8114  -6.7652  -6.7021  -6.6436  -6.5621  -6.5085  -6.4061  -6.3483
    -6.3156  -6.1866  -6.1671  -5.9551  -5.9248  -5.8719  -5.7702  -5.7414
    -5.6543  -5.6425  -5.6166  -5.5950  -5.5840  -5.5608  -5.4921  -5.3753
    -5.3648  -5.3105  -5.1194  -5.0622  -5.0132  -4.9788  -4.9501  -4.8839
    -4.8397  -4.7624  -4.5890  -4.4980  -4.3988  -4.3427  -4.2348  -4.2042
    -4.1560  -4.0808  -3.9496  -3.8459  -3.7441  -3.7274  -3.6789  -3.6491
    -3.6055  -3.5436  -3.5126  -3.4714  -3.4590  -3.3961  -3.3613  -3.3284
    -3.2666  -3.1718  -3.0749  -2.8476  -2.8036  -2.7550  -2.6986  -2.6631
    -2.6252  -2.6047  -2.5687  -2.5120  -2.4576  -2.2204  -1.9403  -1.9198
    -1.7951  -0.6566  -0.5436  -0.3736  -0.1328  -0.1105  -0.0223   0.0392
     0.1178   0.1302   0.3128   0.3504   0.3690   0.3938   0.4451   0.5067
     0.5640   0.6317   0.6405   0.7013   0.7257   0.7460   0.7742   0.8365
     0.8811   0.9007   0.9490   0.9868   1.0046   1.0692   1.0830   1.3629
     1.4713

     the Fermi energy is    -0.6769 ev

!    total energy              =   -2205.56007463 Ry
     estimated scf accuracy    <       0.00000009 Ry
     smearing contrib. (-TS)   =      -0.00771609 Ry
     internal energy E=F+TS    =   -2205.55235854 Ry

     The total energy is F=E-TS. E is the sum of the following terms:
     one-electron contribution =  -18070.65048817 Ry
     hartree contribution      =    9022.83691420 Ry
     xc contribution           =    -385.42913882 Ry
     ewald contribution        =    7227.69035426 Ry

     convergence has been achieved in  10 iterations

     negative rho (up, down):  1.362E-04 0.000E+00

     Forces acting on atoms (cartesian axes, Ry/au):

     atom    1 type  1   force =     0.00209120   -0.00809984   -0.00151034
     atom    2 type  2   force =    -0.00695542    0.00757278   -0.00047294
     atom    3 type  2   force =    -0.01395343    0.00226192   -0.01504967
     atom    4 type  1   force =    -0.00828556    0.00754527   -0.00872700
     atom    5 type  2   force =     0.00346256   -0.00412178   -0.00666714
     atom    6 type  2   force =     0.00110387    0.00369257   -0.00007546
     atom    7 type  1   force =     0.00052676   -0.00023648    0.00070316
     atom    8 type  2   force =    -0.00029667   -0.00320773    0.01057328
     atom    9 type  2   force =     0.00994851    0.00589596    0.00287619
     atom   10 type  1   force =    -0.00515505    0.00679255   -0.00555441
     atom   11 type  2   force =     0.00169532   -0.00048713   -0.00593786
     atom   12 type  2   force =    -0.00342106    0.00107448    0.00022434
     atom   13 type  1   force =     0.00223460    0.00274799   -0.00171194
     atom   14 type  2   force =     0.00478242    0.00052578    0.00604570
     atom   15 type  2   force =    -0.00773541    0.00034159   -0.00767241
     atom   16 type  1   force =     0.00321769   -0.00278921    0.00064408
     atom   17 type  2   force =     0.00997226    0.00267510    0.00042528
     atom   18 type  2   force =    -0.00040747   -0.00633549    0.00496551
     atom   19 type  1   force =     0.00537369    0.00369390    0.00116069
     atom   20 type  2   force =     0.00251460   -0.00383233   -0.00157730
     atom   21 type  1   force =    -0.00292435    0.00352594    0.00161335
     atom   22 type  2   force =     0.00135055   -0.00080481    0.00022794
     atom   23 type  2   force =     0.00052721    0.00121437    0.00291636
     atom   24 type  1   force =    -0.00450434   -0.01911219   -0.01440271
     atom   25 type  2   force =     0.00988083    0.00975732   -0.00009776
     atom   26 type  2   force =    -0.00214208   -0.00460184   -0.00882268
     atom   27 type  1   force =     0.01200331    0.00653069    0.00293852
     atom   28 type  2   force =    -0.04740918   -0.00731208    0.10483949
     atom   29 type  2   force =     0.00525822    0.00210788   -0.00821220
     atom   30 type  1   force =    -0.00141312   -0.00160097    0.00367347
     atom   31 type  2   force =     0.00351123    0.00512746    0.01019194
     atom   32 type  2   force =    -0.00545273    0.00706453    0.00084469
     atom   33 type  1   force =     0.00687961   -0.00099212    0.00215431
     atom   34 type  2   force =    -0.00028550   -0.02755453   -0.01429898
     atom   35 type  2   force =    -0.00491423    0.00708990    0.00667126
     atom   36 type  3   force =     0.02892116    0.00385054   -0.06289874
     The non-local contrib.  to forces
     atom    1 type  1   force =    -0.00281794    0.02845763   -0.01317267
     atom    2 type  2   force =     0.00070251    0.00153129   -0.25971110
     atom    3 type  2   force =    -0.01192357   -0.00908457    0.26347018
     atom    4 type  1   force =    -0.01578612    0.01576348    0.00339119
     atom    5 type  2   force =     0.01301765   -0.03373151   -0.24663941
     atom    6 type  2   force =    -0.00339420    0.00432324    0.25907599
     atom    7 type  1   force =    -0.03527058   -0.01062278   -0.01309883
     atom    8 type  2   force =     0.00547614   -0.00979593   -0.25148627
     atom    9 type  2   force =     0.00910198   -0.01498173    0.27216790
     atom   10 type  1   force =    -0.00162252   -0.00567117   -0.00146591
     atom   11 type  2   force =     0.01282938    0.00678274   -0.26207201
     atom   12 type  2   force =    -0.01276247   -0.01312411    0.25880791
     atom   13 type  1   force =     0.00514333    0.02113788   -0.00839149
     atom   14 type  2   force =     0.00762708   -0.00425856   -0.26164561
     atom   15 type  2   force =    -0.01027304   -0.00266768    0.26072252
     atom   16 type  1   force =     0.00143782    0.05477406   -0.01215060
     atom   17 type  2   force =    -0.00384421   -0.02473358   -0.24601861
     atom   18 type  2   force =    -0.00002988   -0.00160558    0.26414754
     atom   19 type  1   force =     0.02928809   -0.01113368   -0.00713207
     atom   20 type  2   force =    -0.00041083   -0.02019722    0.26233298
     atom   21 type  1   force =     0.00079169    0.01425931    0.00420690
     atom   22 type  2   force =    -0.00626582    0.00587122   -0.25908205
     atom   23 type  2   force =     0.00659257   -0.01194080    0.26148670
     atom   24 type  1   force =     0.00504816   -0.00020462   -0.01509297
[...]
     atom   27 type  1   force =     0.01977409    0.01676302   -0.00726070
     atom   28 type  2   force =    -0.01329763   -0.00624346    0.27070867
     atom   29 type  2   force =    -0.00264017   -0.01268619    0.28298370
     atom   30 type  1   force =     0.00008882    0.01978934    0.00569262
     atom   31 type  2   force =    -0.00923631   -0.00957319   -0.25608899
     atom   32 type  2   force =     0.00389798   -0.01831497    0.26940768
     atom   33 type  1   force =     0.00397762   -0.00458660    0.00287826
     atom   34 type  2   force =     0.00086688   -0.01021557   -0.27075753
     atom   35 type  2   force =    -0.00134188   -0.01501457    0.26833298
     atom   36 type  3   force =     0.00434202   -0.00234638   -0.06399262
     The ionic contribution  to forces
     atom    1 type  1   force =     0.02759693    0.67612963    1.56364570
     atom    2 type  2   force =    -0.32673513    0.12938796   38.99901182
     atom    3 type  2   force =     0.12289151    0.03615817  -37.69870770
     atom    4 type  1   force =     0.20741618    0.70282176   -0.08246864
     atom    5 type  2   force =    -0.90719132    1.22645310   38.23908587
     atom    6 type  2   force =     0.36172353   -0.28645436  -38.53545429
     atom    7 type  1   force =    -2.27073353   -2.78794882    2.64217319
     atom    8 type  2   force =    -1.23512243    0.12009271   38.08464558
     atom    9 type  2   force =     0.39460819    0.06990838  -37.77938709
     atom   10 type  1   force =    -0.26252411   -0.76000517    3.03613561
     atom   11 type  2   force =    -0.36808269   -1.43531554   38.83862908
     atom   12 type  2   force =     0.29632582    0.26916787  -38.12538698
     atom   13 type  1   force =    -0.09667916    0.74653588    2.60381075
     atom   14 type  2   force =     0.03664368    0.06955746   38.51324387
     atom   15 type  2   force =    -0.04618482   -0.07369810  -37.60252628
     atom   16 type  1   force =    -0.10381881    4.19497662   -0.41428016
     atom   17 type  2   force =     0.90270894    1.25550023   38.42884093
     atom   18 type  2   force =    -0.43887584   -0.25824354  -38.26504153
     atom   19 type  1   force =     2.29654837   -2.91536252    3.03322796
     atom   20 type  2   force =    -0.05976366   -0.14360274  -38.44372732
     atom   21 type  1   force =     0.05362949   -0.02691643    0.99312682
     atom   22 type  2   force =     0.39281208   -1.41856216   38.94859133
     atom   23 type  2   force =    -0.33769903    0.25585878  -38.06876867
     atom   24 type  1   force =     0.08393537    1.09366546    2.81094409
     atom   25 type  2   force =     0.28752173    0.19100440   39.15805733
     atom   26 type  2   force =    -0.09241722    0.04616426  -37.53743231
     atom   27 type  1   force =    -0.15980240    0.63433793    1.61585049
     atom   28 type  2   force =     0.13609758    0.47409882   35.04365221
     atom   29 type  2   force =     0.09343363   -0.04423690  -36.78122829
     atom   30 type  1   force =    -0.01180791   -1.02309950    2.29631824
     atom   31 type  2   force =     1.21033304    0.09487930   38.26556458
     atom   32 type  2   force =    -0.33717912   -0.01695148  -37.59600616
     atom   33 type  1   force =     0.25438538   -0.71776606    3.53150936
     atom   34 type  2   force =    -0.04134428   -0.55018227   38.88673030
     atom   35 type  2   force =     0.01821051    0.05444208  -37.29560634
     atom   36 type  3   force =    -0.08086048    0.11720480    8.69322665
     The local contribution  to forces
     atom    1 type  1   force =    -0.02332365   -0.70169485   -1.55816034
     atom    2 type  2   force =     0.31858570   -0.12538034  -38.76313696
     atom    3 type  2   force =    -0.12138154   -0.02474289   37.45094314
     atom    4 type  1   force =    -0.18786457   -0.71947340    0.08747720
     atom    5 type  2   force =     0.89343078   -1.20351334  -38.01439204
     atom    6 type  2   force =    -0.35739477    0.28965110   38.29599484
     atom    7 type  1   force =     2.30440919    2.79925133   -2.62804173
     atom    8 type  2   force =     1.22601561   -0.11395188  -37.84944679
     atom    9 type  2   force =    -0.39054425   -0.05121724   37.53167658
     atom   10 type  1   force =     0.26530681    0.76531627   -3.03906701
     atom   11 type  2   force =     0.35956526    1.43421222  -38.59874855
     atom   12 type  2   force =    -0.28858362   -0.26150292   37.88645746
     atom   13 type  1   force =     0.09351624   -0.77241062   -2.59815687
     atom   14 type  2   force =    -0.03574142   -0.06320906  -38.27043243
     atom   15 type  2   force =     0.04572152    0.07646938   37.35963984
     atom   16 type  1   force =     0.10341666   -4.24833362    0.41940223
     atom   17 type  2   force =    -0.88700497   -1.23323477  -38.20345136
     atom   18 type  2   force =     0.43312920    0.26137657   38.02591370
     atom   19 type  1   force =    -2.33016417    2.92643553   -3.01969300
     atom   20 type  2   force =     0.05911965    0.15990776   38.20174549
     atom   21 type  1   force =    -0.05344149    0.01249329   -0.99675374
     atom   22 type  2   force =    -0.38344215    1.41708220  -38.70889031
     atom   23 type  2   force =     0.33000535   -0.24810448   37.83014983
     atom   24 type  1   force =    -0.08339742   -1.08714865   -2.79598060
     atom   25 type  2   force =    -0.27945823   -0.18726727  -38.92234760
     atom   26 type  2   force =     0.09125959   -0.03409679   37.29034918
     atom   27 type  1   force =     0.13998180   -0.65094336   -1.60979857
     atom   28 type  2   force =    -0.12194931   -0.46846343  -35.30401727
     atom   29 type  2   force =    -0.09125660    0.05667315   36.51951854
     atom   30 type  1   force =     0.01122720    1.00260346   -2.30251356
     atom   31 type  2   force =    -1.20180624   -0.08799637  -38.03002174
     atom   32 type  2   force =     0.33338906    0.03407756   37.34784639
     atom   33 type  1   force =    -0.25835792    0.72254252   -3.53421011
     atom   34 type  2   force =     0.04073261    0.55853649  -38.63770547
     atom   35 type  2   force =    -0.01795006   -0.03863522   37.04912685
     atom   36 type  3   force =     0.07858852   -0.11533376   -8.62768564
     The core correction contribution to forces
     atom    1 type  1   force =     0.00000000    0.00000000    0.00000000
     atom    2 type  2   force =    -0.00086029   -0.00011495    0.02021689
     atom    3 type  2   force =     0.00005621    0.00036171   -0.02108453
     atom    4 type  1   force =     0.00000000    0.00000000    0.00000000
     atom    5 type  2   force =    -0.00126827    0.00113179    0.01986221
     atom    6 type  2   force =     0.00027266   -0.00026781   -0.02074357
     atom    7 type  1   force =     0.00000000    0.00000000    0.00000000
     atom    8 type  2   force =    -0.00072159    0.00080415    0.02004853
     atom    9 type  2   force =     0.00036606    0.00122985   -0.02084412
     atom   10 type  1   force =     0.00000000    0.00000000    0.00000000
     atom   11 type  2   force =    -0.00033046   -0.00033783    0.02061633
     atom   12 type  2   force =     0.00060662    0.00071501   -0.02068264
     atom   13 type  1   force =     0.00000000    0.00000000    0.00000000
     atom   14 type  2   force =     0.00008281    0.00000661    0.02060443
     atom   15 type  2   force =    -0.00014111    0.00015506   -0.02061313
     atom   16 type  1   force =     0.00000000    0.00000000    0.00000000
     atom   17 type  2   force =     0.00153114    0.00109979    0.01993992
     atom   18 type  2   force =    -0.00041791   -0.00029106   -0.02075492
     atom   19 type  1   force =     0.00000000    0.00000000    0.00000000
     atom   20 type  2   force =    -0.00006673    0.00071185   -0.02104675
     atom   21 type  1   force =     0.00000000    0.00000000    0.00000000
     atom   22 type  2   force =     0.00038383   -0.00033090    0.02063383
     atom   23 type  2   force =    -0.00066828    0.00071370   -0.02067056
     atom   24 type  1   force =     0.00000000    0.00000000    0.00000000
     atom   25 type  2   force =     0.00070038   -0.00016271    0.02026568
     atom   26 type  2   force =     0.00002503    0.00046459   -0.02106478
     atom   27 type  1   force =     0.00000000    0.00000000    0.00000000
     atom   28 type  2   force =     0.00095840    0.00035183   -0.01114509
     atom   29 type  2   force =     0.00022604    0.00044756   -0.02132891
     atom   30 type  1   force =     0.00000000    0.00000000    0.00000000
     atom   31 type  2   force =     0.00069182    0.00100209    0.02011414
     atom   32 type  2   force =    -0.00028113    0.00110002   -0.02087904
     atom   33 type  1   force =     0.00000000    0.00000000    0.00000000
     atom   34 type  2   force =    -0.00007634    0.00039297    0.02098159
     atom   35 type  2   force =     0.00008073    0.00091041   -0.02096688
     atom   36 type  3   force =     0.00000000    0.00000000    0.00000000
     The Hubbard contrib.    to forces
     atom    1 type  1   force =     0.00000000    0.00000000    0.00000000
     atom    2 type  2   force =     0.00000000    0.00000000    0.00000000
     atom    3 type  2   force =     0.00000000    0.00000000    0.00000000
     atom    4 type  1   force =     0.00000000    0.00000000    0.00000000
     atom    5 type  2   force =     0.00000000    0.00000000    0.00000000
     atom    6 type  2   force =     0.00000000    0.00000000    0.00000000
     atom    7 type  1   force =     0.00000000    0.00000000    0.00000000
     atom    8 type  2   force =     0.00000000    0.00000000    0.00000000
     atom    9 type  2   force =     0.00000000    0.00000000    0.00000000
     atom   10 type  1   force =     0.00000000    0.00000000    0.00000000
     atom   11 type  2   force =     0.00000000    0.00000000    0.00000000
     atom   12 type  2   force =     0.00000000    0.00000000    0.00000000
     atom   13 type  1   force =     0.00000000    0.00000000    0.00000000
     atom   14 type  2   force =     0.00000000    0.00000000    0.00000000
     atom   15 type  2   force =     0.00000000    0.00000000    0.00000000
     atom   16 type  1   force =     0.00000000    0.00000000    0.00000000
     atom   17 type  2   force =     0.00000000    0.00000000    0.00000000
     atom   18 type  2   force =     0.00000000    0.00000000    0.00000000
     atom   19 type  1   force =     0.00000000    0.00000000    0.00000000
     atom   20 type  2   force =     0.00000000    0.00000000    0.00000000
     atom   21 type  1   force =     0.00000000    0.00000000    0.00000000
     atom   22 type  2   force =     0.00000000    0.00000000    0.00000000
     atom   23 type  2   force =     0.00000000    0.00000000    0.00000000
     atom   24 type  1   force =     0.00000000    0.00000000    0.00000000
     atom   25 type  2   force =     0.00000000    0.00000000    0.00000000
     atom   26 type  2   force =     0.00000000    0.00000000    0.00000000
     atom   27 type  1   force =     0.00000000    0.00000000    0.00000000
     atom   28 type  2   force =     0.00000000    0.00000000    0.00000000
     atom   29 type  2   force =     0.00000000    0.00000000    0.00000000
     atom   30 type  1   force =     0.00000000    0.00000000    0.00000000
     atom   31 type  2   force =     0.00000000    0.00000000    0.00000000
     atom   32 type  2   force =     0.00000000    0.00000000    0.00000000
     atom   33 type  1   force =     0.00000000    0.00000000    0.00000000
     atom   34 type  2   force =     0.00000000    0.00000000    0.00000000
     atom   35 type  2   force =     0.00000000    0.00000000    0.00000000
     atom   36 type  3   force =     0.00000000    0.00000000    0.00000000
     The SCF correction term to forces
     atom    1 type  1   force =    -0.00000857   -0.00000417    0.00001527
     atom    2 type  2   force =    -0.00000513   -0.00000870   -0.00000132
     atom    3 type  2   force =     0.00000062   -0.00000424    0.00000643
     atom    4 type  1   force =    -0.00003071    0.00000511   -0.00001120
     atom    5 type  2   force =    -0.00001001   -0.00000333   -0.00000806
     atom    6 type  2   force =    -0.00000457    0.00000999    0.00000453
     atom    7 type  1   force =    -0.00000987   -0.00002388   -0.00001896
     atom    8 type  2   force =    -0.00000756    0.00000070   -0.00000428
     atom    9 type  2   force =    -0.00000972   -0.00000033   -0.00001084
     atom   10 type  1   force =     0.00000448    0.00000686    0.00000910
     atom   11 type  2   force =     0.00000345    0.00001117    0.00001019
     atom   12 type  2   force =     0.00000096   -0.00000026   -0.00000638
     atom   13 type  1   force =     0.00000627   -0.00000429    0.00001755
     atom   14 type  2   force =     0.00000266    0.00000302    0.00000828
     atom   15 type  2   force =     0.00000178   -0.00000019    0.00000488
     atom   16 type  1   force =     0.00000661    0.00001101   -0.00000173
     atom   17 type  2   force =     0.00000739   -0.00000297    0.00000180
     atom   18 type  2   force =    -0.00000042    0.00001286    0.00000362
     atom   19 type  1   force =    -0.00000864    0.00000892   -0.00001091
     atom   20 type  2   force =    -0.00000228   -0.00000036   -0.00000385
     atom   21 type  1   force =    -0.00001874   -0.00000682    0.00000246
     atom   22 type  2   force =    -0.00000061   -0.00000027   -0.00000152
     atom   23 type  2   force =    -0.00000374   -0.00001017    0.00000000
     atom   24 type  1   force =    -0.00000608   -0.00002203    0.00000240
     atom   25 type  2   force =     0.00000262   -0.00000746    0.00000408
     atom   26 type  2   force =     0.00000189   -0.00000943   -0.00000127
     atom   27 type  1   force =     0.00003501    0.00002612   -0.00002365
     atom   28 type  2   force =    -0.00000326   -0.00000429    0.00000639
     atom   29 type  2   force =    -0.00000337    0.00000242   -0.00000618
     atom   30 type  1   force =     0.00001072    0.00001238   -0.00001201
     atom   31 type  2   force =     0.00001430    0.00000189   -0.00000249
     atom   32 type  2   force =     0.00001428    0.00000207   -0.00000454
     atom   33 type  1   force =     0.00000299   -0.00001265   -0.00000153
     atom   34 type  2   force =     0.00000192    0.00001349    0.00000332
     atom   35 type  2   force =     0.00000514    0.00000113   -0.00000499
     atom   36 type  3   force =    -0.00000038   -0.00000076    0.00000029

     Total force =     0.007301     Total SCF correction =     0.000100
     Energy error            =      9.8E-05 Ry
     Gradient error          =      2.1E-03 Ry/Bohr

     bfgs converged in  17 scf cycles and  16 bfgs steps
     (criteria: energy <  1.0E-04 Ry, force <  1.0E-02 Ry/Bohr)

     End of BFGS Geometry Optimization

     Final energy             =   -2205.5899937192 Ry

     File ./MoS2-V-O.bfgs deleted, as requested
Begin final coordinates

ATOMIC_POSITIONS (angstrom)
Mo            6.5659489737        1.7570606136        2.7413504579
S             8.1064462088        0.8299735326        4.3756875437
S             8.1470431055        0.8206525156        1.1679602012
Mo            8.0835377658        4.5112896811        2.7077642412
S             6.5075690723        3.6660833737        4.2931424491
S             6.5725770394        3.5509184470        1.0831669172
Mo            6.4926069631        7.2200250086        2.6718890007
S             8.0576727652        6.3244380533        4.3050806095
S             8.1344621451        6.3295843181        1.1149223628
Mo            8.1277858856        9.9286811147        2.7735595194
S             6.5027486776        8.9612534942        4.3400421400
S             6.5819036948        9.0430599727        1.1206990468
Mo            3.4094509072        1.7593061357        2.7599502174
S             4.9934848958        0.8359949198        4.3352707519
S             4.9793748774        0.8487365211        1.1629105209
Mo            4.9945361514        4.4937593582        2.6202782371
S             3.4928135625        3.6696656557        4.3094841091
S             3.4016597839        3.5506947624        1.1019320424
Mo            3.4950334468        7.2253349114        2.6804996115
S             4.9901765511        6.3165922525        1.0470256720
Mo            4.9906244204        9.9233552899        2.7302241230
S             3.4849696210        8.9685328179        4.3484291108
S             3.3972163326        9.0430156358        1.1274028683
Mo            0.2574119015        1.6900340302        2.7831029171
S             1.8572712330        0.8307260062        4.3903787341
S             1.8376882304        0.8260738663        1.1800595279
Mo            1.8997144563        4.5130730336        2.7370800368
S             0.2426801620        3.6140228758        4.2133476809
S             0.2722373208        3.5560248017        1.1891368322
Mo            0.2663450725        7.2065753099        2.7479533140
S             1.9288732242        6.3379688381        4.3205364553
S             1.8586442467        6.3230188319        1.1289822453
Mo            1.8556589590        9.9319846946        2.7834025366
S             0.2595245935        9.0190813482        4.3679649830
S             0.2705100730        9.0362870054        1.1859330788
H             0.1561446921        3.6610340500        5.5737897755
End final coordinates



     Writing all to output data dir ./MoS2-V-O.save/
 
     init_run     :      2.39s CPU      2.67s WALL (       1 calls)
     electrons    :   1544.38s CPU   1722.81s WALL (      17 calls)
     update_pot   :     22.89s CPU     24.27s WALL (      16 calls)
     forces       :     23.41s CPU     27.34s WALL (      17 calls)

     Called by init_run:
     wfcinit      :      0.39s CPU      0.44s WALL (       1 calls)
     potinit      :      1.31s CPU      1.44s WALL (       1 calls)
     hinit0       :      0.16s CPU      0.19s WALL (       1 calls)

     Called by electrons:
     c_bands      :    204.73s CPU    208.25s WALL (     154 calls)
     sum_band     :     46.04s CPU     60.13s WALL (     154 calls)
     v_of_rho     :     70.58s CPU     86.55s WALL (     159 calls)
     newd         :     21.36s CPU     34.59s WALL (     159 calls)
     mix_rho      :   1209.07s CPU   1340.88s WALL (     154 calls)

     Called by c_bands:
     init_us_2    :      3.30s CPU      3.55s WALL (     309 calls)
     init_us_2:cp :      3.30s CPU      3.54s WALL (     309 calls)
     regterg      :    193.20s CPU    196.44s WALL (     154 calls)

     Called by *egterg:
     rdiaghg      :     14.99s CPU     15.15s WALL (     830 calls)
     h_psi        :    103.64s CPU    104.63s WALL (     859 calls)
     s_psi        :     12.51s CPU     12.57s WALL (     859 calls)
     g_psi        :      1.17s CPU      1.18s WALL (     704 calls)

     Called by h_psi:
     h_psi:calbec :     15.09s CPU     15.18s WALL (     859 calls)
     vloc_psi     :     73.49s CPU     74.26s WALL (     859 calls)
     add_vuspsi   :     12.59s CPU     12.71s WALL (     859 calls)

     General routines
     calbec       :     21.42s CPU     21.53s WALL (    1081 calls)
     fft          :     45.56s CPU     53.19s WALL (   10696 calls)
     ffts         :    545.81s CPU    673.15s WALL (  294172 calls)
     fftw         :     62.87s CPU     63.43s WALL (   92470 calls)
     interpolate  :      1.14s CPU      1.37s WALL (     159 calls)
 
     Parallel routines
 
     PWSCF        :  26m36.07s CPU  29m42.65s WALL

 
   This run was terminated on:   0:24:27   4Nov2023            

=------------------------------------------------------------------------------=
   JOB DONE.
=------------------------------------------------------------------------------=
