
     Program PWSCF v.7.2 starts on  4Nov2023 at  8:30:44 

     This program is part of the open-source Quantum ESPRESSO suite
     for quantum simulation of materials; please cite
         "P. Giannozzi et al., J. Phys.:Condens. Matter 21 395502 (2009);
         "P. Giannozzi et al., J. Phys.:Condens. Matter 29 465901 (2017);
         "P. Giannozzi et al., J. Chem. Phys. 152 154105 (2020);
          URL http://www.quantum-espresso.org", 
     in publications or presentations arising from this work. More details at
     http://www.quantum-espresso.org/quote

     Parallel version (MPI & OpenMP), running on      48 processor cores
     Number of MPI processes:                48
     Threads/MPI process:                     1

     MPI processes distributed on     1 nodes
     17371 MiB available memory on the printing compute node when the environment starts
 
     Waiting for input...
     Reading input from standard input
Warning: card &CELL ignored
Warning: card CELL_DYNAMICS = 'BFGS', ignored
Warning: card CELL_DOFREE = '2DXY' ignored
Warning: card / ignored

     Current dimensions of program PWSCF are:
     Max number of different atomic species (ntypx) = 10
     Max number of k-points (npk) =  40000
     Max angular momentum in pseudopotentials (lmaxx) =  4

     IMPORTANT: XC functional enforced from input :
     Exchange-correlation= RVV10
                           (   1   4  13   4  26   0   0)
     Any further DFT definition will be discarded
     Please, verify this is what you really want


     gamma-point specific algorithms are used
     signal trapping enabled: kill the code with -SIGUSR1 to stop cleanly the simulation 
 
     R & G space division:  proc/nbgrp/npool/nimage =      48
     Subspace diagonalization in iterative solution of the eigenvalue problem:
     one sub-group per band group will be used
     scalapack distributed-memory algorithm (size of sub-group:  2*  2 procs)

 
     Parallelization info
     --------------------
     sticks:   dense  smooth     PW     G-vecs:    dense   smooth      PW
     Min         243     194     47                49060    35090    4376
     Max         246     196     50                49086    35128    4410
     Sum       11735    9389   2349              2355467  1685513  210763
 
     Using Slab Decomposition
 


     bravais-lattice index     =            0
     lattice parameter (alat)  =      17.8707  a.u.
     unit-cell volume          =   17436.2743 (a.u.)^3
     number of atoms/cell      =           36
     number of atomic types    =            3
     number of electrons       =       307.00
     number of Kohn-Sham states=          185
     kinetic-energy cutoff     =      80.0000  Ry
     charge density cutoff     =     400.0000  Ry
     scf convergence threshold =      1.0E-06
     mixing beta               =       0.7000
     number of iterations used =            8  local-TF  mixing
     energy convergence thresh.=      1.0E-04
     force convergence thresh. =      1.0E-02
     Exchange-correlation= RVV10
                           (   1   4  13   4  26   0   0)
     nstep                     =          200


     celldm(1)=  17.870686  celldm(2)=   0.000000  celldm(3)=   0.000000
     celldm(4)=   0.000000  celldm(5)=   0.000000  celldm(6)=   0.000000

     crystal axes: (cart. coord. in units of alat)
               a(1) = (   1.000000   0.000000   0.000000 )  
               a(2) = (   0.000000   1.155671   0.000000 )  
               a(3) = (   0.000000   0.000000   2.643601 )  

     reciprocal axes: (cart. coord. in units 2 pi/alat)
               b(1) = (  1.000000  0.000000  0.000000 )  
               b(2) = (  0.000000  0.865298  0.000000 )  
               b(3) = (  0.000000  0.000000  0.378272 )  


     PseudoPot. # 1 for Mo read from file:
     ../pseudo/Mo_ONCV_PBE-1.0.oncvpsp.upf
     MD5 check sum: 1b5d28e075c9ccadda658a603575cd1f
     Pseudo is Norm-conserving, Zval = 14.0
     Generated using ONCVPSP code by D. R. Hamann
     Using radial grid of 1526 points,  6 beta functions with: 
                l(1) =   0
                l(2) =   0
                l(3) =   1
                l(4) =   1
                l(5) =   2
                l(6) =   2

     PseudoPot. # 2 for S  read from file:
     ../pseudo/s_pbe_v1.4.uspp.F.UPF
     MD5 check sum: 88d86576ff6df21479756cfb9bdac1df
     Pseudo is Ultrasoft + core correction, Zval =  6.0
     Generated by new atomic code, or converted to UPF format
     Using radial grid of  907 points,  6 beta functions with: 
                l(1) =   0
                l(2) =   0
                l(3) =   1
                l(4) =   1
                l(5) =   2
                l(6) =   2
     Q(r) pseudized with  8 coefficients,  rinner =    1.300   1.300   1.300
                                                       1.300   1.300

     PseudoPot. # 3 for H  read from file:
     ../pseudo/H_ONCV_PBE-1.0.oncvpsp.upf
     MD5 check sum: 1790becc920ee074925cf490c71280fe
     Pseudo is Norm-conserving, Zval =  1.0
     Generated using ONCVPSP code by D. R. Hamann
     Using radial grid of 1166 points,  2 beta functions with: 
                l(1) =   0
                l(2) =   0

     atomic species   valence    mass     pseudopotential
        Mo            14.00    95.94000     Mo( 1.00)
        S              6.00    32.06500     S ( 1.00)
        H              1.00     1.00794     H ( 1.00)

     No symmetry found



   Cartesian axes

     site n.     atom                  positions (alat units)
         1           Mo  tau(   1) = (   0.6952221   0.1890506   0.2985846  )
         2           S   tau(   2) = (   0.8646417   0.0856217   0.4689279  )
         3           S   tau(   3) = (   0.8663890   0.0857843   0.1351291  )
         4           Mo  tau(   4) = (   0.8560186   0.4753274   0.2873942  )
         5           S   tau(   5) = (   0.6873294   0.3936244   0.4596353  )
         6           S   tau(   6) = (   0.6929804   0.3713468   0.1185692  )
         7           Mo  tau(   7) = (   0.6862796   0.7633098   0.2825370  )
         8           S   tau(   8) = (   0.8545980   0.6708292   0.4486168  )
         9           S   tau(   9) = (   0.8545123   0.6666874   0.1146125  )
        10           Mo  tau(  10) = (   0.8629403   1.0471007   0.3006803  )
        11           S   tau(  11) = (   0.6868280   0.9456650   0.4634891  )
        12           S   tau(  12) = (   0.6998113   0.9568511   0.1205389  )
        13           Mo  tau(  13) = (   0.3618216   0.1847309   0.2935964  )
        14           S   tau(  14) = (   0.5260962   0.0863870   0.4600448  )
        15           S   tau(  15) = (   0.5348379   0.0894875   0.1297123  )
        16           Mo  tau(  16) = (   0.5265817   0.4772436   0.2784130  )
        17           S   tau(  17) = (   0.3624753   0.3882513   0.4525556  )
        18           S   tau(  18) = (   0.3635411   0.3752055   0.1119148  )
        19           Mo  tau(  19) = (   0.3652268   0.7630864   0.2781795  )
        20           S   tau(  20) = (   0.5269494   0.6690381   0.1096838  )
        21           Mo  tau(  21) = (   0.5300192   1.0470394   0.2900995  )
        22           S   tau(  22) = (   0.3670346   0.9457522   0.4574073  )
        23           S   tau(  23) = (   0.3604225   0.9585725   0.1159032  )
        24           Mo  tau(  24) = (   0.0313099   0.1847895   0.3013130  )
        25           S   tau(  25) = (   0.1956761   0.0838230   0.4650863  )
        26           S   tau(  26) = (   0.1967693   0.0903508   0.1278874  )
        27           Mo  tau(  27) = (   0.1967578   0.4753919   0.2813011  )
        28           S   tau(  28) = (   0.0287851   0.3864324   0.4586755  )
        29           S   tau(  29) = (   0.0244514   0.3729871   0.1239344  )
        30           Mo  tau(  30) = (   0.0286728   0.7631204   0.2856894  )
        31           S   tau(  31) = (   0.2011512   0.6675435   0.4465001  )
        32           S   tau(  32) = (   0.1969214   0.6672839   0.1104564  )
        33           Mo  tau(  33) = (   0.1950294   1.0511147   0.2932237  )
        34           S   tau(  34) = (   0.0312912   0.9612169   0.4667423  )
        35           S   tau(  35) = (   0.0292670   0.9563028   0.1216485  )
        36           H   tau(  36) = (   0.8888889   0.8988550   0.5656742  )

     number of k points=     1  Gaussian smearing, width (Ry)=  0.0100
                       cart. coord. in units 2pi/alat
        k(    1) = (   0.0000000   0.0000000   0.0000000), wk =   2.0000000

     Dense  grid:  1177734 G-vectors     FFT dimensions: ( 120, 135, 320)

     Smooth grid:   842757 G-vectors     FFT dimensions: ( 108, 120, 270)

     Estimated max dynamical RAM per process >     146.59 MB

     Estimated total dynamical RAM >       6.87 GB

     Initial potential from superposition of free atoms

     starting charge     306.9873, renormalised to     307.0000

     negative rho (up, down):  1.410E-04 0.000E+00


---------------------------------------------------------------------------------
Carrying out rVV10 run using the following parameters:
Nqs =      20    Nr_points =    1024   r_max =   100.000
b_value =  6.30000    beta =  0.00901
     q_mesh =  0.00010000  0.00030000  0.00058939  0.00100810
               0.00161396  0.00249058  0.00375900  0.00559430
               0.00824984  0.01209221  0.01765183  0.02569619
               0.03733578  0.05417739  0.07854596  0.11380545
               0.16482331  0.23864234  0.34545298  0.50000000

Gradients computed in Reciprocal space

---------------------------------------------------------------------------------


     Starting wfcs are  213 randomized atomic wfcs

     total cpu time spent up to now is        2.7 secs

     Self-consistent Calculation

     iteration #  1     ecut=    80.00 Ry     beta= 0.70
     Davidson diagonalization with overlap
     ethr =  1.00E-02,  avg # of iterations =  2.0

     Threshold (ethr) on eigenvalues was too large:
     Diagonalizing with lowered threshold

     Davidson diagonalization with overlap
     ethr =  3.56E-04,  avg # of iterations =  4.0

     negative rho (up, down):  1.469E-08 0.000E+00

     total cpu time spent up to now is       17.4 secs

     total energy              =   -2205.58480073 Ry
     estimated scf accuracy    <       1.37814784 Ry

     iteration #  2     ecut=    80.00 Ry     beta= 0.70
     Davidson diagonalization with overlap
     ethr =  4.49E-04,  avg # of iterations =  2.0

     total cpu time spent up to now is       19.8 secs

     total energy              =   -2205.43252447 Ry
     estimated scf accuracy    <       0.55378481 Ry

     iteration #  3     ecut=    80.00 Ry     beta= 0.70
     Davidson diagonalization with overlap
     ethr =  1.80E-04,  avg # of iterations =  5.0

     total cpu time spent up to now is       22.4 secs

     total energy              =   -2205.51572100 Ry
     estimated scf accuracy    <       0.06718497 Ry

     iteration #  4     ecut=    80.00 Ry     beta= 0.70
     Davidson diagonalization with overlap
     ethr =  2.19E-05,  avg # of iterations = 15.0

     total cpu time spent up to now is       25.5 secs

     total energy              =   -2205.51942551 Ry
     estimated scf accuracy    <       0.02572438 Ry

     iteration #  5     ecut=    80.00 Ry     beta= 0.70
     Davidson diagonalization with overlap
     ethr =  8.38E-06,  avg # of iterations =  2.0

     total cpu time spent up to now is       27.7 secs

     total energy              =   -2205.51914158 Ry
     estimated scf accuracy    <       0.01645919 Ry

     iteration #  6     ecut=    80.00 Ry     beta= 0.70
     Davidson diagonalization with overlap
     ethr =  5.36E-06,  avg # of iterations =  2.0

     total cpu time spent up to now is       29.9 secs

     total energy              =   -2205.51807805 Ry
     estimated scf accuracy    <       0.01121838 Ry

     iteration #  7     ecut=    80.00 Ry     beta= 0.70
     Davidson diagonalization with overlap
     ethr =  3.65E-06,  avg # of iterations =  1.0

     negative rho (up, down):  1.644E-05 0.000E+00

     total cpu time spent up to now is       34.6 secs

     total energy              =   -2205.51644401 Ry
     estimated scf accuracy    <       0.00676255 Ry

     iteration #  8     ecut=    80.00 Ry     beta= 0.70
     Davidson diagonalization with overlap
     c_bands:  1 eigenvalues not converged
     ethr =  2.20E-06,  avg # of iterations = 20.0

     negative rho (up, down):  6.580E-03 0.000E+00

     total cpu time spent up to now is       39.5 secs

     total energy              =   -2205.51618078 Ry
     estimated scf accuracy    <       0.00349294 Ry

     iteration #  9     ecut=    80.00 Ry     beta= 0.70
     Davidson diagonalization with overlap
     c_bands:  1 eigenvalues not converged
     ethr =  1.14E-06,  avg # of iterations = 20.0

     negative rho (up, down):  2.608E-02 0.000E+00

     total cpu time spent up to now is       44.6 secs

     total energy              =   -2205.51608743 Ry
     estimated scf accuracy    <       0.00205429 Ry

     iteration # 10     ecut=    80.00 Ry     beta= 0.70
     Davidson diagonalization with overlap
     ethr =  6.69E-07,  avg # of iterations =  2.0

     negative rho (up, down):  3.004E-02 0.000E+00

     total cpu time spent up to now is       49.9 secs

     total energy              =   -2205.51624980 Ry
     estimated scf accuracy    <       0.00075095 Ry

     iteration # 11     ecut=    80.00 Ry     beta= 0.70
     Davidson diagonalization with overlap
     ethr =  2.45E-07,  avg # of iterations =  2.0

     negative rho (up, down):  1.121E-02 0.000E+00

     total cpu time spent up to now is       54.4 secs

     total energy              =   -2205.51624919 Ry
     estimated scf accuracy    <       0.00017082 Ry

     iteration # 12     ecut=    80.00 Ry     beta= 0.70
     Davidson diagonalization with overlap
     ethr =  5.56E-08,  avg # of iterations =  5.0

     negative rho (up, down):  3.501E-03 0.000E+00

     total cpu time spent up to now is       60.6 secs

     total energy              =   -2205.51632269 Ry
     estimated scf accuracy    <       0.00001766 Ry

     iteration # 13     ecut=    80.00 Ry     beta= 0.70
     Davidson diagonalization with overlap
     ethr =  5.75E-09,  avg # of iterations =  5.0

     negative rho (up, down):  1.039E-03 0.000E+00

     total cpu time spent up to now is       67.7 secs

     total energy              =   -2205.51633175 Ry
     estimated scf accuracy    <       0.00000239 Ry

     iteration # 14     ecut=    80.00 Ry     beta= 0.70
     Davidson diagonalization with overlap
     ethr =  7.78E-10,  avg # of iterations =  4.0

     negative rho (up, down):  1.375E-04 0.000E+00

     total cpu time spent up to now is       69.9 secs

     End of self-consistent calculation

          k = 0.0000 0.0000 0.0000 (105382 PWs)   bands (ev):

   -62.8947 -62.8908 -62.8741 -62.8646 -62.8439 -62.8174 -62.8102 -62.8053
   -62.7990 -62.7925 -62.7814 -62.7682 -37.2432 -37.1719 -37.1615 -37.1522
   -37.1434 -37.1162 -37.0935 -37.0804 -37.0770 -37.0739 -37.0720 -37.0521
   -37.0432 -37.0394 -37.0237 -37.0161 -37.0153 -37.0098 -36.9951 -36.9881
   -36.9826 -36.9658 -36.9565 -36.9456 -36.9412 -36.9346 -36.9242 -36.9098
   -36.9055 -36.8936 -36.8781 -36.8545 -36.8475 -36.8121 -36.7630 -36.7293
   -16.0307 -15.3107 -15.1427 -15.0143 -14.9810 -14.8480 -14.6257 -14.5072
   -14.4820 -14.4464 -14.4236 -14.3546 -14.3360 -14.2856 -14.1911 -14.1613
   -14.1217 -14.1051 -14.0298 -13.9558 -13.8564 -13.8332 -13.8096  -8.0744
    -7.6198  -7.4686  -7.3230  -7.2684  -7.2152  -7.2067  -7.1257  -7.0208
    -6.8456  -6.8110  -6.7535  -6.7026  -6.6135  -6.5274  -6.5084  -6.4509
    -6.2801  -6.2495  -6.0627  -5.9962  -5.9262  -5.8976  -5.8381  -5.8324
    -5.7655  -5.7286  -5.6983  -5.6626  -5.6212  -5.5555  -5.5378  -5.4642
    -5.4294  -5.4140  -5.2163  -5.1326  -5.1110  -5.0311  -4.9946  -4.9477
    -4.9252  -4.8526  -4.6580  -4.5315  -4.3872  -4.3643  -4.3138  -4.2716
    -4.1821  -4.1271  -4.0466  -3.8559  -3.8102  -3.8013  -3.7655  -3.7221
    -3.6975  -3.6094  -3.5498  -3.5104  -3.4941  -3.4752  -3.4469  -3.3860
    -3.3692  -3.2193  -3.1529  -2.9192  -2.8877  -2.8362  -2.7720  -2.7491
    -2.7182  -2.6656  -2.6493  -2.6408  -2.5830  -2.2950  -2.0625  -2.0007
    -1.9367  -1.1348  -0.8258  -0.6706  -0.1901  -0.1516  -0.1132  -0.0195
     0.0325   0.1146   0.1912   0.2219   0.2260   0.2708   0.3468   0.4042
     0.4555   0.5056   0.5346   0.5618   0.5943   0.6528   0.6944   0.7385
     0.7701   0.7722   0.8383   0.8863   0.9438   0.9709   1.0471   1.2575
     1.3860

     the Fermi energy is    -1.1350 ev

!    total energy              =   -2205.51633350 Ry
     estimated scf accuracy    <       0.00000042 Ry
     smearing contrib. (-TS)   =      -0.00567419 Ry
     internal energy E=F+TS    =   -2205.51065931 Ry

     The total energy is F=E-TS. E is the sum of the following terms:
     one-electron contribution =  -18047.06057721 Ry
     hartree contribution      =    9010.17524288 Ry
     xc contribution           =    -385.22582924 Ry
     ewald contribution        =    7216.60050426 Ry

     convergence has been achieved in  14 iterations

     negative rho (up, down):  1.375E-04 0.000E+00

     Forces acting on atoms (cartesian axes, Ry/au):

     atom    1 type  1   force =     0.01427517   -0.02578542    0.00463478
     atom    2 type  2   force =    -0.01533502    0.01672188    0.00257940
     atom    3 type  2   force =    -0.01210606    0.01025331   -0.00152416
     atom    4 type  1   force =     0.00283538    0.00312033   -0.00706330
     atom    5 type  2   force =    -0.00116949   -0.00679046   -0.00672287
     atom    6 type  2   force =     0.00294529    0.01049185    0.00011174
     atom    7 type  1   force =     0.00947044   -0.01225585   -0.00509741
     atom    8 type  2   force =     0.00165799    0.00635912    0.02333296
     atom    9 type  2   force =     0.01233837    0.00560190    0.01017868
     atom   10 type  1   force =    -0.01217511    0.01802533   -0.04910948
     atom   11 type  2   force =     0.02339169   -0.01067471    0.00273692
     atom   12 type  2   force =    -0.00000719    0.00202046    0.00656711
     atom   13 type  1   force =     0.00547077    0.00934818   -0.00712885
     atom   14 type  2   force =     0.00754788    0.00005194    0.01231030
     atom   15 type  2   force =    -0.01279540    0.00244495   -0.00903930
     atom   16 type  1   force =    -0.00166324    0.01112849    0.00600550
     atom   17 type  2   force =     0.00533298    0.00028399    0.00207660
     atom   18 type  2   force =    -0.00280819   -0.00655288    0.01242608
     atom   19 type  1   force =     0.00155249   -0.01268235   -0.00570056
     atom   20 type  2   force =     0.00239035   -0.00485160   -0.00028815
     atom   21 type  1   force =    -0.01488119    0.00775566   -0.00656204
     atom   22 type  2   force =    -0.00159304   -0.00201404   -0.00225721
     atom   23 type  2   force =    -0.00314212    0.00120391    0.01004144
     atom   24 type  1   force =    -0.00938236   -0.00715412   -0.02253020
     atom   25 type  2   force =     0.01719853    0.01951562    0.00957684
     atom   26 type  2   force =    -0.00997787   -0.00301266   -0.00378788
     atom   27 type  1   force =    -0.00090151    0.00122999    0.00731592
     atom   28 type  2   force =     0.00125004   -0.00183227   -0.00418954
     atom   29 type  2   force =     0.00198278   -0.00064161   -0.00171916
     atom   30 type  1   force =    -0.00396405    0.01203031   -0.00666064
     atom   31 type  2   force =     0.00171608   -0.00097245    0.01620589
     atom   32 type  2   force =    -0.00658468    0.00550758    0.00724090
     atom   33 type  1   force =     0.03547378    0.00943713   -0.03570623
     atom   34 type  2   force =    -0.05606489   -0.07223903    0.03642049
     atom   35 type  2   force =    -0.00835168    0.00717394    0.01511028
     atom   36 type  3   force =     0.02607309    0.00775360   -0.00978485
     The non-local contrib.  to forces
     atom    1 type  1   force =    -0.00110405    0.03183304   -0.01258556
     atom    2 type  2   force =    -0.01118885   -0.00140089   -0.26712583
     atom    3 type  2   force =    -0.01432865   -0.00279676    0.27130427
     atom    4 type  1   force =     0.00051938    0.00343332    0.00270040
     atom    5 type  2   force =     0.00445785   -0.03408858   -0.25371692
     atom    6 type  2   force =    -0.00073476    0.01241317    0.26231385
     atom    7 type  1   force =    -0.01910412    0.00390246   -0.01890147
     atom    8 type  2   force =     0.00343232    0.01561309   -0.23218988
     atom    9 type  2   force =     0.00681727   -0.00432066    0.27777311
     atom   10 type  1   force =     0.00719328    0.00346929    0.00624368
     atom   11 type  2   force =     0.05213869   -0.00934933   -0.20550231
     atom   12 type  2   force =    -0.00983525   -0.01765003    0.26357891
     atom   13 type  1   force =    -0.00084227    0.01696994   -0.00532017
     atom   14 type  2   force =     0.01059529   -0.00989133   -0.26155964
     atom   15 type  2   force =    -0.01343649   -0.00592538    0.26107354
     atom   16 type  1   force =     0.00138524    0.03119589   -0.03067539
     atom   17 type  2   force =     0.00105720   -0.02669628   -0.24881930
     atom   18 type  2   force =    -0.00459282   -0.00384886    0.27293463
     atom   19 type  1   force =     0.01654523   -0.00014223   -0.01566754
     atom   20 type  2   force =    -0.00133374   -0.02194452    0.26632598
     atom   21 type  1   force =     0.00607421    0.02553106    0.00784187
     atom   22 type  2   force =    -0.00541040    0.00159192   -0.24820681
     atom   23 type  2   force =     0.00647331   -0.01193042    0.27018755
     atom   24 type  1   force =     0.00533921    0.01709914   -0.01047924
     atom   25 type  2   force =     0.01410376    0.01413571   -0.25267283
     atom   26 type  2   force =    -0.00283092   -0.01535338    0.26490836
     atom   27 type  1   force =    -0.00400587    0.00604747    0.00990510
     atom   28 type  2   force =    -0.00252403   -0.02436097   -0.27533530
     atom   29 type  2   force =     0.00646555    0.00256375    0.26358451
     atom   30 type  1   force =     0.00073265    0.02068213    0.01294276
     atom   31 type  2   force =    -0.00858507    0.00206784   -0.25095674
     atom   32 type  2   force =     0.00071437   -0.00995535    0.27232372
     atom   33 type  1   force =    -0.01037143    0.00148492    0.00643696
     atom   34 type  2   force =    -0.17190561   -0.12272371   -0.10189028
     atom   35 type  2   force =    -0.00364616   -0.01165053    0.27265690
     atom   36 type  3   force =     0.01120220    0.00555195   -0.01142434
     The ionic contribution  to forces
     atom    1 type  1   force =     0.32289482    0.34306138    5.65916348
     atom    2 type  2   force =    -0.68062114    0.64450904   39.22740691
     atom    3 type  2   force =    -0.16689145    0.06338049  -36.12012042
     atom    4 type  1   force =     0.07582606    0.41365165    0.58925126
     atom    5 type  2   force =    -1.00002269    1.45454633   38.74580829
     atom    6 type  2   force =     0.33471208   -0.50968000  -38.02351255
     atom    7 type  1   force =    -2.88771221   -2.97850945    2.21379673
     atom    8 type  2   force =    -1.05472324   -0.44023196   37.16559789
     atom    9 type  2   force =     0.33523358   -0.08353715  -38.06636597
     atom   10 type  1   force =    -1.17114731    0.11335441    4.97454830
     atom   11 type  2   force =    -1.13972926   -1.46587040   38.85711623
     atom   12 type  2   force =     0.40244253    0.70891724  -37.93271453
     atom   13 type  1   force =     0.49111312    1.04653346    2.86046670
     atom   14 type  2   force =     0.00856155    0.06819154   38.51137559
     atom   15 type  2   force =     0.14256768   -0.03751479  -36.80910363
     atom   16 type  1   force =    -0.07140671    3.86813601    0.47341785
     atom   17 type  2   force =     0.81675592    1.48040954   37.93967989
     atom   18 type  2   force =    -0.15919251   -0.65224254  -38.55358119
     atom   19 type  1   force =     2.74520688   -2.51297385    0.57561362
     atom   20 type  2   force =     0.21038188   -0.22174373  -38.49491704
     atom   21 type  1   force =    -0.11682956    0.16229558    1.04008599
     atom   22 type  2   force =     0.48179972   -1.69509758   38.40784354
     atom   23 type  2   force =    -0.08047789    0.67469970  -38.31102136
     atom   24 type  1   force =    -0.49398677    1.27290372    5.78766974
     atom   25 type  2   force =     0.72687227    0.37806676   39.25660501
     atom   26 type  2   force =    -0.27084936    0.09330105  -37.34098467
     atom   27 type  1   force =     0.08650874    0.31265586   -2.27318578
     atom   28 type  2   force =     0.07786022    0.96270601   38.20262740
     atom   29 type  2   force =    -0.25676471   -0.43832434  -37.26673906
     atom   30 type  1   force =    -0.07937397   -1.17040346   -0.52603918
     atom   31 type  2   force =     1.34835366   -0.16949463   37.28689202
     atom   32 type  2   force =    -0.45709991   -0.03391130  -38.65850613
     atom   33 type  1   force =     1.00353853   -0.71075182    1.88930062
     atom   34 type  2   force =     1.06842217   -1.07105164   38.78869100
     atom   35 type  2   force =    -0.26534222    0.49586023  -37.90873715
     atom   36 type  3   force =    -0.32688048   -0.36584138    7.83257061
     The local contribution  to forces
     atom    1 type  1   force =    -0.30743298   -0.40070527   -5.64175526
     atom    2 type  2   force =     0.67617287   -0.62653329  -38.97839956
     atom    3 type  2   force =     0.16840939   -0.05031945   35.86857249
     atom    4 type  1   force =    -0.07371484   -0.41370479   -0.59876155
     atom    5 type  2   force =     0.99500630   -1.42911269  -38.51945962
     atom    6 type  2   force =    -0.33129165    0.50900133   37.78246465
     atom    7 type  1   force =     2.91666411    2.96260816   -2.19977807
     atom    8 type  2   force =     1.05310402    0.43153519  -36.92958055
     atom    9 type  2   force =    -0.32965344    0.09311607   37.82012980
     atom   10 type  1   force =     1.15145274   -0.09885710   -5.02951767
     atom   11 type  2   force =     1.11377312    1.46435459  -38.66700161
     atom   12 type  2   force =    -0.39368294   -0.69073680   37.69697334
     atom   13 type  1   force =    -0.48476622   -1.05415647   -2.86214592
     atom   14 type  2   force =    -0.01094326   -0.05836063  -38.25822305
     atom   15 type  2   force =    -0.14259259    0.04549798   36.55989335
     atom   16 type  1   force =     0.06855775   -3.88853693   -0.43672429
     atom   17 type  2   force =    -0.81251261   -1.45478921  -37.70914865
     atom   18 type  2   force =     0.16096970    0.65007648   38.31429069
     atom   19 type  1   force =    -2.76033540    2.50073362   -0.56552638
     atom   20 type  2   force =    -0.20678610    0.23801747   38.24974759
     atom   21 type  1   force =     0.09609311   -0.18031440   -1.05418113
     atom   22 type  2   force =    -0.47810168    1.69192413  -38.18216104
     atom   23 type  2   force =     0.07138732   -0.66271241   38.07222886
     atom   24 type  1   force =     0.47906466   -1.29734214   -5.79939297
     atom   25 type  2   force =    -0.72357131   -0.37200274  -39.01482362
     atom   26 type  2   force =     0.26385366   -0.08183458   37.09353310
     atom   27 type  1   force =    -0.08339639   -0.31734687    2.27074203
     atom   28 type  2   force =    -0.07437877   -0.94190641  -37.95260828
     atom   29 type  2   force =     0.25279464    0.43580017   37.02232030
     atom   30 type  1   force =     0.07447716    1.16161740    0.50682178
     atom   31 type  2   force =    -1.33868902    0.16650106  -37.04030884
     atom   32 type  2   force =     0.45012960    0.04875131   38.41466305
     atom   33 type  1   force =    -0.95750018    0.71868189   -1.93129041
     atom   34 type  2   force =    -0.96297743    1.11553318  -38.66204383
     atom   35 type  2   force =     0.26069913   -0.47810878   37.67269842
     atom   36 type  3   force =     0.34172827    0.36803085   -7.83094474
     The core correction contribution to forces
     atom    1 type  1   force =     0.00000000    0.00000000    0.00000000
     atom    2 type  2   force =     0.00028707    0.00010337    0.02054991
     atom    3 type  2   force =     0.00064873    0.00000633   -0.02094137
     atom    4 type  1   force =     0.00000000    0.00000000    0.00000000
     atom    5 type  2   force =    -0.00053051    0.00188059    0.02040647
     atom    6 type  2   force =     0.00023266   -0.00116544   -0.02084733
     atom    7 type  1   force =     0.00000000    0.00000000    0.00000000
     atom    8 type  2   force =    -0.00013525   -0.00057158    0.01928346
     atom    9 type  2   force =    -0.00012854    0.00031338   -0.02101465
     atom   10 type  1   force =     0.00000000    0.00000000    0.00000000
     atom   11 type  2   force =    -0.00279013    0.00021835    0.01787451
     atom   12 type  2   force =     0.00103109    0.00141655   -0.02085285
     atom   13 type  1   force =     0.00000000    0.00000000    0.00000000
     atom   14 type  2   force =    -0.00057799    0.00004470    0.02058761
     atom   15 type  2   force =     0.00072730    0.00038099   -0.02056178
     atom   16 type  1   force =     0.00000000    0.00000000    0.00000000
     atom   17 type  2   force =     0.00005105    0.00138565    0.02019699
     atom   18 type  2   force =     0.00009658   -0.00045437   -0.02099375
     atom   19 type  1   force =     0.00000000    0.00000000    0.00000000
     atom   20 type  2   force =     0.00019034    0.00081020   -0.02122392
     atom   21 type  1   force =     0.00000000    0.00000000    0.00000000
     atom   22 type  2   force =     0.00014643   -0.00036139    0.02001181
     atom   23 type  2   force =    -0.00054010    0.00113360   -0.02099300
     atom   24 type  1   force =     0.00000000    0.00000000    0.00000000
     atom   25 type  2   force =    -0.00027839   -0.00075398    0.02029167
     atom   26 type  2   force =    -0.00013521    0.00081651   -0.02090636
     atom   27 type  1   force =     0.00000000    0.00000000    0.00000000
     atom   28 type  2   force =     0.00019963    0.00176404    0.02098858
     atom   29 type  2   force =    -0.00056949   -0.00060814   -0.02059311
     atom   30 type  1   force =     0.00000000    0.00000000    0.00000000
     atom   31 type  2   force =     0.00051676   -0.00003218    0.02039388
     atom   32 type  2   force =    -0.00031108    0.00060415   -0.02097898
     atom   33 type  1   force =     0.00000000    0.00000000    0.00000000
     atom   34 type  2   force =     0.01034997    0.00603577    0.01148955
     atom   35 type  2   force =    -0.00002912    0.00102588   -0.02117661
     atom   36 type  3   force =     0.00000000    0.00000000    0.00000000
     The Hubbard contrib.    to forces
     atom    1 type  1   force =     0.00000000    0.00000000    0.00000000
     atom    2 type  2   force =     0.00000000    0.00000000    0.00000000
     atom    3 type  2   force =     0.00000000    0.00000000    0.00000000
     atom    4 type  1   force =     0.00000000    0.00000000    0.00000000
     atom    5 type  2   force =     0.00000000    0.00000000    0.00000000
     atom    6 type  2   force =     0.00000000    0.00000000    0.00000000
     atom    7 type  1   force =     0.00000000    0.00000000    0.00000000
     atom    8 type  2   force =     0.00000000    0.00000000    0.00000000
     atom    9 type  2   force =     0.00000000    0.00000000    0.00000000
     atom   10 type  1   force =     0.00000000    0.00000000    0.00000000
     atom   11 type  2   force =     0.00000000    0.00000000    0.00000000
     atom   12 type  2   force =     0.00000000    0.00000000    0.00000000
     atom   13 type  1   force =     0.00000000    0.00000000    0.00000000
     atom   14 type  2   force =     0.00000000    0.00000000    0.00000000
     atom   15 type  2   force =     0.00000000    0.00000000    0.00000000
     atom   16 type  1   force =     0.00000000    0.00000000    0.00000000
     atom   17 type  2   force =     0.00000000    0.00000000    0.00000000
     atom   18 type  2   force =     0.00000000    0.00000000    0.00000000
     atom   19 type  1   force =     0.00000000    0.00000000    0.00000000
     atom   20 type  2   force =     0.00000000    0.00000000    0.00000000
     atom   21 type  1   force =     0.00000000    0.00000000    0.00000000
     atom   22 type  2   force =     0.00000000    0.00000000    0.00000000
     atom   23 type  2   force =     0.00000000    0.00000000    0.00000000
     atom   24 type  1   force =     0.00000000    0.00000000    0.00000000
     atom   25 type  2   force =     0.00000000    0.00000000    0.00000000
     atom   26 type  2   force =     0.00000000    0.00000000    0.00000000
     atom   27 type  1   force =     0.00000000    0.00000000    0.00000000
     atom   28 type  2   force =     0.00000000    0.00000000    0.00000000
     atom   29 type  2   force =     0.00000000    0.00000000    0.00000000
     atom   30 type  1   force =     0.00000000    0.00000000    0.00000000
     atom   31 type  2   force =     0.00000000    0.00000000    0.00000000
     atom   32 type  2   force =     0.00000000    0.00000000    0.00000000
     atom   33 type  1   force =     0.00000000    0.00000000    0.00000000
     atom   34 type  2   force =     0.00000000    0.00000000    0.00000000
     atom   35 type  2   force =     0.00000000    0.00000000    0.00000000
     atom   36 type  3   force =     0.00000000    0.00000000    0.00000000
     The SCF correction term to forces
     atom    1 type  1   force =    -0.00008286    0.00002168   -0.00018169
     atom    2 type  2   force =     0.00001479    0.00003990    0.00015417
     atom    3 type  2   force =     0.00005568   -0.00002105   -0.00033294
     atom    4 type  1   force =     0.00020454   -0.00026360   -0.00024721
     atom    5 type  2   force =    -0.00008068   -0.00001985    0.00024509
     atom    6 type  2   force =     0.00002671   -0.00008096   -0.00030069
     atom    7 type  1   force =    -0.00037758   -0.00026076   -0.00020840
     atom    8 type  2   force =    -0.00002011    0.00001065    0.00022824
     atom    9 type  2   force =     0.00006925    0.00002651   -0.00033742
     atom   10 type  1   force =     0.00032594    0.00005498   -0.00037760
     atom   11 type  2   force =    -0.00000098   -0.00003167    0.00025630
     atom   12 type  2   force =     0.00003715    0.00006976   -0.00041157
     atom   13 type  1   force =    -0.00003409   -0.00000249   -0.00012327
     atom   14 type  2   force =    -0.00008795    0.00006391    0.00013597
     atom   15 type  2   force =    -0.00006154    0.00000241   -0.00033459
     atom   16 type  1   force =    -0.00019977    0.00032979   -0.00000648
     atom   17 type  2   force =    -0.00001883   -0.00002945    0.00017386
     atom   18 type  2   force =    -0.00008938   -0.00008733   -0.00021811
     atom   19 type  1   force =     0.00013554   -0.00030363   -0.00011406
     atom   20 type  2   force =    -0.00006227    0.00000524   -0.00021457
     atom   21 type  1   force =    -0.00021918    0.00023968   -0.00030257
     atom   22 type  2   force =    -0.00002736   -0.00007487    0.00026149
     atom   23 type  2   force =     0.00001500    0.00000969   -0.00035442
     atom   24 type  1   force =     0.00020029    0.00018143   -0.00032154
     atom   25 type  2   force =     0.00007195    0.00006613    0.00018280
     atom   26 type  2   force =    -0.00001629    0.00005399   -0.00033212
     atom   27 type  1   force =    -0.00000823   -0.00013021   -0.00013924
     atom   28 type  2   force =     0.00009275   -0.00003867    0.00014425
     atom   29 type  2   force =     0.00005655   -0.00007680   -0.00028561
     atom   30 type  1   force =     0.00019987    0.00013050   -0.00037981
     atom   31 type  2   force =     0.00011952   -0.00001827    0.00019176
     atom   32 type  2   force =    -0.00001790    0.00001503   -0.00025456
     atom   33 type  1   force =    -0.00019339    0.00001840   -0.00014720
     atom   34 type  2   force =     0.00004577   -0.00003637    0.00018023
     atom   35 type  2   force =    -0.00003355    0.00004340   -0.00032508
     atom   36 type  3   force =     0.00002285    0.00000843    0.00001980

     Total force =     0.155260     Total SCF correction =     0.001852

     BFGS Geometry Optimization
     Energy error            =      0.0E+00 Ry
     Gradient error          =      7.2E-02 Ry/Bohr

     number of scf cycles    =   1
     number of bfgs steps    =   0

     energy             new  =   -2205.5163335019 Ry

     new trust radius        =       0.0984286616 bohr
     new conv_thr            =       0.0000010000 Ry


ATOMIC_POSITIONS (angstrom)
Mo            6.5821025015        1.7741611703        2.8260956495
S             8.1685943943        0.8185528602        4.4359033149
S             8.1868268330        0.8166675613        1.2770768758
Mo            8.0966629861        4.4967081499        2.7140806543
S             6.4992903884        3.7188181295        4.3431030585
S             6.5549083767        3.5172896037        1.1213393581
Mo            6.4949932369        7.2119517701        2.6691870522
S             8.0826050992        6.3472360953        4.2548088360
S             8.0874468289        6.3076667136        1.0892493221
Mo            8.1541762597        9.9117190070        2.8174741423
S             6.5075459473        8.9372779992        4.3845538495
S             6.6179433929        9.0497803944        1.1433824658
Mo            3.4245546696        1.7519026953        2.7726987355
S             4.9791596571        0.8169686929        4.3570474238
S             5.0510627213        0.8475559212        1.2218750693
Mo            4.9788765305        4.5190669485        2.6360625248
S             3.4306637511        3.6717499657        4.2808084710
S             3.4364345509        3.5447610614        1.0649272800
Mo            3.4546832829        7.2096133304        2.6276602572
S             4.9844991109        6.3243649293        1.0371012510
Mo            5.0043891354        9.9057041680        2.7399284810
S             3.4701151176        8.9426854844        4.3243968473
S             3.4067664254        9.0656270647        1.1013820023
Mo            0.2911255553        1.7437237344        2.8375222384
S             1.8595632854        0.8030212296        4.4032772833
S             1.8555199704        0.8528316854        1.2073963924
Mo            1.8602142513        4.4963176432        2.6640687956
S             0.2728753425        3.6534292315        4.3353670922
S             0.2322804514        3.5269096999        1.1711081420
Mo            0.2690544654        7.2230122574        2.6981717694
S             1.9031463583        6.3122842392        4.2310199070
S             1.8587537537        6.3132583001        1.0483910009
Mo            1.8631185776        9.9451330658        2.7540513290
S             0.2662446376        9.0517705798        4.4331423614
S             0.2723518813        9.0473219988        1.1583967982
H             8.4198061730        8.5043585847        5.3442667873



     Writing config-only to output data dir ./MoS2-V-O.save/
     NEW-OLD atomic charge density approx. for the potential

     negative rho (up, down):  1.464E-04 0.000E+00

     total cpu time spent up to now is       73.2 secs

     Self-consistent Calculation

     iteration #  1     ecut=    80.00 Ry     beta= 0.70
     Davidson diagonalization with overlap
     ethr =  1.00E-06,  avg # of iterations = 17.0

     negative rho (up, down):  1.062E-04 0.000E+00

     total cpu time spent up to now is       86.2 secs

     total energy              =   -2205.53582864 Ry
     estimated scf accuracy    <       0.00201296 Ry

     iteration #  2     ecut=    80.00 Ry     beta= 0.70
     Davidson diagonalization with overlap
     ethr =  6.56E-07,  avg # of iterations =  2.0

     negative rho (up, down):  9.802E-05 0.000E+00

     total cpu time spent up to now is      103.2 secs

     total energy              =   -2205.53580807 Ry
     estimated scf accuracy    <       0.00050925 Ry

     iteration #  3     ecut=    80.00 Ry     beta= 0.70
     Davidson diagonalization with overlap
     ethr =  1.66E-07,  avg # of iterations =  5.0

     negative rho (up, down):  9.660E-05 0.000E+00

     total cpu time spent up to now is      115.7 secs

     total energy              =   -2205.53588006 Ry
     estimated scf accuracy    <       0.00004681 Ry

     iteration #  4     ecut=    80.00 Ry     beta= 0.70
     Davidson diagonalization with overlap
     ethr =  1.52E-08,  avg # of iterations =  5.0

     negative rho (up, down):  8.917E-05 0.000E+00

     total cpu time spent up to now is      133.0 secs

     total energy              =   -2205.53589493 Ry
     estimated scf accuracy    <       0.00001246 Ry

     iteration #  5     ecut=    80.00 Ry     beta= 0.70
     Davidson diagonalization with overlap
     ethr =  4.06E-09,  avg # of iterations =  2.0

     negative rho (up, down):  7.929E-05 0.000E+00

     total cpu time spent up to now is      146.6 secs

     total energy              =   -2205.53589661 Ry
     estimated scf accuracy    <       0.00000299 Ry

     iteration #  6     ecut=    80.00 Ry     beta= 0.70
     Davidson diagonalization with overlap
     ethr =  9.73E-10,  avg # of iterations =  5.0

     negative rho (up, down):  7.750E-05 0.000E+00

     total cpu time spent up to now is      158.0 secs

     total energy              =   -2205.53589706 Ry
     estimated scf accuracy    <       0.00000159 Ry

     iteration #  7     ecut=    80.00 Ry     beta= 0.70
     Davidson diagonalization with overlap
     ethr =  5.19E-10,  avg # of iterations =  2.0

     negative rho (up, down):  1.378E-04 0.000E+00

     total cpu time spent up to now is      159.9 secs

     End of self-consistent calculation

          k = 0.0000 0.0000 0.0000 (105382 PWs)   bands (ev):

   -62.8898 -62.8845 -62.8714 -62.8568 -62.8360 -62.8093 -62.8022 -62.7989
   -62.7893 -62.7844 -62.7764 -62.7687 -37.2367 -37.1660 -37.1532 -37.1451
   -37.1332 -37.1103 -37.0838 -37.0752 -37.0697 -37.0678 -37.0556 -37.0454
   -37.0372 -37.0310 -37.0166 -37.0111 -37.0029 -36.9964 -36.9901 -36.9792
   -36.9753 -36.9616 -36.9573 -36.9397 -36.9357 -36.9321 -36.9177 -36.9033
   -36.9006 -36.8891 -36.8741 -36.8452 -36.8378 -36.8029 -36.7577 -36.7294
   -16.0238 -15.3136 -15.1384 -15.0082 -14.9707 -14.8479 -14.6143 -14.4985
   -14.4713 -14.4311 -14.4222 -14.3451 -14.3384 -14.2844 -14.1850 -14.1489
   -14.1135 -14.1089 -14.0251 -13.9368 -13.8619 -13.8306 -13.8031  -8.1254
    -7.6144  -7.4579  -7.2988  -7.2471  -7.2125  -7.1963  -7.1347  -7.0270
    -6.8326  -6.8067  -6.7365  -6.6761  -6.6182  -6.5262  -6.5078  -6.4273
    -6.2695  -6.2454  -6.0724  -5.9849  -5.9119  -5.8903  -5.8230  -5.8145
    -5.7654  -5.7276  -5.7014  -5.6602  -5.6187  -5.5601  -5.5248  -5.4571
    -5.4041  -5.3900  -5.1881  -5.1304  -5.0915  -5.0387  -4.9816  -4.9504
    -4.9297  -4.8464  -4.6488  -4.5313  -4.3996  -4.3325  -4.3103  -4.2590
    -4.1939  -4.1540  -4.0588  -3.8544  -3.8054  -3.7891  -3.7592  -3.7057
    -3.6885  -3.6017  -3.5409  -3.5181  -3.4885  -3.4666  -3.4355  -3.3795
    -3.3569  -3.2194  -3.1518  -2.9009  -2.8793  -2.8191  -2.7711  -2.7558
    -2.7063  -2.6702  -2.6481  -2.6351  -2.5762  -2.2836  -2.0655  -2.0000
    -1.9588  -1.1120  -0.8045  -0.6843  -0.1755  -0.1471  -0.1020  -0.0046
     0.0403   0.1198   0.1913   0.2336   0.2489   0.2962   0.3677   0.4080
     0.4645   0.5186   0.5429   0.5769   0.6070   0.6530   0.7064   0.7316
     0.7701   0.7975   0.8443   0.8920   0.9749   0.9850   1.0449   1.2601
     1.3816

     the Fermi energy is    -1.1122 ev

!    total energy              =   -2205.53589655 Ry
     estimated scf accuracy    <       0.00000078 Ry
     smearing contrib. (-TS)   =      -0.00567610 Ry
     internal energy E=F+TS    =   -2205.53022045 Ry

     The total energy is F=E-TS. E is the sum of the following terms:
     one-electron contribution =  -18044.49606250 Ry
     hartree contribution      =    9008.95139064 Ry
     xc contribution           =    -385.22447033 Ry
     ewald contribution        =    7215.23892174 Ry

     convergence has been achieved in   7 iterations

     negative rho (up, down):  1.378E-04 0.000E+00

     Forces acting on atoms (cartesian axes, Ry/au):

     atom    1 type  1   force =     0.00370681   -0.01315695    0.00038228
     atom    2 type  2   force =    -0.00959448    0.00988649   -0.00185900
     atom    3 type  2   force =    -0.01105063    0.01080523   -0.01153591
     atom    4 type  1   force =     0.00360810    0.00450282   -0.00041718
     atom    5 type  2   force =     0.00069020   -0.00664874   -0.00691478
     atom    6 type  2   force =     0.00165706    0.00692173    0.00222550
     atom    7 type  1   force =     0.00689241   -0.00786882    0.00020406
     atom    8 type  2   force =     0.00197658    0.00001067    0.01465866
     atom    9 type  2   force =     0.01141692    0.00479741    0.00488223
     atom   10 type  1   force =    -0.00491760    0.01042126   -0.01582190
     atom   11 type  2   force =     0.01444696   -0.00442169   -0.00778719
     atom   12 type  2   force =    -0.00351089    0.00075353    0.00019456
     atom   13 type  1   force =     0.00398946    0.00705943   -0.00251096
     atom   14 type  2   force =     0.00517816   -0.00045728    0.00780876
     atom   15 type  2   force =    -0.00956132    0.00270408   -0.00815819
     atom   16 type  1   force =    -0.00064159    0.00735001    0.00429177
     atom   17 type  2   force =     0.00455904    0.00100048    0.00275894
     atom   18 type  2   force =    -0.00166009   -0.00330938    0.01013217
     atom   19 type  1   force =     0.00104714   -0.00788795    0.00061941
     atom   20 type  2   force =     0.00318186   -0.00424783   -0.00266850
     atom   21 type  1   force =    -0.00570903    0.00143694    0.00311610
     atom   22 type  2   force =    -0.00172592   -0.00180237   -0.00474406
     atom   23 type  2   force =    -0.00044438   -0.00091877    0.00198421
     atom   24 type  1   force =    -0.00458518   -0.00584882   -0.00825787
     atom   25 type  2   force =     0.01226773    0.01332232    0.00062157
     atom   26 type  2   force =    -0.00496961    0.00044501   -0.00797556
     atom   27 type  1   force =    -0.00071046    0.00059762    0.00678141
     atom   28 type  2   force =    -0.00016880   -0.00311229   -0.00577740
     atom   29 type  2   force =     0.00208022    0.00079118   -0.00310679
     atom   30 type  1   force =    -0.00375007    0.00340591    0.00568035
     atom   31 type  2   force =     0.00068849   -0.00010419    0.01045969
     atom   32 type  2   force =    -0.00603996    0.00399884    0.00470713
     atom   33 type  1   force =     0.01390545    0.00445212   -0.01046184
     atom   34 type  2   force =    -0.05018911   -0.05333369    0.02300998
     atom   35 type  2   force =    -0.00414633    0.00876975    0.00656084
     atom   36 type  3   force =     0.03208282    0.00968592   -0.01308249
     The non-local contrib.  to forces
     atom    1 type  1   force =     0.00064152    0.02784889   -0.01331601
     atom    2 type  2   force =    -0.00747666   -0.00547789   -0.26685281
     atom    3 type  2   force =    -0.01217762   -0.00368294    0.26342470
     atom    4 type  1   force =     0.00083530    0.00492321    0.00171468
     atom    5 type  2   force =     0.00556162   -0.03443303   -0.25508138
     atom    6 type  2   force =    -0.00156041    0.00914677    0.26501455
     atom    7 type  1   force =    -0.01833869    0.00244555   -0.02125964
     atom    8 type  2   force =     0.00282721    0.01083308   -0.24007211
     atom    9 type  2   force =     0.00622396   -0.00458779    0.27510661
     atom   10 type  1   force =     0.00619335    0.00423081    0.00507499
     atom   11 type  2   force =     0.04044454   -0.00663149   -0.21588645
     atom   12 type  2   force =    -0.01168298   -0.01815108    0.26198155
     atom   13 type  1   force =    -0.00009329    0.01789028   -0.00583357
     atom   14 type  2   force =     0.00898757   -0.00948080   -0.26385188
     atom   15 type  2   force =    -0.01088917   -0.00647478    0.26127718
     atom   16 type  1   force =     0.00079591    0.03252783   -0.03198898
     atom   17 type  2   force =     0.00016611   -0.02472670   -0.24893498
     atom   18 type  2   force =    -0.00373090   -0.00117863    0.27179335
     atom   19 type  1   force =     0.01786741   -0.00027989   -0.01679544
     atom   20 type  2   force =    -0.00060785   -0.02038886    0.26504458
     atom   21 type  1   force =     0.00287166    0.02626255    0.00642734
     atom   22 type  2   force =    -0.00292110    0.00019991   -0.24966417
     atom   23 type  2   force =     0.00865589   -0.01321172    0.26548457
     atom   24 type  1   force =     0.00355704    0.01656317   -0.01059018
     atom   25 type  2   force =     0.01111778    0.01152458   -0.25732722
     atom   26 type  2   force =     0.00083751   -0.01295677    0.26265357
     atom   27 type  1   force =    -0.00377619    0.00556723    0.00855439
     atom   28 type  2   force =    -0.00305368   -0.02445824   -0.27697186
     atom   29 type  2   force =     0.00600416    0.00225745    0.26387703
     atom   30 type  1   force =     0.00017613    0.02238920    0.00983180
     atom   31 type  2   force =    -0.00914713    0.00233402   -0.25420405
     atom   32 type  2   force =     0.00171881   -0.01081085    0.27105182
     atom   33 type  1   force =    -0.00620119    0.00098248    0.00470878
     atom   34 type  2   force =    -0.19127020   -0.11494645   -0.09984144
     atom   35 type  2   force =    -0.00065737   -0.00961201    0.26948917
     atom   36 type  3   force =     0.01482070    0.00671200   -0.01372140
     The ionic contribution  to forces
     atom    1 type  1   force =     0.04478327    0.69107799    5.81125900
     atom    2 type  2   force =    -0.46518396    0.47835119   39.31994935
     atom    3 type  2   force =    -0.14809529    0.14609714  -36.25673672
     atom    4 type  1   force =     0.06136576    0.37021951    0.56655868
     atom    5 type  2   force =    -0.97381836    1.43386330   38.66005636
     atom    6 type  2   force =     0.26511983   -0.55402102  -37.92536680
     atom    7 type  1   force =    -3.00232528   -2.78486638    2.21198233
     atom    8 type  2   force =    -1.04437408   -0.51164123   37.29062292
     atom    9 type  2   force =     0.33499044   -0.11009905  -38.04845913
     atom   10 type  1   force =    -0.77737232    0.01276874    4.21147591
     atom   11 type  2   force =    -1.18466662   -1.39779126   38.77507692
     atom   12 type  2   force =     0.27125180    0.60343840  -37.88569739
     atom   13 type  1   force =     0.45546754    1.04618101    2.86572098
     atom   14 type  2   force =    -0.05357220    0.05611696   38.60379400
     atom   15 type  2   force =     0.17645583    0.03932194  -36.85482618
     atom   16 type  1   force =     0.01615710    3.69708970    0.69431109
     atom   17 type  2   force =     0.80470503    1.44594519   37.97852865
     atom   18 type  2   force =    -0.14041576   -0.59074077  -38.48497065
     atom   19 type  1   force =     2.71398368   -2.38946866    0.59500269
     atom   20 type  2   force =     0.20982233   -0.20546530  -38.52974630
     atom   21 type  1   force =     0.06214717   -0.03886213    1.18099830
     atom   22 type  2   force =     0.40842546   -1.70191470   38.42653525
     atom   23 type  2   force =    -0.01019438    0.53236885  -38.32623223
     atom   24 type  1   force =    -0.26420586    1.16392075    5.57742181
     atom   25 type  2   force =     0.55860726    0.22537625   39.24536301
     atom   26 type  2   force =    -0.25196547    0.18570374  -37.34579501
     atom   27 type  1   force =     0.03132201    0.32970604   -2.00100762
     atom   28 type  2   force =     0.06170413    0.88366239   38.17094277
     atom   29 type  2   force =    -0.21792453   -0.37806700  -37.26021581
     atom   30 type  1   force =     0.09949718   -1.14122737   -0.52760040
     atom   31 type  2   force =     1.32601888   -0.10359268   37.35205734
     atom   32 type  2   force =    -0.45774508   -0.06946929  -38.60509328
     atom   33 type  1   force =     0.36957859   -0.77812765    1.73415895
     atom   34 type  2   force =     1.28984360   -0.69042575   38.68680274
     atom   35 type  2   force =    -0.18442870    0.46447158  -37.77163616
     atom   36 type  3   force =    -0.38495900   -0.35990042    7.86476460
     The local contribution  to forces
     atom    1 type  1   force =    -0.04176982   -0.73220305   -5.79871733
     atom    2 type  2   force =     0.46276129   -0.46298295  -39.07605138
     atom    3 type  2   force =     0.14867667   -0.13179593   36.00222313
     atom    4 type  1   force =    -0.05853752   -0.37079224   -0.56979987
     atom    5 type  2   force =     0.96948145   -1.40798989  -38.43265310
     atom    6 type  2   force =    -0.26209104    0.55281120   37.68308791
     atom    7 type  1   force =     3.02743156    2.77451502   -2.19180571
     atom    8 type  2   force =     1.04361409    0.50115009  -37.05596487
     atom    9 type  2   force =    -0.32970349    0.11919889   37.79884264
     atom   10 type  1   force =     0.76604937   -0.00630359   -4.23387642
     atom   11 type  2   force =     1.16080380    1.39994334  -38.58556262
     atom   12 type  2   force =    -0.26402453   -0.58578386   37.64428928
     atom   13 type  1   force =    -0.45146050   -1.05712339   -2.86345199
     atom   14 type  2   force =     0.05028357   -0.04709444  -38.35329396
     atom   15 type  2   force =    -0.17579236   -0.03065020   36.60567230
     atom   16 type  1   force =    -0.01771776   -3.72234890   -0.65905834
     atom   17 type  2   force =    -0.80042126   -1.42154579  -37.74745152
     atom   18 type  2   force =     0.14241447    0.58907964   38.24396110
     atom   19 type  1   force =    -2.73077213    2.38181016   -0.57877600
     atom   20 type  2   force =    -0.20625275    0.22086673   38.28290087
     atom   21 type  1   force =    -0.07073094    0.01428388   -1.18554753
     atom   22 type  2   force =    -0.40710843    1.70029176  -38.20213593
     atom   23 type  2   force =     0.00166327   -0.52108840   38.08326389
     atom   24 type  1   force =     0.25612718   -1.18623997   -5.57621203
     atom   25 type  2   force =    -0.55713785   -0.22268131  -39.00821624
     atom   26 type  2   force =     0.24647516   -0.17308054   37.09565689
     atom   27 type  1   force =    -0.02818155   -0.33482722    1.99817360
     atom   28 type  2   force =    -0.05898416   -0.86408162  -37.92121601
     atom   29 type  2   force =     0.21450394    0.37707262   37.01352870
     atom   30 type  1   force =    -0.10341111    1.12202462    0.52212576
     atom   31 type  2   force =    -1.31661850    0.10105633  -37.10837699
     atom   32 type  2   force =     0.45040509    0.08371513   38.35934663
     atom   33 type  1   force =    -0.34928924    0.78185087   -1.75081599
     atom   34 type  2   force =    -1.16069670    0.74578586  -38.57486159
     atom   35 type  2   force =     0.18101480   -0.44696125   37.52930141
     atom   36 type  3   force =     0.40221627    0.36287170   -7.86419193
     The core correction contribution to forces
     atom    1 type  1   force =     0.00000000    0.00000000    0.00000000
     atom    2 type  2   force =     0.00024209    0.00015231    0.02057863
     atom    3 type  2   force =     0.00054543    0.00013845   -0.02077221
     atom    4 type  1   force =     0.00000000    0.00000000    0.00000000
     atom    5 type  2   force =    -0.00056927    0.00186900    0.02040522
     atom    6 type  2   force =     0.00021034   -0.00105697   -0.02088643
     atom    7 type  1   force =     0.00000000    0.00000000    0.00000000
     atom    8 type  2   force =    -0.00008232   -0.00039767    0.01956224
     atom    9 type  2   force =    -0.00008303    0.00029784   -0.02098778
     atom   10 type  1   force =     0.00000000    0.00000000    0.00000000
     atom   11 type  2   force =    -0.00223883    0.00013102    0.01818849
     atom   12 type  2   force =     0.00098367    0.00135921   -0.02080695
     atom   13 type  1   force =     0.00000000    0.00000000    0.00000000
     atom   14 type  2   force =    -0.00055774    0.00003255    0.02067392
     atom   15 type  2   force =     0.00064756    0.00045982   -0.02057554
     atom   16 type  1   force =     0.00000000    0.00000000    0.00000000
     atom   17 type  2   force =     0.00009124    0.00126017    0.02021105
     atom   18 type  2   force =     0.00006215   -0.00053009   -0.02097942
     atom   19 type  1   force =     0.00000000    0.00000000    0.00000000
     atom   20 type  2   force =     0.00016703    0.00074983   -0.02121064
     atom   21 type  1   force =     0.00000000    0.00000000    0.00000000
     atom   22 type  2   force =    -0.00000940   -0.00033412    0.02009097
     atom   23 type  2   force =    -0.00055818    0.00107259   -0.02091420
     atom   24 type  1   force =     0.00000000    0.00000000    0.00000000
     atom   25 type  2   force =    -0.00021486   -0.00071100    0.02039839
     atom   26 type  2   force =    -0.00028145    0.00078886   -0.02084487
     atom   27 type  1   force =     0.00000000    0.00000000    0.00000000
     atom   28 type  2   force =     0.00020652    0.00169121    0.02104569
     atom   29 type  2   force =    -0.00051133   -0.00055254   -0.02061475
     atom   30 type  1   force =     0.00000000    0.00000000    0.00000000
     atom   31 type  2   force =     0.00051127    0.00000506    0.02046680
     atom   32 type  2   force =    -0.00037791    0.00059493   -0.02094468
     atom   33 type  1   force =     0.00000000    0.00000000    0.00000000
     atom   34 type  2   force =     0.01186638    0.00616870    0.01057244
     atom   35 type  2   force =    -0.00011500    0.00090763   -0.02109418
     atom   36 type  3   force =     0.00000000    0.00000000    0.00000000
     The Hubbard contrib.    to forces
     atom    1 type  1   force =     0.00000000    0.00000000    0.00000000
     atom    2 type  2   force =     0.00000000    0.00000000    0.00000000
     atom    3 type  2   force =     0.00000000    0.00000000    0.00000000
     atom    4 type  1   force =     0.00000000    0.00000000    0.00000000
     atom    5 type  2   force =     0.00000000    0.00000000    0.00000000
     atom    6 type  2   force =     0.00000000    0.00000000    0.00000000
     atom    7 type  1   force =     0.00000000    0.00000000    0.00000000
     atom    8 type  2   force =     0.00000000    0.00000000    0.00000000
     atom    9 type  2   force =     0.00000000    0.00000000    0.00000000
     atom   10 type  1   force =     0.00000000    0.00000000    0.00000000
     atom   11 type  2   force =     0.00000000    0.00000000    0.00000000
     atom   12 type  2   force =     0.00000000    0.00000000    0.00000000
     atom   13 type  1   force =     0.00000000    0.00000000    0.00000000
     atom   14 type  2   force =     0.00000000    0.00000000    0.00000000
     atom   15 type  2   force =     0.00000000    0.00000000    0.00000000
     atom   16 type  1   force =     0.00000000    0.00000000    0.00000000
     atom   17 type  2   force =     0.00000000    0.00000000    0.00000000
     atom   18 type  2   force =     0.00000000    0.00000000    0.00000000
     atom   19 type  1   force =     0.00000000    0.00000000    0.00000000
     atom   20 type  2   force =     0.00000000    0.00000000    0.00000000
     atom   21 type  1   force =     0.00000000    0.00000000    0.00000000
     atom   22 type  2   force =     0.00000000    0.00000000    0.00000000
     atom   23 type  2   force =     0.00000000    0.00000000    0.00000000
     atom   24 type  1   force =     0.00000000    0.00000000    0.00000000
     atom   25 type  2   force =     0.00000000    0.00000000    0.00000000
     atom   26 type  2   force =     0.00000000    0.00000000    0.00000000
     atom   27 type  1   force =     0.00000000    0.00000000    0.00000000
     atom   28 type  2   force =     0.00000000    0.00000000    0.00000000
     atom   29 type  2   force =     0.00000000    0.00000000    0.00000000
     atom   30 type  1   force =     0.00000000    0.00000000    0.00000000
     atom   31 type  2   force =     0.00000000    0.00000000    0.00000000
     atom   32 type  2   force =     0.00000000    0.00000000    0.00000000
     atom   33 type  1   force =     0.00000000    0.00000000    0.00000000
     atom   34 type  2   force =     0.00000000    0.00000000    0.00000000
     atom   35 type  2   force =     0.00000000    0.00000000    0.00000000
     atom   36 type  3   force =     0.00000000    0.00000000    0.00000000
     The SCF correction term to forces
     atom    1 type  1   force =     0.00005364    0.00011942    0.00112977
     atom    2 type  2   force =     0.00006457   -0.00015598    0.00049036
     atom    3 type  2   force =     0.00000199    0.00004871    0.00029834
     atom    4 type  1   force =    -0.00005362    0.00015254    0.00108248
     atom    5 type  2   force =     0.00003657    0.00004206    0.00033127
     atom    6 type  2   force =    -0.00001986    0.00004196    0.00034941
     atom    7 type  1   force =     0.00012663    0.00003720    0.00126023
     atom    8 type  2   force =    -0.00000652    0.00006661    0.00048363
     atom    9 type  2   force =    -0.00000915   -0.00001228    0.00035304
     atom   10 type  1   force =     0.00021380   -0.00027450    0.00147676
     atom   11 type  2   force =     0.00010588   -0.00007310    0.00036963
     atom   12 type  2   force =    -0.00003704   -0.00010893    0.00040122
     atom   13 type  1   force =     0.00007751    0.00011173    0.00102677
     atom   14 type  2   force =     0.00003876   -0.00003135    0.00045984
     atom   15 type  2   force =     0.00001862    0.00004752    0.00026720
     atom   16 type  1   force =     0.00012497    0.00008158    0.00100113
     atom   17 type  2   force =     0.00001973    0.00006782    0.00037889
     atom   18 type  2   force =     0.00001175    0.00006067    0.00030093
     atom   19 type  1   force =    -0.00003001    0.00005064    0.00116131
     atom   20 type  2   force =     0.00005491   -0.00001003    0.00031615
     atom   21 type  1   force =     0.00000489   -0.00024716    0.00121114
     atom   22 type  2   force =    -0.00011065   -0.00004503    0.00040296
     atom   23 type  2   force =    -0.00000918   -0.00005988    0.00035532
     atom   24 type  1   force =    -0.00006173   -0.00009257    0.00109567
     atom   25 type  2   force =    -0.00010280   -0.00018601    0.00037678
     atom   26 type  2   force =    -0.00003354   -0.00001007    0.00032701
     atom   27 type  1   force =    -0.00007292    0.00015178    0.00103418
     atom   28 type  2   force =    -0.00003981    0.00007417    0.00039515
     atom   29 type  2   force =     0.00000978    0.00008085    0.00029119
     atom   30 type  1   force =    -0.00001046    0.00021966    0.00129634
     atom   31 type  2   force =    -0.00007422    0.00009327    0.00048974
     atom   32 type  2   force =    -0.00003906   -0.00003088    0.00031979
     atom   33 type  1   force =    -0.00018090   -0.00025338    0.00145957
     atom   34 type  2   force =     0.00006962    0.00008416    0.00031097
     atom   35 type  2   force =     0.00004174   -0.00003599    0.00047373
     atom   36 type  3   force =     0.00000665    0.00000284    0.00003939

     Total force =     0.106674     Total SCF correction =     0.004595
     Energy error            =      2.0E-02 Ry
     Gradient error          =      5.3E-02 Ry/Bohr

     number of scf cycles    =   2
     number of bfgs steps    =   1

     energy             old  =   -2205.5163335020 Ry
     energy             new  =   -2205.5358965460 Ry

     CASE: energy            _new < energy            _old

     new trust radius        =       0.1082715278 bohr
     new conv_thr            =       0.0000000533 Ry


ATOMIC_POSITIONS (angstrom)
Mo            6.5860640606        1.7632142187        2.8269000156
S             8.1610456233        0.8264465370        4.4351353794
S             8.1788277901        0.8242907360        1.2701174700
Mo            8.0991348886        4.4997406857        2.7129518729
S             6.4995489938        3.7140671472        4.3382044418
S             6.5562492668        3.5226640051        1.1226591465
Mo            6.5002226031        7.2058008972        2.6686688225
S             8.0839723568        6.3480382286        4.2663299752
S             8.0956898673        6.3111826800        1.0933878607
Mo            8.1497671058        9.9200895941        2.8020444242
S             6.5189502240        8.9333475979        4.3803272832
S             6.6158824921        9.0504753959        1.1443185237
Mo            3.4275801646        1.7572147588        2.7703332318
S             4.9831425759        0.8167068851        4.3631698771
S             5.0438512516        0.8494485286        1.2159569733
Mo            4.9782919195        4.5247723236        2.6393323192
S             3.4340061971        3.6723725361        4.2826871674
S             3.4351090402        3.5419991729        1.0724274717
Mo            3.4554919886        7.2033978514        2.6273102442
S             4.9866652207        6.3212653288        1.0354994559
Mo            4.9991769378        9.9075179432        2.7409355724
S             3.4689030621        8.9413758867        4.3213307862
S             3.4061124379        9.0652386549        1.1038029632
Mo            0.2872609726        1.7393965904        2.8298572043
S             1.8689138043        0.8132805175        4.4048405714
S             1.8513552956        0.8527157422        1.2022426934
Mo            1.8596845653        4.4968222361        2.6689633794
S             0.2729327478        3.6513737927        4.3314528834
S             0.2337491681        3.5272936219        1.1690700814
Mo            0.2663580092        7.2265163117        2.7006710857
S             1.9037651024        6.3121013982        4.2391853290
S             1.8543857257        6.3162939026        1.0520591257
Mo            1.8757172499        9.9489264302        2.7434440882
S             0.2297795906        9.0114361974        4.4512015677
S             0.2688737895        9.0533654691        1.1641374667
H             8.4418938117        8.5110121626        5.3353660649



     Writing config-only to output data dir ./MoS2-V-O.save/
     NEW-OLD atomic charge density approx. for the potential

     negative rho (up, down):  1.476E-04 0.000E+00

     total cpu time spent up to now is      163.2 secs

     Self-consistent Calculation

     iteration #  1     ecut=    80.00 Ry     beta= 0.70
     Davidson diagonalization with overlap
     ethr =  1.00E-06,  avg # of iterations = 11.0

     negative rho (up, down):  8.693E-05 0.000E+00

     total cpu time spent up to now is      175.4 secs

     total energy              =   -2205.54958326 Ry
     estimated scf accuracy    <       0.00121380 Ry

     iteration #  2     ecut=    80.00 Ry     beta= 0.70
     Davidson diagonalization with overlap
     ethr =  3.95E-07,  avg # of iterations =  2.0

     negative rho (up, down):  5.544E-05 0.000E+00

     total cpu time spent up to now is      193.4 secs

     total energy              =   -2205.54957104 Ry
     estimated scf accuracy    <       0.00028763 Ry

     iteration #  3     ecut=    80.00 Ry     beta= 0.70
     Davidson diagonalization with overlap
     ethr =  9.37E-08,  avg # of iterations =  5.0

     negative rho (up, down):  4.781E-05 0.000E+00

     total cpu time spent up to now is      207.4 secs

     total energy              =   -2205.54961026 Ry
     estimated scf accuracy    <       0.00002796 Ry

     iteration #  4     ecut=    80.00 Ry     beta= 0.70
     Davidson diagonalization with overlap
     ethr =  9.11E-09,  avg # of iterations =  9.0

     negative rho (up, down):  4.485E-05 0.000E+00

     total cpu time spent up to now is      220.7 secs

     total energy              =   -2205.54961655 Ry
     estimated scf accuracy    <       0.00000723 Ry

     iteration #  5     ecut=    80.00 Ry     beta= 0.70
     Davidson diagonalization with overlap
     ethr =  2.36E-09,  avg # of iterations =  3.0

     negative rho (up, down):  4.617E-05 0.000E+00

     total cpu time spent up to now is      234.0 secs

     total energy              =   -2205.54961736 Ry
     estimated scf accuracy    <       0.00000180 Ry

     iteration #  6     ecut=    80.00 Ry     beta= 0.70
     Davidson diagonalization with overlap
     ethr =  5.87E-10,  avg # of iterations =  5.0

     negative rho (up, down):  5.223E-05 0.000E+00

     total cpu time spent up to now is      246.5 secs

     total energy              =   -2205.54961757 Ry
     estimated scf accuracy    <       0.00000052 Ry

     iteration #  7     ecut=    80.00 Ry     beta= 0.70
     Davidson diagonalization with overlap
     ethr =  1.69E-10,  avg # of iterations =  2.0

     negative rho (up, down):  7.429E-05 0.000E+00

     total cpu time spent up to now is      256.0 secs

     total energy              =   -2205.54961754 Ry
     estimated scf accuracy    <       0.00000023 Ry

     iteration #  8     ecut=    80.00 Ry     beta= 0.70
     Davidson diagonalization with overlap
     ethr =  7.35E-11,  avg # of iterations =  5.0

     negative rho (up, down):  1.380E-04 0.000E+00

     total cpu time spent up to now is      258.2 secs

     End of self-consistent calculation

          k = 0.0000 0.0000 0.0000 (105382 PWs)   bands (ev):

   -62.8826 -62.8774 -62.8664 -62.8481 -62.8270 -62.8024 -62.7927 -62.7909
   -62.7825 -62.7743 -62.7641 -62.7596 -37.2288 -37.1591 -37.1444 -37.1369
   -37.1240 -37.1014 -37.0755 -37.0698 -37.0596 -37.0586 -37.0418 -37.0376
   -37.0295 -37.0205 -37.0088 -37.0048 -36.9940 -36.9837 -36.9798 -36.9712
   -36.9611 -36.9539 -36.9514 -36.9316 -36.9279 -36.9273 -36.9103 -36.8985
   -36.8883 -36.8816 -36.8664 -36.8318 -36.8256 -36.7909 -36.7486 -36.7266
   -16.0242 -15.3492 -15.1311 -15.0165 -14.9519 -14.8405 -14.6188 -14.4867
   -14.4593 -14.4170 -14.4159 -14.3346 -14.3279 -14.2784 -14.1814 -14.1345
   -14.1083 -14.1017 -14.0169 -13.9250 -13.8585 -13.8244 -13.7901  -8.2223
    -7.6086  -7.4480  -7.2838  -7.2231  -7.2045  -7.1818  -7.1307  -7.0399
    -6.8209  -6.7978  -6.7247  -6.6600  -6.6125  -6.5303  -6.5002  -6.4014
    -6.2587  -6.2427  -6.0901  -5.9713  -5.9108  -5.8743  -5.8078  -5.7969
    -5.7604  -5.7212  -5.6933  -5.6505  -5.6136  -5.5622  -5.5123  -5.4492
    -5.3847  -5.3679  -5.1726  -5.1261  -5.0815  -5.0309  -4.9685  -4.9474
    -4.9295  -4.8371  -4.6357  -4.5341  -4.4151  -4.3205  -4.2919  -4.2450
    -4.2009  -4.1658  -4.0572  -3.8540  -3.7986  -3.7823  -3.7468  -3.6864
    -3.6785  -3.5934  -3.5287  -3.5192  -3.4830  -3.4606  -3.4241  -3.3712
    -3.3402  -3.2186  -3.1486  -2.8834  -2.8725  -2.8004  -2.7654  -2.7593
    -2.6931  -2.6683  -2.6464  -2.6206  -2.5623  -2.2736  -2.0648  -1.9940
    -1.9672  -1.0737  -0.7818  -0.6986  -0.1695  -0.1366  -0.0881   0.0040
     0.0486   0.1266   0.1802   0.2446   0.2676   0.3127   0.3903   0.4134
     0.4774   0.5305   0.5513   0.5912   0.6222   0.6584   0.7118   0.7435
     0.7722   0.8149   0.8530   0.9040   0.9920   1.0025   1.0493   1.2481
     1.3980

     the Fermi energy is    -1.0740 ev

!    total energy              =   -2205.54961740 Ry
     estimated scf accuracy    <       0.00000005 Ry
     smearing contrib. (-TS)   =      -0.00570060 Ry
     internal energy E=F+TS    =   -2205.54391680 Ry

     The total energy is F=E-TS. E is the sum of the following terms:
     one-electron contribution =  -18041.78371462 Ry
     hartree contribution      =    9007.67743412 Ry
     xc contribution           =    -385.23319386 Ry
     ewald contribution        =    7213.79555755 Ry

     convergence has been achieved in   8 iterations

     negative rho (up, down):  1.380E-04 0.000E+00

     Forces acting on atoms (cartesian axes, Ry/au):

     atom    1 type  1   force =    -0.00358608   -0.00316601   -0.00408679
     atom    2 type  2   force =    -0.00491238    0.00487955   -0.00328354
     atom    3 type  2   force =    -0.00888891    0.00941568   -0.01514241
     atom    4 type  1   force =     0.00368934    0.00402188    0.00228326
     atom    5 type  2   force =     0.00190722   -0.00591469   -0.00588268
     atom    6 type  2   force =     0.00079871    0.00454759    0.00368107
     atom    7 type  1   force =     0.00442187   -0.00434248    0.00097675
     atom    8 type  2   force =     0.00109465   -0.00589029    0.00894128
     atom    9 type  2   force =     0.00979901    0.00399690    0.00165766
     atom   10 type  1   force =    -0.00184888    0.00510192    0.00156187
     atom   11 type  2   force =     0.00487124    0.00056033   -0.01331632
     atom   12 type  2   force =    -0.00499179   -0.00034981   -0.00230600
     atom   13 type  1   force =     0.00234629    0.00405316   -0.00036032
     atom   14 type  2   force =     0.00291000   -0.00069420    0.00462704
     atom   15 type  2   force =    -0.00681146    0.00149488   -0.00559201
     atom   16 type  1   force =     0.00024649    0.00414881    0.00247513
     atom   17 type  2   force =     0.00380431    0.00180329    0.00373013
     atom   18 type  2   force =    -0.00072250   -0.00003113    0.00776698
     atom   19 type  1   force =     0.00106250   -0.00420899    0.00278941
     atom   20 type  2   force =     0.00341655   -0.00307065   -0.00276150
     atom   21 type  1   force =     0.00051186   -0.00161588    0.00584407
     atom   22 type  2   force =    -0.00223726   -0.00181195   -0.00435245
     atom   23 type  2   force =     0.00118449   -0.00250878   -0.00158764
     atom   24 type  1   force =    -0.00163822   -0.00380435   -0.00206051
     atom   25 type  2   force =     0.00768127    0.00793545   -0.00367219
     atom   26 type  2   force =    -0.00085278    0.00221706   -0.00806194
     atom   27 type  1   force =    -0.00048254    0.00030383    0.00490173
     atom   28 type  2   force =    -0.00101307   -0.00389592   -0.00515643
     atom   29 type  2   force =     0.00208131    0.00168346   -0.00251490
     atom   30 type  1   force =    -0.00374932   -0.00169187    0.01018847
     atom   31 type  2   force =     0.00051394   -0.00016319    0.00694577
     atom   32 type  2   force =    -0.00498996    0.00260600    0.00402047
     atom   33 type  1   force =     0.00049232    0.00225221    0.00069187
     atom   34 type  2   force =    -0.04111458   -0.03577580    0.01776584
     atom   35 type  2   force =    -0.00080228    0.00810461    0.00293940
     atom   36 type  3   force =     0.03580860    0.00980939   -0.01365055
     The non-local contrib.  to forces
     atom    1 type  1   force =     0.00145724    0.02497453   -0.01335783
     atom    2 type  2   force =    -0.00432838   -0.00902569   -0.26522084
     atom    3 type  2   force =    -0.00955397   -0.00537297    0.25943263
     atom    4 type  1   force =     0.00123224    0.00623328    0.00115910
     atom    5 type  2   force =     0.00640424   -0.03387933   -0.25541373
     atom    6 type  2   force =    -0.00206829    0.00681555    0.26700594
     atom    7 type  1   force =    -0.01735376    0.00126248   -0.02240070
     atom    8 type  2   force =     0.00141944    0.00647479   -0.24605801
     atom    9 type  2   force =     0.00479810   -0.00483184    0.27320628
     atom   10 type  1   force =     0.00602679    0.00505255    0.00496815
     atom   11 type  2   force =     0.02634421   -0.00397633   -0.22399407
     atom   12 type  2   force =    -0.01189438   -0.01844976    0.26203378
     atom   13 type  1   force =     0.00044875    0.01904931   -0.00586775
     atom   14 type  2   force =     0.00728276   -0.00959379   -0.26548692
     atom   15 type  2   force =    -0.00869647   -0.00784895    0.26231122
     atom   16 type  1   force =     0.00025987    0.03369777   -0.03271338
     atom   17 type  2   force =    -0.00081718   -0.02291413   -0.24858968
     atom   18 type  2   force =    -0.00306063    0.00136681    0.27039465
     atom   19 type  1   force =     0.01886179   -0.00042786   -0.01725876
     atom   20 type  2   force =    -0.00026253   -0.01832560    0.26480730
     atom   21 type  1   force =     0.00052626    0.02648703    0.00579679
     atom   22 type  2   force =    -0.00080830   -0.00079459   -0.24917402
     atom   23 type  2   force =     0.01005500   -0.01395530    0.26332186
     atom   24 type  1   force =     0.00240565    0.01608056   -0.00985870
     atom   25 type  2   force =     0.00831393    0.00874051   -0.25920679
     atom   26 type  2   force =     0.00406823   -0.01161470    0.26267443
     atom   27 type  1   force =    -0.00349017    0.00490702    0.00762355
     atom   28 type  2   force =    -0.00319408   -0.02433387   -0.27720611
     atom   29 type  2   force =     0.00547109    0.00156003    0.26526600
     atom   30 type  1   force =    -0.00014941    0.02417018    0.00781546
     atom   31 type  2   force =    -0.00931086    0.00194129   -0.25567380
     atom   32 type  2   force =     0.00340788   -0.01182013    0.27059147
     atom   33 type  1   force =    -0.00431998    0.00005882    0.00429119
     atom   34 type  2   force =    -0.21151958   -0.10951927   -0.08854787
     atom   35 type  2   force =     0.00139300   -0.00973004    0.26886320
     atom   36 type  3   force =     0.02012248    0.00832985   -0.01715496
     The ionic contribution  to forces
     atom    1 type  1   force =    -0.14503997    0.93801051    5.81022556
     atom    2 type  2   force =    -0.29614332    0.37636535   39.37256664
     atom    3 type  2   force =    -0.11442598    0.17921976  -36.41887650
     atom    4 type  1   force =     0.02888273    0.26588978    0.54805871
     atom    5 type  2   force =    -0.95357839    1.40490183   38.56392196
     atom    6 type  2   force =     0.22257863   -0.57962514  -37.83812664
     atom    7 type  1   force =    -3.13614449   -2.61950352    2.17203476
     atom    8 type  2   force =    -1.07350866   -0.58494786   37.42519950
     atom    9 type  2   force =     0.33260264   -0.11654525  -38.05835374
     atom   10 type  1   force =    -0.46383093   -0.01254909    3.66283316
     atom   11 type  2   force =    -1.24584721   -1.34913867   38.67655185
     atom   12 type  2   force =     0.18417234    0.52974765  -37.85638335
     atom   13 type  1   force =     0.40731641    0.97188025    2.84277708
     atom   14 type  2   force =    -0.11432555    0.04752817   38.67634930
     atom   15 type  2   force =     0.19033271    0.05608986  -36.90944188
     atom   16 type  1   force =     0.08261866    3.57064129    0.86056762
     atom   17 type  2   force =     0.79635015    1.41465002   38.01851596
     atom   18 type  2   force =    -0.13226317   -0.53163971  -38.41996766
     atom   19 type  1   force =     2.68606847   -2.25140893    0.60501851
     atom   20 type  2   force =     0.19953705   -0.17023577  -38.57721507
[...]
     atom   27 type  1   force =    -0.00294200    0.00351991    0.00202612
     atom   28 type  2   force =     0.00264827   -0.01289119   -0.27418843
     atom   29 type  2   force =    -0.00085649   -0.00910034    0.26854765
     atom   30 type  1   force =     0.00189374    0.02361042    0.00045991
     atom   31 type  2   force =    -0.01273445    0.00152545   -0.26036744
     atom   32 type  2   force =     0.01022962   -0.01395355    0.26792378
     atom   33 type  1   force =    -0.00707195   -0.00064820    0.00708072
     atom   34 type  2   force =    -0.24438846   -0.13886802   -0.02548809
     atom   35 type  2   force =     0.00132789   -0.01294161    0.26929600
     atom   36 type  3   force =     0.03304418    0.01835927   -0.03715635
     The ionic contribution  to forces
     atom    1 type  1   force =    -0.05041167    0.78113905    2.13857914
     atom    2 type  2   force =    -0.12854176    0.36670384   38.70578694
     atom    3 type  2   force =     0.07982302   -0.10187873  -37.35763207
     atom    4 type  1   force =    -0.06509103    0.09172420    0.34415499
     atom    5 type  2   force =    -0.85919868    1.05721485   38.22489775
     atom    6 type  2   force =     0.19200061   -0.30102893  -37.96501138
     atom    7 type  1   force =    -3.02650269   -2.28335681    1.89954378
     atom    8 type  2   force =    -1.47040247   -0.47367102   38.12565638
     atom    9 type  2   force =     0.42053628    0.00330164  -37.86793566
     atom   10 type  1   force =     0.20043954    0.09274022    3.85556740
     atom   11 type  2   force =    -1.12457945   -1.30049016   38.26731280
     atom   12 type  2   force =     0.27014054    0.34366146  -38.01999171
     atom   13 type  1   force =     0.24465003    0.82225978    2.32423293
     atom   14 type  2   force =    -0.07255399   -0.00355278   38.42328212
     atom   15 type  2   force =     0.10640127   -0.04002929  -37.57046555
     atom   16 type  1   force =     0.08815288    3.46498172    1.94162905
     atom   17 type  2   force =     0.86855741    1.07565952   38.46781273
     atom   18 type  2   force =    -0.21802792   -0.20191928  -38.00555702
     atom   19 type  1   force =     2.53357803   -1.83594069    2.84624474
     atom   20 type  2   force =    -0.02517784   -0.04888720  -38.51365884
     atom   21 type  1   force =    -0.04141623   -0.21975667    0.26112661
     atom   22 type  2   force =     0.19180570   -1.29719537   38.16322931
     atom   23 type  2   force =    -0.17311327    0.01250413  -38.22424465
     atom   24 type  1   force =    -0.22935042    0.52705350    2.09686635
     atom   25 type  2   force =     0.19769842   -0.09948118   38.73399585
     atom   26 type  2   force =    -0.18638873    0.15882399  -38.04266904
     atom   27 type  1   force =     0.04764423    0.35519822    1.23578230
     atom   28 type  2   force =    -0.02935758    0.35666217   38.04684894
     atom   29 type  2   force =    -0.01997017   -0.03780830  -37.40831877
     atom   30 type  1   force =     0.85733263   -0.31143878    3.55036781
     atom   31 type  2   force =     1.41646713    0.10300419   38.29097629
     atom   32 type  2   force =    -0.45006547    0.08416630  -37.56730264
     atom   33 type  1   force =    -0.62824245   -1.29829428    0.60378851
     atom   34 type  2   force =     1.87580111    0.65168906   38.61876886
     atom   35 type  2   force =    -0.05967821   -0.04189738  -36.91404717
     atom   36 type  3   force =    -0.73295880   -0.45186098    8.29038290
     The local contribution  to forces
     atom    1 type  1   force =     0.05497934   -0.80563108   -2.13288498
     atom    2 type  2   force =     0.12895427   -0.34992814  -38.46457595
     atom    3 type  2   force =    -0.07668838    0.11129499   37.11177545
     atom    4 type  1   force =     0.06309536   -0.09636070   -0.34519134
     atom    5 type  2   force =     0.85568976   -1.03569462  -37.99101685
     atom    6 type  2   force =    -0.19069830    0.30388170   37.71883808
     atom    7 type  1   force =     3.04030841    2.28295766   -1.87942251
     atom    8 type  2   force =     1.46758501    0.46380141  -37.89325255
     atom    9 type  2   force =    -0.41295677    0.00636843   37.61722668
     atom   10 type  1   force =    -0.20870913   -0.09704492   -3.85731454
     atom   11 type  2   force =     1.11895132    1.30308221  -38.04423801
     atom   12 type  2   force =    -0.26023596   -0.33128007   37.77735456
     atom   13 type  1   force =    -0.24498540   -0.84274068   -2.31959146
     atom   14 type  2   force =     0.07139370    0.01300369  -38.17595711
     atom   15 type  2   force =    -0.10501998    0.05091932   37.32723063
     atom   16 type  1   force =    -0.09122068   -3.50079741   -1.90920558
     atom   17 type  2   force =    -0.86350509   -1.05757357  -38.23608582
     atom   18 type  2   force =     0.21913803    0.20555315   37.76147970
     atom   19 type  1   force =    -2.55459225    1.83462840   -2.82387884
     atom   20 type  2   force =     0.02314867    0.05885897   38.26929979
     atom   21 type  1   force =     0.04329705    0.19370835   -0.26916607
     atom   22 type  2   force =    -0.19723778    1.30306270  -37.93627445
     atom   23 type  2   force =     0.16483639   -0.00634859   37.97995468
     atom   24 type  1   force =     0.22675816   -0.54201393   -2.09659345
     atom   25 type  2   force =    -0.20249079    0.09365912  -38.49962908
     atom   26 type  2   force =     0.18286459   -0.14557955   37.79739652
     atom   27 type  1   force =    -0.04505958   -0.35908052   -1.23846440
     atom   28 type  2   force =     0.02732155   -0.34500561  -37.79289912
     atom   29 type  2   force =     0.02069378    0.04688916   37.16001942
     atom   30 type  1   force =    -0.85972749    0.28790256   -3.55081644
     atom   31 type  2   force =    -1.40410941   -0.10520004  -38.05156574
     atom   32 type  2   force =     0.44079808   -0.06995169   37.31991402
     atom   33 type  1   force =     0.63711448    1.29901785   -0.61197913
     atom   34 type  2   force =    -1.64655635   -0.52192412  -38.59697269
     atom   35 type  2   force =     0.05836843    0.05398210   36.66654846
     atom   36 type  3   force =     0.70139968    0.43313200   -8.25348716
     The core correction contribution to forces
     atom    1 type  1   force =     0.00000000    0.00000000    0.00000000
     atom    2 type  2   force =    -0.00000062    0.00104969    0.02051281
     atom    3 type  2   force =     0.00017837    0.00018844   -0.02090350
     atom    4 type  1   force =     0.00000000    0.00000000    0.00000000
     atom    5 type  2   force =    -0.00034244    0.00094287    0.02032365
     atom    6 type  2   force =     0.00017568   -0.00030511   -0.02085186
     atom    7 type  1   force =     0.00000000    0.00000000    0.00000000
     atom    8 type  2   force =    -0.00044889   -0.00055869    0.01997452
     atom    9 type  2   force =     0.00081427    0.00059101   -0.02103966
     atom   10 type  1   force =     0.00000000    0.00000000    0.00000000
     atom   11 type  2   force =    -0.00056818   -0.00006188    0.01973550
     atom   12 type  2   force =     0.00084435    0.00103910   -0.02080251
     atom   13 type  1   force =     0.00000000    0.00000000    0.00000000
     atom   14 type  2   force =    -0.00011333    0.00006953    0.02082205
     atom   15 type  2   force =    -0.00000694    0.00050533   -0.02065760
     atom   16 type  1   force =     0.00000000    0.00000000    0.00000000
     atom   17 type  2   force =     0.00053338    0.00079279    0.02027192
     atom   18 type  2   force =    -0.00012672   -0.00021531   -0.02082428
     atom   19 type  1   force =     0.00000000    0.00000000    0.00000000
     atom   20 type  2   force =    -0.00016992    0.00044480   -0.02127932
     atom   21 type  1   force =     0.00000000    0.00000000    0.00000000
     atom   22 type  2   force =    -0.00055079    0.00021719    0.02005062
     atom   23 type  2   force =    -0.00053056    0.00036994   -0.02088952
     atom   24 type  1   force =     0.00000000    0.00000000    0.00000000
     atom   25 type  2   force =    -0.00008289   -0.00042982    0.02030821
     atom   26 type  2   force =    -0.00016070    0.00094040   -0.02095158
     atom   27 type  1   force =     0.00000000    0.00000000    0.00000000
     atom   28 type  2   force =    -0.00019068    0.00074801    0.02102782
     atom   29 type  2   force =     0.00005373    0.00025544   -0.02078259
     atom   30 type  1   force =     0.00000000    0.00000000    0.00000000
     atom   31 type  2   force =     0.00073983    0.00013052    0.02052318
     atom   32 type  2   force =    -0.00096507    0.00075066   -0.02088010
     atom   33 type  1   force =     0.00000000    0.00000000    0.00000000
     atom   34 type  2   force =     0.01591321    0.00902745    0.00370692
     atom   35 type  2   force =    -0.00026094    0.00058031   -0.02111927
     atom   36 type  3   force =     0.00000000    0.00000000    0.00000000
     The Hubbard contrib.    to forces
     atom    1 type  1   force =     0.00000000    0.00000000    0.00000000
     atom    2 type  2   force =     0.00000000    0.00000000    0.00000000
     atom    3 type  2   force =     0.00000000    0.00000000    0.00000000
     atom    4 type  1   force =     0.00000000    0.00000000    0.00000000
     atom    5 type  2   force =     0.00000000    0.00000000    0.00000000
     atom    6 type  2   force =     0.00000000    0.00000000    0.00000000
     atom    7 type  1   force =     0.00000000    0.00000000    0.00000000
     atom    8 type  2   force =     0.00000000    0.00000000    0.00000000
     atom    9 type  2   force =     0.00000000    0.00000000    0.00000000
     atom   10 type  1   force =     0.00000000    0.00000000    0.00000000
     atom   11 type  2   force =     0.00000000    0.00000000    0.00000000
     atom   12 type  2   force =     0.00000000    0.00000000    0.00000000
     atom   13 type  1   force =     0.00000000    0.00000000    0.00000000
     atom   14 type  2   force =     0.00000000    0.00000000    0.00000000
     atom   15 type  2   force =     0.00000000    0.00000000    0.00000000
     atom   16 type  1   force =     0.00000000    0.00000000    0.00000000
     atom   17 type  2   force =     0.00000000    0.00000000    0.00000000
     atom   18 type  2   force =     0.00000000    0.00000000    0.00000000
     atom   19 type  1   force =     0.00000000    0.00000000    0.00000000
     atom   20 type  2   force =     0.00000000    0.00000000    0.00000000
     atom   21 type  1   force =     0.00000000    0.00000000    0.00000000
     atom   22 type  2   force =     0.00000000    0.00000000    0.00000000
     atom   23 type  2   force =     0.00000000    0.00000000    0.00000000
     atom   24 type  1   force =     0.00000000    0.00000000    0.00000000
     atom   25 type  2   force =     0.00000000    0.00000000    0.00000000
     atom   26 type  2   force =     0.00000000    0.00000000    0.00000000
     atom   27 type  1   force =     0.00000000    0.00000000    0.00000000
     atom   28 type  2   force =     0.00000000    0.00000000    0.00000000
     atom   29 type  2   force =     0.00000000    0.00000000    0.00000000
     atom   30 type  1   force =     0.00000000    0.00000000    0.00000000
     atom   31 type  2   force =     0.00000000    0.00000000    0.00000000
     atom   32 type  2   force =     0.00000000    0.00000000    0.00000000
     atom   33 type  1   force =     0.00000000    0.00000000    0.00000000
     atom   34 type  2   force =     0.00000000    0.00000000    0.00000000
     atom   35 type  2   force =     0.00000000    0.00000000    0.00000000
     atom   36 type  3   force =     0.00000000    0.00000000    0.00000000
     The SCF correction term to forces
     atom    1 type  1   force =    -0.00000306   -0.00001281    0.00005806
     atom    2 type  2   force =    -0.00000521   -0.00001231    0.00002398
     atom    3 type  2   force =    -0.00000309   -0.00000606    0.00001142
     atom    4 type  1   force =     0.00000241    0.00002919    0.00000613
     atom    5 type  2   force =    -0.00000984    0.00000184    0.00002975
     atom    6 type  2   force =     0.00000685    0.00001317    0.00000158
     atom    7 type  1   force =     0.00001059   -0.00001903    0.00002212
     atom    8 type  2   force =     0.00000321    0.00000731    0.00002003
     atom    9 type  2   force =     0.00000516   -0.00000068   -0.00000184
     atom   10 type  1   force =     0.00000450   -0.00000718    0.00004756
     atom   11 type  2   force =     0.00001071    0.00000211    0.00003014
     atom   12 type  2   force =     0.00000738   -0.00000685   -0.00000507
     atom   13 type  1   force =     0.00001066    0.00000553    0.00007126
     atom   14 type  2   force =    -0.00000759    0.00000823    0.00002742
     atom   15 type  2   force =    -0.00000424    0.00000135    0.00001696
     atom   16 type  1   force =    -0.00000897    0.00002375    0.00005263
     atom   17 type  2   force =     0.00000348   -0.00000181    0.00002333
     atom   18 type  2   force =    -0.00000180    0.00000567    0.00001558
     atom   19 type  1   force =    -0.00001319   -0.00002644    0.00003483
     atom   20 type  2   force =     0.00000523    0.00000117   -0.00000409
     atom   21 type  1   force =     0.00001665    0.00000615    0.00004783
     atom   22 type  2   force =    -0.00000919   -0.00000277    0.00004246
     atom   23 type  2   force =     0.00000231   -0.00001303   -0.00001123
     atom   24 type  1   force =    -0.00000856   -0.00000844    0.00003861
     atom   25 type  2   force =     0.00001245   -0.00000141    0.00003365
     atom   26 type  2   force =     0.00000802    0.00000445    0.00001055
     atom   27 type  1   force =     0.00001505    0.00002195    0.00004039
     atom   28 type  2   force =     0.00000584    0.00000650    0.00002473
     atom   29 type  2   force =    -0.00000497    0.00001519   -0.00000415
     atom   30 type  1   force =     0.00000246   -0.00000734    0.00003079
     atom   31 type  2   force =     0.00000028    0.00000586    0.00002794
     atom   32 type  2   force =    -0.00000950   -0.00000075   -0.00000018
     atom   33 type  1   force =    -0.00000818   -0.00001219    0.00006332
     atom   34 type  2   force =    -0.00000335    0.00000092    0.00003123
     atom   35 type  2   force =    -0.00001318   -0.00001481    0.00000918
     atom   36 type  3   force =     0.00000022    0.00000169    0.00000336

     Total force =     0.005821     Total SCF correction =     0.000208
     Energy error            =      8.2E-05 Ry
     Gradient error          =      1.8E-03 Ry/Bohr

     bfgs converged in  18 scf cycles and  17 bfgs steps
     (criteria: energy <  1.0E-04 Ry, force <  1.0E-02 Ry/Bohr)

     End of BFGS Geometry Optimization

     Final energy             =   -2205.5766390049 Ry

     File ./MoS2-V-O.bfgs deleted, as requested
Begin final coordinates

ATOMIC_POSITIONS (angstrom)
Mo            6.5592000642        1.7552818490        2.7512782094
S             8.1258256139        0.8612817111        4.3683519695
S             8.1384595531        0.8302549183        1.1785623896
Mo            8.1168762171        4.4996905863        2.7119063046
S             6.5203205802        3.6595259088        4.3031277104
S             6.5586171202        3.5658957994        1.1123820500
Mo            6.5142380907        7.1955493402        2.6651164561
S             8.0574119811        6.2965494768        4.3178044183
S             8.1506625855        6.3328526255        1.1195710833
Mo            8.1267550786        9.9286223057        2.7964803899
S             6.4878650933        8.9537276134        4.3178813403
S             6.6005942767        9.0378125607        1.1208439059
Mo            3.4237792992        1.7734539232        2.7485019968
S             4.9863566349        0.8157716621        4.3312029767
S             4.9881390935        0.8463002042        1.1585535748
Mo            4.9907130730        4.5435807605        2.6582019151
S             3.4695512513        3.6712814448        4.3170507125
S             3.4313691634        3.5835126301        1.1115321360
Mo            3.4599590438        7.1897555306        2.6736575258
S             4.9871846085        6.3225460467        1.0482805247
Mo            4.9813793244        9.9086000269        2.7142069051
S             3.4408726048        8.9719479262        4.2993266428
S             3.3950818232        9.0244543437        1.0993913122
Mo            0.2725858512        1.7309820440        2.7605058874
S             1.8611897624        0.8470791419        4.3547061230
S             1.8597958305        0.8647874492        1.1371786807
Mo            1.8645393039        4.4988908334        2.7266957762
S             0.2596214956        3.5992835957        4.3153618244
S             0.2650471072        3.5608779223        1.1565887796
Mo            0.2497079982        7.2188607644        2.7807658100
S             1.9138576508        6.3058302116        4.3207266144
S             1.8308183986        6.3275190193        1.1336461782
Mo            1.8669664078        9.9760588387        2.7071316860
S             0.1535065318        8.9668600905        4.5188203793
S             0.2542202171        9.0481062540        1.2029752967
H             8.7152871714        8.4678166071        5.4880073341
End final coordinates



     Writing all to output data dir ./MoS2-V-O.save/
 
     init_run     :      2.40s CPU      2.59s WALL (       1 calls)
     electrons    :   1580.32s CPU   1736.76s WALL (      18 calls)
     update_pot   :     23.92s CPU     24.88s WALL (      17 calls)
     forces       :     24.42s CPU     26.44s WALL (      18 calls)

     Called by init_run:
     wfcinit      :      0.39s CPU      0.43s WALL (       1 calls)
     potinit      :      1.32s CPU      1.41s WALL (       1 calls)
     hinit0       :      0.17s CPU      0.19s WALL (       1 calls)

     Called by electrons:
     c_bands      :    193.58s CPU    195.83s WALL (     157 calls)
     sum_band     :     50.18s CPU     55.79s WALL (     157 calls)
     v_of_rho     :     65.57s CPU     75.18s WALL (     163 calls)
     newd         :     25.73s CPU     29.91s WALL (     163 calls)
     mix_rho      :   1253.26s CPU   1387.28s WALL (     157 calls)

     Called by c_bands:
     init_us_2    :      3.48s CPU      3.63s WALL (     315 calls)
     init_us_2:cp :      3.48s CPU      3.63s WALL (     315 calls)
     regterg      :    182.12s CPU    184.23s WALL (     157 calls)

     Called by *egterg:
     rdiaghg      :     15.39s CPU     15.52s WALL (     884 calls)
     h_psi        :    105.12s CPU    106.09s WALL (     914 calls)
     s_psi        :     13.30s CPU     13.34s WALL (     914 calls)
     g_psi        :      0.70s CPU      0.71s WALL (     756 calls)

     Called by h_psi:
     h_psi:calbec :     14.52s CPU     14.57s WALL (     914 calls)
     vloc_psi     :     75.92s CPU     76.75s WALL (     914 calls)
     add_vuspsi   :     13.02s CPU     13.09s WALL (     914 calls)

     General routines
     calbec       :     20.67s CPU     20.75s WALL (    1143 calls)
     fft          :     45.82s CPU     52.79s WALL (   10998 calls)
     ffts         :    557.45s CPU    686.61s WALL (  304949 calls)
     fftw         :     67.28s CPU     67.93s WALL (   95917 calls)
     interpolate  :      1.19s CPU      1.37s WALL (     163 calls)
 
     Parallel routines
 
     PWSCF        :  27m14.64s CPU  29m55.94s WALL

 
   This run was terminated on:   9: 0:40   4Nov2023            

=------------------------------------------------------------------------------=
   JOB DONE.
=------------------------------------------------------------------------------=
