
     Program PWSCF v.7.2 starts on  4Nov2023 at  7: 0: 2 

     This program is part of the open-source Quantum ESPRESSO suite
     for quantum simulation of materials; please cite
         "P. Giannozzi et al., J. Phys.:Condens. Matter 21 395502 (2009);
         "P. Giannozzi et al., J. Phys.:Condens. Matter 29 465901 (2017);
         "P. Giannozzi et al., J. Chem. Phys. 152 154105 (2020);
          URL http://www.quantum-espresso.org", 
     in publications or presentations arising from this work. More details at
     http://www.quantum-espresso.org/quote

     Parallel version (MPI & OpenMP), running on      48 processor cores
     Number of MPI processes:                48
     Threads/MPI process:                     1

     MPI processes distributed on     1 nodes
     64182 MiB available memory on the printing compute node when the environment starts
 
     Waiting for input...
     Reading input from standard input
Warning: card &CELL ignored
Warning: card CELL_DYNAMICS = 'BFGS', ignored
Warning: card CELL_DOFREE = '2DXY' ignored
Warning: card / ignored

     Current dimensions of program PWSCF are:
     Max number of different atomic species (ntypx) = 10
     Max number of k-points (npk) =  40000
     Max angular momentum in pseudopotentials (lmaxx) =  4

     IMPORTANT: XC functional enforced from input :
     Exchange-correlation= RVV10
                           (   1   4  13   4  26   0   0)
     Any further DFT definition will be discarded
     Please, verify this is what you really want


     gamma-point specific algorithms are used
     signal trapping enabled: kill the code with -SIGUSR1 to stop cleanly the simulation 
 
     R & G space division:  proc/nbgrp/npool/nimage =      48
     Subspace diagonalization in iterative solution of the eigenvalue problem:
     one sub-group per band group will be used
     scalapack distributed-memory algorithm (size of sub-group:  2*  2 procs)

 
     Parallelization info
     --------------------
     sticks:   dense  smooth     PW     G-vecs:    dense   smooth      PW
     Min         243     194     47                49060    35090    4376
     Max         246     196     50                49086    35128    4410
     Sum       11735    9389   2349              2355467  1685513  210763
 
     Using Slab Decomposition
 


     bravais-lattice index     =            0
     lattice parameter (alat)  =      17.8707  a.u.
     unit-cell volume          =   17436.2743 (a.u.)^3
     number of atoms/cell      =           36
     number of atomic types    =            3
     number of electrons       =       307.00
     number of Kohn-Sham states=          185
     kinetic-energy cutoff     =      80.0000  Ry
     charge density cutoff     =     400.0000  Ry
     scf convergence threshold =      1.0E-06
     mixing beta               =       0.7000
     number of iterations used =            8  local-TF  mixing
     energy convergence thresh.=      1.0E-04
     force convergence thresh. =      1.0E-02
     Exchange-correlation= RVV10
                           (   1   4  13   4  26   0   0)
     nstep                     =          200


     celldm(1)=  17.870686  celldm(2)=   0.000000  celldm(3)=   0.000000
     celldm(4)=   0.000000  celldm(5)=   0.000000  celldm(6)=   0.000000

     crystal axes: (cart. coord. in units of alat)
               a(1) = (   1.000000   0.000000   0.000000 )  
               a(2) = (   0.000000   1.155671   0.000000 )  
               a(3) = (   0.000000   0.000000   2.643601 )  

     reciprocal axes: (cart. coord. in units 2 pi/alat)
               b(1) = (  1.000000  0.000000  0.000000 )  
               b(2) = (  0.000000  0.865298  0.000000 )  
               b(3) = (  0.000000  0.000000  0.378272 )  


     PseudoPot. # 1 for Mo read from file:
     ../pseudo/Mo_ONCV_PBE-1.0.oncvpsp.upf
     MD5 check sum: 1b5d28e075c9ccadda658a603575cd1f
     Pseudo is Norm-conserving, Zval = 14.0
     Generated using ONCVPSP code by D. R. Hamann
     Using radial grid of 1526 points,  6 beta functions with: 
                l(1) =   0
                l(2) =   0
                l(3) =   1
                l(4) =   1
                l(5) =   2
                l(6) =   2

     PseudoPot. # 2 for S  read from file:
     ../pseudo/s_pbe_v1.4.uspp.F.UPF
     MD5 check sum: 88d86576ff6df21479756cfb9bdac1df
     Pseudo is Ultrasoft + core correction, Zval =  6.0
     Generated by new atomic code, or converted to UPF format
     Using radial grid of  907 points,  6 beta functions with: 
                l(1) =   0
                l(2) =   0
                l(3) =   1
                l(4) =   1
                l(5) =   2
                l(6) =   2
     Q(r) pseudized with  8 coefficients,  rinner =    1.300   1.300   1.300
                                                       1.300   1.300

     PseudoPot. # 3 for H  read from file:
     ../pseudo/H_ONCV_PBE-1.0.oncvpsp.upf
     MD5 check sum: 1790becc920ee074925cf490c71280fe
     Pseudo is Norm-conserving, Zval =  1.0
     Generated using ONCVPSP code by D. R. Hamann
     Using radial grid of 1166 points,  2 beta functions with: 
                l(1) =   0
                l(2) =   0

     atomic species   valence    mass     pseudopotential
        Mo            14.00    95.94000     Mo( 1.00)
        S              6.00    32.06500     S ( 1.00)
        H              1.00     1.00794     H ( 1.00)

     No symmetry found



   Cartesian axes

     site n.     atom                  positions (alat units)
         1           Mo  tau(   1) = (   0.6952221   0.1890506   0.2985846  )
         2           S   tau(   2) = (   0.8646417   0.0856217   0.4689279  )
         3           S   tau(   3) = (   0.8663890   0.0857843   0.1351291  )
         4           Mo  tau(   4) = (   0.8560186   0.4753274   0.2873942  )
         5           S   tau(   5) = (   0.6873294   0.3936244   0.4596353  )
         6           S   tau(   6) = (   0.6929804   0.3713468   0.1185692  )
         7           Mo  tau(   7) = (   0.6862796   0.7633098   0.2825370  )
         8           S   tau(   8) = (   0.8545980   0.6708292   0.4486168  )
         9           S   tau(   9) = (   0.8545123   0.6666874   0.1146125  )
        10           Mo  tau(  10) = (   0.8629403   1.0471007   0.3006803  )
        11           S   tau(  11) = (   0.6868280   0.9456650   0.4634891  )
        12           S   tau(  12) = (   0.6998113   0.9568511   0.1205389  )
        13           Mo  tau(  13) = (   0.3618216   0.1847309   0.2935964  )
        14           S   tau(  14) = (   0.5260962   0.0863870   0.4600448  )
        15           S   tau(  15) = (   0.5348379   0.0894875   0.1297123  )
        16           Mo  tau(  16) = (   0.5265817   0.4772436   0.2784130  )
        17           S   tau(  17) = (   0.3624753   0.3882513   0.4525556  )
        18           S   tau(  18) = (   0.3635411   0.3752055   0.1119148  )
        19           Mo  tau(  19) = (   0.3652268   0.7630864   0.2781795  )
        20           S   tau(  20) = (   0.5269494   0.6690381   0.1096838  )
        21           Mo  tau(  21) = (   0.5300192   1.0470394   0.2900995  )
        22           S   tau(  22) = (   0.3670346   0.9457522   0.4574073  )
        23           S   tau(  23) = (   0.3604225   0.9585725   0.1159032  )
        24           Mo  tau(  24) = (   0.0313099   0.1847895   0.3013130  )
        25           S   tau(  25) = (   0.1956761   0.0838230   0.4650863  )
        26           S   tau(  26) = (   0.1967693   0.0903508   0.1278874  )
        27           Mo  tau(  27) = (   0.1967578   0.4753919   0.2813011  )
        28           S   tau(  28) = (   0.0287851   0.3864324   0.4586755  )
        29           S   tau(  29) = (   0.0244514   0.3729871   0.1239344  )
        30           Mo  tau(  30) = (   0.0286728   0.7631204   0.2856894  )
        31           S   tau(  31) = (   0.2011512   0.6675435   0.4465001  )
        32           S   tau(  32) = (   0.1969214   0.6672839   0.1104564  )
        33           Mo  tau(  33) = (   0.1950294   1.0511147   0.2932237  )
        34           S   tau(  34) = (   0.0312912   0.9612169   0.4667423  )
        35           S   tau(  35) = (   0.0292670   0.9563028   0.1216485  )
        36           H   tau(  36) = (   1.0000000   0.7704471   0.5656742  )

     number of k points=     1  Gaussian smearing, width (Ry)=  0.0100
                       cart. coord. in units 2pi/alat
        k(    1) = (   0.0000000   0.0000000   0.0000000), wk =   2.0000000

     Dense  grid:  1177734 G-vectors     FFT dimensions: ( 120, 135, 320)

     Smooth grid:   842757 G-vectors     FFT dimensions: ( 108, 120, 270)

     Estimated max dynamical RAM per process >     146.59 MB

     Estimated total dynamical RAM >       6.87 GB

     Initial potential from superposition of free atoms

     starting charge     306.9873, renormalised to     307.0000

     negative rho (up, down):  1.409E-04 0.000E+00


---------------------------------------------------------------------------------
Carrying out rVV10 run using the following parameters:
Nqs =      20    Nr_points =    1024   r_max =   100.000
b_value =  6.30000    beta =  0.00901
     q_mesh =  0.00010000  0.00030000  0.00058939  0.00100810
               0.00161396  0.00249058  0.00375900  0.00559430
               0.00824984  0.01209221  0.01765183  0.02569619
               0.03733578  0.05417739  0.07854596  0.11380545
               0.16482331  0.23864234  0.34545298  0.50000000

Gradients computed in Reciprocal space

---------------------------------------------------------------------------------


     Starting wfcs are  213 randomized atomic wfcs

     total cpu time spent up to now is        2.8 secs

     Self-consistent Calculation

     iteration #  1     ecut=    80.00 Ry     beta= 0.70
     Davidson diagonalization with overlap
     ethr =  1.00E-02,  avg # of iterations =  2.0

     Threshold (ethr) on eigenvalues was too large:
     Diagonalizing with lowered threshold

     Davidson diagonalization with overlap
     ethr =  3.79E-04,  avg # of iterations =  4.0

     negative rho (up, down):  1.572E-08 0.000E+00

     total cpu time spent up to now is       17.0 secs

     total energy              =   -2205.54779450 Ry
     estimated scf accuracy    <       1.46189823 Ry

     iteration #  2     ecut=    80.00 Ry     beta= 0.70
     Davidson diagonalization with overlap
     ethr =  4.76E-04,  avg # of iterations =  2.0

     total cpu time spent up to now is       19.6 secs

     total energy              =   -2205.43708130 Ry
     estimated scf accuracy    <       0.55929606 Ry

     iteration #  3     ecut=    80.00 Ry     beta= 0.70
     Davidson diagonalization with overlap
     ethr =  1.82E-04,  avg # of iterations =  2.0

     total cpu time spent up to now is       22.1 secs

     total energy              =   -2205.47663644 Ry
     estimated scf accuracy    <       0.13355694 Ry

     iteration #  4     ecut=    80.00 Ry     beta= 0.70
     Davidson diagonalization with overlap
     ethr =  4.35E-05,  avg # of iterations = 10.0

     total cpu time spent up to now is       25.0 secs

     total energy              =   -2205.49260675 Ry
     estimated scf accuracy    <       0.02895244 Ry

     iteration #  5     ecut=    80.00 Ry     beta= 0.70
     Davidson diagonalization with overlap
     ethr =  9.43E-06,  avg # of iterations =  3.0

     total cpu time spent up to now is       27.2 secs

     total energy              =   -2205.49254630 Ry
     estimated scf accuracy    <       0.01705844 Ry

     iteration #  6     ecut=    80.00 Ry     beta= 0.70
     Davidson diagonalization with overlap
     ethr =  5.56E-06,  avg # of iterations =  2.0

     total cpu time spent up to now is       29.5 secs

     total energy              =   -2205.49137297 Ry
     estimated scf accuracy    <       0.01210786 Ry

     iteration #  7     ecut=    80.00 Ry     beta= 0.70
     Davidson diagonalization with overlap
     ethr =  3.94E-06,  avg # of iterations =  2.0

     negative rho (up, down):  1.852E-05 0.000E+00

     total cpu time spent up to now is       33.3 secs

     total energy              =   -2205.48984946 Ry
     estimated scf accuracy    <       0.00689118 Ry

     iteration #  8     ecut=    80.00 Ry     beta= 0.70
     Davidson diagonalization with overlap
     ethr =  2.24E-06,  avg # of iterations = 16.0

     negative rho (up, down):  8.236E-03 0.000E+00

     total cpu time spent up to now is       38.2 secs

     total energy              =   -2205.48949520 Ry
     estimated scf accuracy    <       0.00328452 Ry

     iteration #  9     ecut=    80.00 Ry     beta= 0.70
     Davidson diagonalization with overlap
     ethr =  1.07E-06,  avg # of iterations =  2.0

     negative rho (up, down):  3.026E-02 0.000E+00

     total cpu time spent up to now is       42.4 secs

     total energy              =   -2205.48947261 Ry
     estimated scf accuracy    <       0.00193692 Ry

     iteration # 10     ecut=    80.00 Ry     beta= 0.70
     Davidson diagonalization with overlap
     ethr =  6.31E-07,  avg # of iterations =  2.0

     negative rho (up, down):  2.565E-02 0.000E+00

     total cpu time spent up to now is       46.5 secs

     total energy              =   -2205.48954735 Ry
     estimated scf accuracy    <       0.00063046 Ry

     iteration # 11     ecut=    80.00 Ry     beta= 0.70
     Davidson diagonalization with overlap
     ethr =  2.05E-07,  avg # of iterations =  2.0

     negative rho (up, down):  1.132E-02 0.000E+00

     total cpu time spent up to now is       52.1 secs

     total energy              =   -2205.48960778 Ry
     estimated scf accuracy    <       0.00010918 Ry

     iteration # 12     ecut=    80.00 Ry     beta= 0.70
     Davidson diagonalization with overlap
     ethr =  3.56E-08,  avg # of iterations =  5.0

     negative rho (up, down):  1.815E-03 0.000E+00

     total cpu time spent up to now is       60.2 secs

     total energy              =   -2205.48965252 Ry
     estimated scf accuracy    <       0.00001818 Ry

     iteration # 13     ecut=    80.00 Ry     beta= 0.70
     Davidson diagonalization with overlap
     ethr =  5.92E-09,  avg # of iterations =  5.0

     negative rho (up, down):  3.456E-04 0.000E+00

     total cpu time spent up to now is       70.5 secs

     total energy              =   -2205.48966049 Ry
     estimated scf accuracy    <       0.00000143 Ry

     iteration # 14     ecut=    80.00 Ry     beta= 0.70
     Davidson diagonalization with overlap
     ethr =  4.66E-10,  avg # of iterations =  5.0

     negative rho (up, down):  1.371E-04 0.000E+00

     total cpu time spent up to now is       73.1 secs

     End of self-consistent calculation

          k = 0.0000 0.0000 0.0000 (105382 PWs)   bands (ev):

   -62.9042 -62.8954 -62.8841 -62.8640 -62.8470 -62.8449 -62.8369 -62.8219
   -62.8189 -62.7917 -62.7825 -62.7385 -37.2526 -37.1761 -37.1681 -37.1572
   -37.1535 -37.1223 -37.1058 -37.0921 -37.0880 -37.0799 -37.0764 -37.0583
   -37.0525 -37.0522 -37.0403 -37.0325 -37.0238 -37.0201 -37.0165 -37.0010
   -36.9964 -36.9773 -36.9570 -36.9508 -36.9425 -36.9339 -36.9200 -36.9154
   -36.9054 -36.8967 -36.8807 -36.8649 -36.8598 -36.8159 -36.7482 -36.7327
   -16.0199 -15.2272 -15.2116 -15.0020 -14.9714 -14.8417 -14.5623 -14.5444
   -14.4959 -14.4768 -14.4040 -14.3505 -14.3350 -14.2902 -14.1799 -14.1547
   -14.1339 -14.1262 -14.0433 -13.9445 -13.8625 -13.8458 -13.8176  -7.9235
    -7.6283  -7.4336  -7.3375  -7.2795  -7.2222  -7.2086  -7.1358  -7.0704
    -6.8500  -6.8139  -6.7606  -6.6929  -6.6389  -6.5286  -6.4565  -6.4318
    -6.2814  -6.2525  -6.0441  -5.9533  -5.9418  -5.9195  -5.8512  -5.8291
    -5.7787  -5.7308  -5.6945  -5.6756  -5.6331  -5.5776  -5.5473  -5.4924
    -5.4657  -5.4243  -5.2352  -5.1363  -5.0881  -5.0279  -5.0241  -5.0012
    -4.9318  -4.8562  -4.6696  -4.5627  -4.3489  -4.3241  -4.2918  -4.2724
    -4.2207  -4.0562  -4.0369  -3.8610  -3.8416  -3.8072  -3.7457  -3.7169
    -3.6894  -3.5983  -3.5499  -3.5096  -3.5004  -3.4799  -3.4576  -3.4007
    -3.3727  -3.2255  -3.1485  -2.9157  -2.9057  -2.8292  -2.7946  -2.7829
    -2.7290  -2.6801  -2.6598  -2.6421  -2.5847  -2.3027  -2.0284  -1.9997
    -1.9524  -1.0652  -0.7902  -0.7133  -0.1941  -0.1631  -0.1190  -0.0672
     0.0471   0.1031   0.1920   0.2195   0.2497   0.2747   0.3477   0.4019
     0.4406   0.5211   0.5290   0.5523   0.5986   0.6509   0.6974   0.7215
     0.7696   0.7727   0.8421   0.8711   0.9162   0.9476   1.0047   1.0966
     1.4150

     the Fermi energy is    -1.0657 ev

!    total energy              =   -2205.48966398 Ry
     estimated scf accuracy    <       0.00000022 Ry
     smearing contrib. (-TS)   =      -0.00574226 Ry
     internal energy E=F+TS    =   -2205.48392172 Ry

     The total energy is F=E-TS. E is the sum of the following terms:
     one-electron contribution =  -18046.14453574 Ry
     hartree contribution      =    9009.63883370 Ry
     xc contribution           =    -385.19617145 Ry
     ewald contribution        =    7216.21795178 Ry

     convergence has been achieved in  14 iterations

     negative rho (up, down):  1.371E-04 0.000E+00

     Forces acting on atoms (cartesian axes, Ry/au):

     atom    1 type  1   force =     0.01349290   -0.02696136    0.00482669
     atom    2 type  2   force =    -0.01464600    0.01829924    0.00068113
     atom    3 type  2   force =    -0.01250182    0.00990119   -0.00322854
     atom    4 type  1   force =     0.00187319    0.00046880   -0.00966561
     atom    5 type  2   force =    -0.00284166   -0.00605613   -0.00640870
     atom    6 type  2   force =     0.00516354    0.00943378    0.00062883
     atom    7 type  1   force =     0.00249531   -0.00977276   -0.00226156
     atom    8 type  2   force =     0.01652242    0.00614474    0.04403455
     atom    9 type  2   force =     0.01335809    0.00676820    0.01236702
     atom   10 type  1   force =    -0.00923261    0.00835034   -0.02737774
     atom   11 type  2   force =     0.00286060   -0.00076299   -0.01019601
     atom   12 type  2   force =     0.00074099    0.00121724    0.00596508
     atom   13 type  1   force =     0.00605325    0.00413009   -0.00755321
     atom   14 type  2   force =     0.00780777    0.00086009    0.01220775
     atom   15 type  2   force =    -0.01238933    0.00297113   -0.00759216
     atom   16 type  1   force =    -0.00333042    0.00938651    0.00267566
     atom   17 type  2   force =     0.00628319    0.00080792    0.00167550
     atom   18 type  2   force =    -0.00384085   -0.00715982    0.01355932
     atom   19 type  1   force =     0.00905138   -0.01322576   -0.00194075
     atom   20 type  2   force =     0.00308481   -0.00308560    0.00153715
     atom   21 type  1   force =    -0.00740609    0.00747652    0.00105512
     atom   22 type  2   force =    -0.00082629   -0.00101609   -0.00481329
     atom   23 type  2   force =    -0.00214585    0.00181116    0.00992774
     atom   24 type  1   force =    -0.00772692   -0.00519644   -0.02276938
     atom   25 type  2   force =     0.01592259    0.01906476    0.00850483
     atom   26 type  2   force =    -0.01130150   -0.00049458   -0.00442769
     atom   27 type  1   force =    -0.00130914    0.00110983    0.00492618
     atom   28 type  2   force =     0.00127377   -0.00341447   -0.00373950
     atom   29 type  2   force =     0.00250104   -0.00057549   -0.00123565
     atom   30 type  1   force =     0.00368131    0.00746771   -0.03967748
     atom   31 type  2   force =     0.00394303   -0.00311760    0.01956501
     atom   32 type  2   force =    -0.00926484    0.00722340    0.00887384
     atom   33 type  1   force =     0.01706940   -0.00335906   -0.01403969
     atom   34 type  2   force =    -0.00135828   -0.05352565    0.00943057
     atom   35 type  2   force =    -0.00920097    0.00675664    0.01537387
     atom   36 type  3   force =    -0.02385602    0.00807450   -0.01088890
     The non-local contrib.  to forces
     atom    1 type  1   force =    -0.00170810    0.03419664   -0.01291181
     atom    2 type  2   force =    -0.00908872    0.00331267   -0.27047692
     atom    3 type  2   force =    -0.01469250   -0.00304205    0.27131198
     atom    4 type  1   force =     0.00180346    0.00437227   -0.00158392
     atom    5 type  2   force =     0.00320564   -0.03411911   -0.25190507
     atom    6 type  2   force =    -0.00153944    0.01156436    0.26345167
     atom    7 type  1   force =    -0.01533649   -0.00399252   -0.01924700
     atom    8 type  2   force =     0.07831070    0.07223001   -0.14258123
     atom    9 type  2   force =     0.00667353   -0.00929453    0.28065369
     atom   10 type  1   force =     0.00679813    0.00021148    0.00000086
     atom   11 type  2   force =     0.01397787    0.00407632   -0.26161720
     atom   12 type  2   force =    -0.00693970   -0.01868245    0.25973983
     atom   13 type  1   force =     0.00013864    0.02005770   -0.00553146
     atom   14 type  2   force =     0.01121465   -0.01180598   -0.26196785
     atom   15 type  2   force =    -0.01325160   -0.00550649    0.26098502
     atom   16 type  1   force =     0.00382984    0.02887368   -0.02485464
     atom   17 type  2   force =     0.00259416   -0.02940339   -0.24929419
     atom   18 type  2   force =    -0.00427641   -0.00361227    0.27352395
     atom   19 type  1   force =     0.01661492   -0.00165757   -0.01532907
     atom   20 type  2   force =    -0.00032083   -0.01896880    0.26699106
     atom   21 type  1   force =     0.00235492    0.02889352    0.01047833
     atom   22 type  2   force =    -0.00682008    0.00298051   -0.25593101
     atom   23 type  2   force =     0.00660303   -0.01247569    0.26515940
     atom   24 type  1   force =     0.00536287    0.01604306   -0.01155833
     atom   25 type  2   force =     0.01064980    0.00757860   -0.25816979
     atom   26 type  2   force =    -0.00286312   -0.01418870    0.26437402
     atom   27 type  1   force =    -0.00201999    0.00732155    0.00865699
     atom   28 type  2   force =    -0.00377563   -0.02771395   -0.27357863
     atom   29 type  2   force =     0.00495214    0.00452175    0.26373777
     atom   30 type  1   force =     0.00119344    0.01602761    0.01373501
     atom   31 type  2   force =    -0.00552166    0.00870994   -0.23149676
     atom   32 type  2   force =    -0.00186663   -0.01168556    0.27503520
     atom   33 type  1   force =    -0.00644696    0.00649074    0.00346133
     atom   34 type  2   force =    -0.01209172   -0.11535166   -0.20063693
     atom   35 type  2   force =    -0.00198909   -0.01245557    0.27136818
     atom   36 type  3   force =    -0.00420555    0.00161794   -0.00767848
     The ionic contribution  to forces
     atom    1 type  1   force =     0.34221450    0.22798760    5.70314106
     atom    2 type  2   force =    -0.69522723    0.47881106   39.27430443
     atom    3 type  2   force =    -0.17412217    0.03740317  -36.09085000
     atom    4 type  1   force =    -0.02783360    0.32228514    0.48199081
     atom    5 type  2   force =    -1.02175618    1.41556440   38.74010106
     atom    6 type  2   force =     0.33110922   -0.52431832  -38.02724033
     atom    7 type  1   force =    -2.85930526   -2.78114698    2.34484035
     atom    8 type  2   force =    -1.53698174   -0.35586592   36.95553760
     atom    9 type  2   force =     0.30969792   -0.06205000  -38.08555377
     atom   10 type  1   force =    -1.23915701   -0.01467061    5.44132890
     atom   11 type  2   force =    -0.73138063   -1.48630902   39.09041206
     atom   12 type  2   force =     0.41328221    0.72246658  -37.88614687
     atom   13 type  1   force =     0.51661963    0.98740671    2.86532200
     atom   14 type  2   force =     0.05406964    0.02228093   38.52436830
     atom   15 type  2   force =     0.15497531   -0.05197223  -36.79430382
     atom   16 type  1   force =    -0.03982599    3.85121946    0.45217509
     atom   17 type  2   force =     0.85278195    1.43460768   37.92907742
     atom   18 type  2   force =    -0.14970687   -0.66697682  -38.56382938
     atom   19 type  1   force =     2.89255873   -2.44578194    0.49575894
     atom   20 type  2   force =     0.22397841   -0.20874751  -38.49743967
     atom   21 type  1   force =     0.01781398    0.15610395    1.13302740
     atom   22 type  2   force =     0.57108659   -1.63000456   38.39921614
     atom   23 type  2   force =    -0.06450019    0.69112743  -38.31177611
     atom   24 type  1   force =    -0.54087695    1.14455643    5.81383320
     atom   25 type  2   force =     0.69544448    0.34631064   39.26454995
     atom   26 type  2   force =    -0.27633928    0.08273401  -37.33420336
     atom   27 type  1   force =     0.15451667    0.19075905   -2.40223444
     atom   28 type  2   force =     0.06506094    0.83084998   38.17037562
     atom   29 type  2   force =    -0.26305218   -0.46473688  -37.28605970
     atom   30 type  1   force =    -0.23910630   -0.92377773   -1.00161691
     atom   31 type  2   force =     1.64395861   -0.27724444   37.08869723
     atom   32 type  2   force =    -0.44539105   -0.02823039  -38.70213343
     atom   33 type  1   force =     0.94235520   -0.61462626    1.89902759
     atom   34 type  2   force =     0.34840193   -0.76031109   39.02010735
     atom   35 type  2   force =    -0.29384398    0.52711993  -37.89561994
     atom   36 type  3   force =     0.06848069   -0.17282344    7.79181522
     The local contribution  to forces
     atom    1 type  1   force =    -0.32702326   -0.28894026   -5.68547992
     atom    2 type  2   force =     0.68951738   -0.46367893  -39.02376503
     atom    3 type  2   force =     0.17562204   -0.02444224   35.83711040
     atom    4 type  1   force =     0.02801780   -0.32616783   -0.49014167
     atom    5 type  2   force =     1.01620782   -1.38932273  -38.51488629
     atom    6 type  2   force =    -0.32468266    0.52335287   37.78515826
     atom    7 type  1   force =     2.87734095    2.77533644   -2.32784182
     atom    8 type  2   force =     1.47937737    0.29317726  -36.78340342
     atom    9 type  2   force =    -0.30287908    0.07749124   37.83829495
     atom   10 type  1   force =     1.22310244    0.02271726   -5.46853993
     atom   11 type  2   force =     0.72102788    1.48187651  -38.85964944
     atom   12 type  2   force =    -0.40648156   -0.70409786   37.65287580
     atom   13 type  1   force =    -0.51067906   -1.00312178   -2.86745102
     atom   14 type  2   force =    -0.05686851   -0.00970744  -38.27070120
     atom   15 type  2   force =    -0.15483113    0.06012606   36.54615226
     atom   16 type  1   force =     0.03270307   -3.87099044   -0.42478142
     atom   17 type  2   force =    -0.84909243   -1.40591226  -37.69828494
     atom   18 type  2   force =     0.15009161    0.66393062   38.32472678
     atom   19 type  1   force =    -2.90041394    2.43427994   -0.48237186
     atom   20 type  2   force =    -0.22072982    0.22389356   38.25300401
     atom   21 type  1   force =    -0.02759391   -0.17756728   -1.14249033
     atom   22 type  2   force =    -0.56536652    1.62637723  -38.16846924
     atom   23 type  2   force =     0.05627259   -0.67807832   38.07722992
     atom   24 type  1   force =     0.52775089   -1.16563452   -5.82496519
     atom   25 type  2   force =    -0.69007829   -0.33436441  -39.01831452
     atom   26 type  2   force =     0.26807060   -0.06976237   37.08616201
     atom   27 type  1   force =    -0.15390038   -0.19687996    2.39843369
     atom   28 type  2   force =    -0.06030522   -0.80838397  -37.92136505
     atom   29 type  2   force =     0.26109427    0.46042725   37.04156301
     atom   30 type  1   force =     0.24161976    0.91504205    0.94818561
     atom   31 type  2   force =    -1.63503139    0.26580385  -36.85698536
     atom   32 type  2   force =     0.43820141    0.04643683   38.45696973
     atom   33 type  1   force =    -0.91876750    0.60458865   -1.91645586
     atom   34 type  2   force =    -0.33865966    0.81671653  -38.82716606
     atom   35 type  2   force =     0.28674129   -0.50903883   37.66061912
     atom   36 type  3   force =    -0.08812673    0.17927367   -7.79500905
     The core correction contribution to forces
     atom    1 type  1   force =     0.00000000    0.00000000    0.00000000
     atom    2 type  2   force =     0.00018441   -0.00015708    0.02074890
     atom    3 type  2   force =     0.00067093    0.00004401   -0.02094172
     atom    4 type  1   force =     0.00000000    0.00000000    0.00000000
     atom    5 type  2   force =    -0.00048845    0.00185356    0.02031210
     atom    6 type  2   force =     0.00023896   -0.00111119   -0.02088973
     atom    7 type  1   force =     0.00000000    0.00000000    0.00000000
     atom    8 type  2   force =    -0.00413197   -0.00344321    0.01458791
     atom    9 type  2   force =    -0.00010960    0.00054946   -0.02118343
     atom   10 type  1   force =     0.00000000    0.00000000    0.00000000
     atom   11 type  2   force =    -0.00068845   -0.00042070    0.02074170
     atom   12 type  2   force =     0.00088350    0.00147648   -0.02066058
     atom   13 type  1   force =     0.00000000    0.00000000    0.00000000
     atom   14 type  2   force =    -0.00059835    0.00011672    0.02060507
     atom   15 type  2   force =     0.00072149    0.00037890   -0.02056780
     atom   16 type  1   force =     0.00000000    0.00000000    0.00000000
     atom   17 type  2   force =    -0.00000626    0.00152561    0.02021613
     atom   18 type  2   force =     0.00009410   -0.00046220   -0.02101677
     atom   19 type  1   force =     0.00000000    0.00000000    0.00000000
     atom   20 type  2   force =     0.00013162    0.00065677   -0.02126354
     atom   21 type  1   force =     0.00000000    0.00000000    0.00000000
     atom   22 type  2   force =     0.00019237   -0.00042144    0.02039326
     atom   23 type  2   force =    -0.00054889    0.00115423   -0.02076823
     atom   24 type  1   force =     0.00000000    0.00000000    0.00000000
     atom   25 type  2   force =    -0.00012732   -0.00046545    0.02056908
     atom   26 type  2   force =    -0.00014144    0.00077189   -0.02089558
     atom   27 type  1   force =     0.00000000    0.00000000    0.00000000
     atom   28 type  2   force =     0.00027411    0.00188693    0.02089350
     atom   29 type  2   force =    -0.00050848   -0.00071205   -0.02059720
     atom   30 type  1   force =     0.00000000    0.00000000    0.00000000
     atom   31 type  2   force =     0.00048202   -0.00040033    0.01938484
     atom   32 type  2   force =    -0.00020579    0.00067624   -0.02110554
     atom   33 type  1   force =     0.00000000    0.00000000    0.00000000
     atom   34 type  2   force =     0.00098915    0.00538084    0.01732445
     atom   35 type  2   force =    -0.00010006    0.00104213   -0.02111206
     atom   36 type  3   force =     0.00000000    0.00000000    0.00000000
     The Hubbard contrib.    to forces
     atom    1 type  1   force =     0.00000000    0.00000000    0.00000000
     atom    2 type  2   force =     0.00000000    0.00000000    0.00000000
     atom    3 type  2   force =     0.00000000    0.00000000    0.00000000
     atom    4 type  1   force =     0.00000000    0.00000000    0.00000000
     atom    5 type  2   force =     0.00000000    0.00000000    0.00000000
     atom    6 type  2   force =     0.00000000    0.00000000    0.00000000
     atom    7 type  1   force =     0.00000000    0.00000000    0.00000000
     atom    8 type  2   force =     0.00000000    0.00000000    0.00000000
     atom    9 type  2   force =     0.00000000    0.00000000    0.00000000
     atom   10 type  1   force =     0.00000000    0.00000000    0.00000000
     atom   11 type  2   force =     0.00000000    0.00000000    0.00000000
     atom   12 type  2   force =     0.00000000    0.00000000    0.00000000
     atom   13 type  1   force =     0.00000000    0.00000000    0.00000000
     atom   14 type  2   force =     0.00000000    0.00000000    0.00000000
     atom   15 type  2   force =     0.00000000    0.00000000    0.00000000
     atom   16 type  1   force =     0.00000000    0.00000000    0.00000000
     atom   17 type  2   force =     0.00000000    0.00000000    0.00000000
     atom   18 type  2   force =     0.00000000    0.00000000    0.00000000
     atom   19 type  1   force =     0.00000000    0.00000000    0.00000000
     atom   20 type  2   force =     0.00000000    0.00000000    0.00000000
     atom   21 type  1   force =     0.00000000    0.00000000    0.00000000
     atom   22 type  2   force =     0.00000000    0.00000000    0.00000000
     atom   23 type  2   force =     0.00000000    0.00000000    0.00000000
     atom   24 type  1   force =     0.00000000    0.00000000    0.00000000
     atom   25 type  2   force =     0.00000000    0.00000000    0.00000000
     atom   26 type  2   force =     0.00000000    0.00000000    0.00000000
     atom   27 type  1   force =     0.00000000    0.00000000    0.00000000
     atom   28 type  2   force =     0.00000000    0.00000000    0.00000000
     atom   29 type  2   force =     0.00000000    0.00000000    0.00000000
     atom   30 type  1   force =     0.00000000    0.00000000    0.00000000
     atom   31 type  2   force =     0.00000000    0.00000000    0.00000000
     atom   32 type  2   force =     0.00000000    0.00000000    0.00000000
     atom   33 type  1   force =     0.00000000    0.00000000    0.00000000
     atom   34 type  2   force =     0.00000000    0.00000000    0.00000000
     atom   35 type  2   force =     0.00000000    0.00000000    0.00000000
     atom   36 type  3   force =     0.00000000    0.00000000    0.00000000
     The SCF correction term to forces
     atom    1 type  1   force =     0.00000935   -0.00020959    0.00007733
     atom    2 type  2   force =    -0.00003224    0.00000729   -0.00013029
     atom    3 type  2   force =     0.00001948   -0.00006595    0.00014076
     atom    4 type  1   force =    -0.00011487   -0.00002502    0.00006912
     atom    5 type  2   force =    -0.00001089   -0.00003649   -0.00003056
     atom    6 type  2   force =     0.00003707   -0.00005818    0.00014892
     atom    7 type  1   force =    -0.00020429    0.00002606   -0.00001312
     atom    8 type  2   force =    -0.00005235    0.00004236   -0.00010635
     atom    9 type  2   force =    -0.00002508    0.00006779    0.00015555
     atom   10 type  1   force =     0.00002344    0.00008797   -0.00016761
     atom   11 type  2   force =    -0.00007647    0.00000966   -0.00008318
     atom   12 type  2   force =    -0.00000386    0.00005025    0.00015686
     atom   13 type  1   force =    -0.00002636   -0.00021678    0.00010723
     atom   14 type  2   force =    -0.00001006   -0.00002839   -0.00009661
     atom   15 type  2   force =    -0.00000380   -0.00005934    0.00014215
     atom   16 type  1   force =    -0.00003774    0.00027958    0.00013658
     atom   17 type  2   force =     0.00000537   -0.00001394   -0.00003895
     atom   18 type  2   force =    -0.00004368   -0.00004339    0.00015470
     atom   19 type  1   force =     0.00029127   -0.00007042    0.00000120
     atom   20 type  2   force =     0.00002503    0.00007614    0.00024524
     atom   21 type  1   force =     0.00001852    0.00004209    0.00003967
     atom   22 type  2   force =     0.00008095    0.00004793   -0.00002248
     atom   23 type  2   force =     0.00002722    0.00007927    0.00008271
     atom   24 type  1   force =     0.00003586   -0.00016565   -0.00007909
     atom   25 type  2   force =     0.00003353    0.00000114   -0.00012994
     atom   26 type  2   force =    -0.00002867   -0.00005364    0.00013517
     atom   27 type  1   force =     0.00009415   -0.00009506    0.00006990
     atom   28 type  2   force =     0.00001917   -0.00005769   -0.00006498
     atom   29 type  2   force =     0.00001489   -0.00007980    0.00012043
     atom   30 type  1   force =    -0.00002599    0.00017154    0.00001877
     atom   31 type  2   force =     0.00005505    0.00000914   -0.00003499
     atom   32 type  2   force =    -0.00000318    0.00002203    0.00010784
     atom   33 type  1   force =    -0.00007173    0.00018357   -0.00007279
     atom   34 type  2   force =     0.00000163    0.00003549   -0.00019830
     atom   35 type  2   force =    -0.00000952    0.00008474    0.00011852
     atom   36 type  3   force =    -0.00000484    0.00000209   -0.00001664

     Total force =     0.125094     Total SCF correction =     0.000994

     BFGS Geometry Optimization
     Energy error            =      0.0E+00 Ry
     Gradient error          =      5.4E-02 Ry/Bohr

     number of scf cycles    =   1
     number of bfgs steps    =   0

     energy             new  =   -2205.4896639752 Ry

     new trust radius        =       0.0543670420 bohr
     new conv_thr            =       0.0000010000 Ry


ATOMIC_POSITIONS (angstrom)
Mo            6.5816885411        1.7735388896        2.8261972086
S             8.1689590084        0.8193875678        4.4348987907
S             8.1866174094        0.8164812289        1.2761749570
Mo            8.0961538139        4.4953050210        2.7127035748
S             6.4984055127        3.7192067205        4.3432693110
S             6.5560822267        3.5167296978        1.1216129925
Mo            6.4913021569        7.2132657605        2.6706877212
S             8.0904710172        6.3471226508        4.2657636438
S             8.0879864464        6.3082838945        1.0904073457
Mo            8.1557333631        9.9065992211        2.8289740844
S             6.4966813581        8.9425230557        4.3777100357
S             6.6183393151        9.0493553506        1.1430638850
Mo            3.4248629047        1.7491414020        2.7724741740
S             4.9792971871        0.8173963477        4.3569931563
S             5.0512776038        0.8478343620        1.2226408652
Mo            4.9779942999        4.5181451308        2.6343004480
S             3.4311665839        3.6720272208        4.2805962165
S             3.4358880917        3.5444398854        1.0655269666
Mo            3.4586515226        7.2093257701        2.6296498604
S             4.9848666048        6.3252994579        1.0380671575
Mo            5.0083447842        9.9055564558        2.7439593065
S             3.4705208624        8.9432135775        4.3230442295
S             3.4072936330        9.0659484065        1.1013218321
Mo            0.2920015761        1.7447596918        2.8373956724
S             1.8588880860        0.8027826457        4.4027100008
S             1.8548195354        0.8541641984        1.2070578231
Mo            1.8599985410        4.4962540567        2.6628042008
S             0.2728879007        3.6525919673        4.3356052405
S             0.2325547027        3.5269446906        1.1713640075
Mo            0.2731002144        7.2205978374        2.6807000080
S             1.9043248091        6.3111490730        4.2327974765
S             1.8573354737        6.3141662697        1.0492551193
Mo            1.8533794025        9.9383616157        2.7655167682
S             0.2951941295        9.0616732754        4.4188599069
S             0.2719024562        9.0471011725        1.1585362801
H             9.4441359374        7.2902061743        5.3436825524



     Writing config-only to output data dir ./MoS2-V-O.save/
     NEW-OLD atomic charge density approx. for the potential

     negative rho (up, down):  1.440E-04 0.000E+00

     total cpu time spent up to now is       76.6 secs

     Self-consistent Calculation

     iteration #  1     ecut=    80.00 Ry     beta= 0.70
     Davidson diagonalization with overlap
     ethr =  1.00E-06,  avg # of iterations =  8.0

     negative rho (up, down):  1.023E-04 0.000E+00

     total cpu time spent up to now is       93.3 secs

     total energy              =   -2205.50231390 Ry
     estimated scf accuracy    <       0.00116568 Ry

     iteration #  2     ecut=    80.00 Ry     beta= 0.70
     Davidson diagonalization with overlap
     ethr =  3.80E-07,  avg # of iterations =  2.0

     negative rho (up, down):  8.875E-05 0.000E+00

     total cpu time spent up to now is      109.6 secs

     total energy              =   -2205.50232882 Ry
     estimated scf accuracy    <       0.00026332 Ry

     iteration #  3     ecut=    80.00 Ry     beta= 0.70
     Davidson diagonalization with overlap
     ethr =  8.58E-08,  avg # of iterations =  2.0

     negative rho (up, down):  8.501E-05 0.000E+00

     total cpu time spent up to now is      121.5 secs

     total energy              =   -2205.50236496 Ry
     estimated scf accuracy    <       0.00003335 Ry

     iteration #  4     ecut=    80.00 Ry     beta= 0.70
     Davidson diagonalization with overlap
     ethr =  1.09E-08,  avg # of iterations =  6.0

     negative rho (up, down):  8.438E-05 0.000E+00

     total cpu time spent up to now is      141.4 secs

     total energy              =   -2205.50237770 Ry
     estimated scf accuracy    <       0.00000799 Ry

     iteration #  5     ecut=    80.00 Ry     beta= 0.70
     Davidson diagonalization with overlap
     ethr =  2.60E-09,  avg # of iterations =  2.0

     negative rho (up, down):  8.316E-05 0.000E+00

     total cpu time spent up to now is      149.8 secs

     total energy              =   -2205.50237837 Ry
     estimated scf accuracy    <       0.00000157 Ry

     iteration #  6     ecut=    80.00 Ry     beta= 0.70
     Davidson diagonalization with overlap
     ethr =  5.13E-10,  avg # of iterations =  5.0

     negative rho (up, down):  8.436E-05 0.000E+00

     total cpu time spent up to now is      160.0 secs

     total energy              =   -2205.50237873 Ry
     estimated scf accuracy    <       0.00000111 Ry

     iteration #  7     ecut=    80.00 Ry     beta= 0.70
     Davidson diagonalization with overlap
     ethr =  3.61E-10,  avg # of iterations =  2.0

     negative rho (up, down):  1.375E-04 0.000E+00

     total cpu time spent up to now is      162.0 secs

     End of self-consistent calculation

          k = 0.0000 0.0000 0.0000 (105382 PWs)   bands (ev):

   -62.9004 -62.8938 -62.8836 -62.8607 -62.8417 -62.8396 -62.8328 -62.8188
   -62.8158 -62.7823 -62.7779 -62.7415 -37.2477 -37.1724 -37.1616 -37.1527
   -37.1469 -37.1192 -37.1015 -37.0882 -37.0803 -37.0782 -37.0752 -37.0568
   -37.0495 -37.0472 -37.0339 -37.0285 -37.0199 -37.0159 -37.0108 -36.9981
   -36.9937 -36.9732 -36.9524 -36.9467 -36.9346 -36.9297 -36.9161 -36.9124
   -36.9076 -36.8908 -36.8789 -36.8600 -36.8569 -36.8140 -36.7491 -36.7281
   -16.0149 -15.2309 -15.1991 -14.9934 -14.9562 -14.8479 -14.5557 -14.5246
   -14.4833 -14.4748 -14.4102 -14.3519 -14.3377 -14.2940 -14.1728 -14.1548
   -14.1294 -14.1282 -14.0458 -13.9280 -13.8650 -13.8431 -13.8280  -7.9403
    -7.6224  -7.4229  -7.3319  -7.2692  -7.2244  -7.2156  -7.1419  -7.0785
    -6.8494  -6.8060  -6.7511  -6.6830  -6.6399  -6.5229  -6.4443  -6.4239
    -6.2805  -6.2482  -6.0433  -5.9496  -5.9291  -5.9161  -5.8372  -5.8224
    -5.7790  -5.7266  -5.6943  -5.6765  -5.6409  -5.5862  -5.5506  -5.4850
    -5.4488  -5.3859  -5.2266  -5.1305  -5.0686  -5.0289  -5.0186  -4.9881
    -4.9370  -4.8599  -4.6595  -4.5626  -4.3397  -4.3225  -4.2892  -4.2664
    -4.2314  -4.0663  -4.0446  -3.8641  -3.8432  -3.7981  -3.7330  -3.7218
    -3.6898  -3.5821  -3.5516  -3.5177  -3.4996  -3.4860  -3.4546  -3.3948
    -3.3770  -3.2260  -3.1519  -2.9083  -2.9022  -2.8170  -2.7899  -2.7770
    -2.7190  -2.6820  -2.6623  -2.6369  -2.5849  -2.2968  -2.0202  -2.0018
    -1.9823  -1.0799  -0.7815  -0.7065  -0.1826  -0.1686  -0.1060  -0.0687
     0.0527   0.0996   0.2125   0.2417   0.2469   0.2877   0.3599   0.4068
     0.4474   0.5251   0.5361   0.5550   0.6001   0.6569   0.6872   0.7156
     0.7719   0.7839   0.8500   0.8649   0.9387   0.9616   1.0104   1.0997
     1.4320

     the Fermi energy is    -1.0801 ev

!    total energy              =   -2205.50237820 Ry
     estimated scf accuracy    <       0.00000060 Ry
     smearing contrib. (-TS)   =      -0.00569045 Ry
     internal energy E=F+TS    =   -2205.49668774 Ry

     The total energy is F=E-TS. E is the sum of the following terms:
     one-electron contribution =  -18045.30896068 Ry
     hartree contribution      =    9009.27431617 Ry
     xc contribution           =    -385.19175658 Ry
     ewald contribution        =    7215.72971335 Ry

     convergence has been achieved in   7 iterations

     negative rho (up, down):  1.375E-04 0.000E+00

     Forces acting on atoms (cartesian axes, Ry/au):

     atom    1 type  1   force =     0.00336687   -0.01346427   -0.00000116
     atom    2 type  2   force =    -0.00842758    0.01128957   -0.00185393
     atom    3 type  2   force =    -0.01098569    0.00727656   -0.00927605
     atom    4 type  1   force =     0.00327443    0.00285233   -0.00065034
     atom    5 type  2   force =    -0.00086727   -0.00574671   -0.00727126
     atom    6 type  2   force =     0.00336280    0.00545590    0.00201596
     atom    7 type  1   force =     0.00486306   -0.00696762    0.00468938
     atom    8 type  2   force =     0.01882012    0.00552971    0.03082145
     atom    9 type  2   force =     0.01005904    0.00527796    0.00625883
     atom   10 type  1   force =    -0.00265765    0.00626085   -0.00797780
     atom   11 type  2   force =     0.00217633    0.00002833   -0.01154493
     atom   12 type  2   force =    -0.00223295    0.00026362    0.00227143
     atom   13 type  1   force =     0.00438952    0.00297757   -0.00264615
     atom   14 type  2   force =     0.00558158    0.00043140    0.00884243
     atom   15 type  2   force =    -0.00868867    0.00221631   -0.00654849
     atom   16 type  1   force =    -0.00132710    0.00616877    0.00242824
     atom   17 type  2   force =     0.00505301    0.00086082    0.00149635
     atom   18 type  2   force =    -0.00267733   -0.00452599    0.01026049
     atom   19 type  1   force =     0.00582633   -0.00988131    0.00311621
     atom   20 type  2   force =     0.00370334   -0.00306068   -0.00206497
     atom   21 type  1   force =    -0.00468181    0.00441516    0.00227337
     atom   22 type  2   force =    -0.00033278   -0.00150853   -0.00488084
     atom   23 type  2   force =    -0.00006672   -0.00009870    0.00543565
     atom   24 type  1   force =    -0.00436565   -0.00337801   -0.00931333
     atom   25 type  2   force =     0.01108160    0.01402577    0.00072284
     atom   26 type  2   force =    -0.00706230   -0.00076577   -0.00579962
     atom   27 type  1   force =    -0.00116935    0.00041885    0.00636950
     atom   28 type  2   force =    -0.00005518   -0.00439483   -0.00589464
     atom   29 type  2   force =     0.00231622    0.00058414   -0.00349188
     atom   30 type  1   force =     0.00267465   -0.00115551   -0.01316377
     atom   31 type  2   force =     0.00151674   -0.00098668    0.01013560
     atom   32 type  2   force =    -0.00492921    0.00485395    0.00386034
     atom   33 type  1   force =     0.00746424   -0.00131347   -0.00064056
     atom   34 type  2   force =    -0.00209328   -0.04236656   -0.00087114
     atom   35 type  2   force =    -0.00646745    0.00982206    0.00527315
     atom   36 type  3   force =    -0.02644190    0.00860500   -0.01238035
     The non-local contrib.  to forces
     atom    1 type  1   force =     0.00011545    0.03045299   -0.01346973
     atom    2 type  2   force =    -0.00484564   -0.00147679   -0.26984636
     atom    3 type  2   force =    -0.01229931   -0.00585829    0.26592721
     atom    4 type  1   force =     0.00248378    0.00518098   -0.00357119
     atom    5 type  2   force =     0.00395102   -0.03455960   -0.25329443
     atom    6 type  2   force =    -0.00302607    0.00786898    0.26578140
     atom    7 type  1   force =    -0.01495862   -0.00414934   -0.02157865
     atom    8 type  2   force =     0.08429590    0.07588192   -0.14548424
     atom    9 type  2   force =     0.00517311   -0.01009972    0.27743284
     atom   10 type  1   force =     0.00565998    0.00049358   -0.00169972
     atom   11 type  2   force =     0.01244265    0.00422307   -0.26267601
     atom   12 type  2   force =    -0.00849853   -0.01973807    0.25918891
     atom   13 type  1   force =     0.00125603    0.02106128   -0.00565136
     atom   14 type  2   force =     0.00951616   -0.01165268   -0.26327576
     atom   15 type  2   force =    -0.01036653   -0.00635422    0.26089521
     atom   16 type  1   force =     0.00342133    0.02985320   -0.02728788
     atom   17 type  2   force =     0.00153241   -0.02843132   -0.24975236
     atom   18 type  2   force =    -0.00317710   -0.00176498    0.27186007
     atom   19 type  1   force =     0.01825117   -0.00049905   -0.01689847
     atom   20 type  2   force =     0.00024055   -0.01837614    0.26419701
     atom   21 type  1   force =     0.00119073    0.02968244    0.00922457
     atom   22 type  2   force =    -0.00539484    0.00147189   -0.25624285
     atom   23 type  2   force =     0.00816839   -0.01424733    0.26297639
     atom   24 type  1   force =     0.00346232    0.01630017   -0.01111856
     atom   25 type  2   force =     0.00748673    0.00390919   -0.26253953
     atom   26 type  2   force =     0.00030250   -0.01400051    0.26376538
     atom   27 type  1   force =    -0.00229221    0.00723841    0.00679811
     atom   28 type  2   force =    -0.00421166   -0.02753585   -0.27545910
     atom   29 type  2   force =     0.00408792    0.00396578    0.26341059
     atom   30 type  1   force =     0.00165013    0.01647893    0.01410315
     atom   31 type  2   force =    -0.00488745    0.00782785   -0.23687191
     atom   32 type  2   force =     0.00115489   -0.01290035    0.27224864
     atom   33 type  1   force =    -0.00451679    0.00545855    0.00108532
     atom   34 type  2   force =    -0.01336161   -0.11041576   -0.20203697
     atom   35 type  2   force =     0.00015396   -0.01052913    0.26554129
     atom   36 type  3   force =    -0.00479839    0.00178562   -0.00818440
     The ionic contribution  to forces
     atom    1 type  1   force =     0.09782905    0.58510064    5.82167307
     atom    2 type  2   force =    -0.48922290    0.34587301   39.35687322
     atom    3 type  2   force =    -0.15672972    0.05540674  -36.20406626
     atom    4 type  1   force =    -0.08133556    0.38258166    0.47247916
     atom    5 type  2   force =    -0.98805251    1.41680507   38.64175476
     atom    6 type  2   force =     0.25389578   -0.57364894  -37.93119979
     atom    7 type  1   force =    -2.75422445   -2.72990234    2.49098551
     atom    8 type  2   force =    -1.50571548   -0.38501408   37.10513758
     atom    9 type  2   force =     0.21669526   -0.10642574  -38.03429258
     atom   10 type  1   force =    -0.92929224   -0.09913126    5.19474668
     atom   11 type  2   force =    -0.67714927   -1.48835101   39.02101577
     atom   12 type  2   force =     0.31514517    0.65547430  -37.84669741
     atom   13 type  1   force =     0.45508228    0.96397262    2.80948727
     atom   14 type  2   force =    -0.01711304    0.04790065   38.62188065
     atom   15 type  2   force =     0.17679839   -0.00515023  -36.84414739
     atom   16 type  1   force =     0.09325367    3.64919455    0.57810575
     atom   17 type  2   force =     0.83665759    1.39313345   37.95179285
     atom   18 type  2   force =    -0.12779764   -0.62702813  -38.49404644
     atom   19 type  1   force =     2.82653150   -2.34738697    0.58755209
     atom   20 type  2   force =     0.23418667   -0.20378075  -38.55062116
     atom   21 type  1   force =     0.04749390    0.04849657    1.27583307
     atom   22 type  2   force =     0.52975365   -1.64035581   38.40437471
     atom   23 type  2   force =    -0.01476105    0.62512116  -38.28322593
     atom   24 type  1   force =    -0.33669662    1.03223830    5.53079858
     atom   25 type  2   force =     0.55954485    0.27040299   39.24189980
     atom   26 type  2   force =    -0.23499338    0.09186899  -37.31487067
     atom   27 type  1   force =     0.11100873    0.17961751   -2.14183234
     atom   28 type  2   force =     0.04279450    0.77865629   38.13818807
     atom   29 type  2   force =    -0.22996808   -0.42249137  -37.28645093
     atom   30 type  1   force =    -0.26676160   -0.99815051   -1.67651658
     atom   31 type  2   force =     1.55353979   -0.21019643   37.16610670
     atom   32 type  2   force =    -0.34405233   -0.09620517  -38.68379139
     atom   33 type  1   force =     0.64083808   -0.47009406    1.98064182
     atom   34 type  2   force =     0.33040796   -0.56116291   38.93073727
     atom   35 type  2   force =    -0.24717512    0.61603376  -37.82228158
     atom   36 type  3   force =     0.07958419   -0.17340256    7.79197609
     The local contribution  to forces
     atom    1 type  1   force =    -0.09450752   -0.62925207   -5.80910515
     atom    2 type  2   force =     0.48539785   -0.33296568  -39.11011128
     atom    3 type  2   force =     0.15746364   -0.04252228   35.94948236
     atom    4 type  1   force =     0.08215173   -0.38511996   -0.47073154
     atom    5 type  2   force =     0.98370685   -1.38994658  -38.41637892
     atom    6 type  2   force =    -0.24770355    0.57220765   37.68806494
     atom    7 type  1   force =     2.77390148    2.72725860   -2.46592889
     atom    8 type  2   force =     1.44461475    0.31833254  -36.94374247
     atom    9 type  2   force =    -0.21164955    0.12136351   37.78396567
     atom   10 type  1   force =     0.92075247    0.10504783   -5.20245600
     atom   11 type  2   force =     0.66735295    1.48466857  -38.79108254
     atom   12 type  2   force =    -0.30968436   -0.63689797   37.61014712
     atom   13 type  1   force =    -0.45199427   -0.98219517   -2.80739474
     atom   14 type  2   force =     0.01378620   -0.03598404  -38.37083249
     atom   15 type  2   force =    -0.17574812    0.01319987   36.59705974
     atom   16 type  1   force =    -0.09806838   -3.67286717   -0.54930750
     atom   17 type  2   force =    -0.83317209   -1.36535333  -37.72115497
     atom   18 type  2   force =     0.12824326    0.62471838   38.25320641
     atom   19 type  1   force =    -2.83890397    2.33809195   -0.56859243
     atom   20 type  2   force =    -0.23081491    0.21850141   38.30530069
     atom   21 type  1   force =    -0.05331343   -0.07361425   -1.28380807
     atom   22 type  2   force =    -0.52472803    1.63786795  -38.17383389
     atom   23 type  2   force =     0.00707558   -0.61205987   38.04614044
     atom   24 type  1   force =     0.32880884   -1.05192646   -5.53004004
     atom   25 type  2   force =    -0.55578965   -0.25987632  -38.99966712
     atom   26 type  2   force =     0.22787714   -0.07945575   37.06591838
     atom   27 type  1   force =    -0.10982246   -0.18657887    2.14038737
     atom   28 type  2   force =    -0.03887911   -0.75743688  -37.88997964
     atom   29 type  2   force =     0.22860730    0.41969962   37.03989860
     atom   30 type  1   force =     0.26777981    0.98064944    1.64774358
     atom   31 type  2   force =    -1.54740013    0.20160776  -36.93907828
     atom   32 type  2   force =     0.33815563    0.11339343   38.43617172
     atom   33 type  1   force =    -0.62869572    0.46340562   -1.98366467
     atom   34 type  2   force =    -0.32013248    0.62384416  -38.74712500
     atom   35 type  2   force =     0.24068496   -0.59676580   37.58265333
     atom   36 type  3   force =    -0.10121775    0.18023144   -7.79623299
     The core correction contribution to forces
     atom    1 type  1   force =     0.00000000    0.00000000    0.00000000
     atom    2 type  2   force =     0.00011377   -0.00003953    0.02076906
     atom    3 type  2   force =     0.00055512    0.00019275   -0.02083196
     atom    4 type  1   force =     0.00000000    0.00000000    0.00000000
     atom    5 type  2   force =    -0.00050986    0.00185267    0.02030648
     atom    6 type  2   force =     0.00024527   -0.00099135   -0.02091923
     atom    7 type  1   force =     0.00000000    0.00000000    0.00000000
     atom    8 type  2   force =    -0.00444167   -0.00367977    0.01442414
     atom    9 type  2   force =    -0.00010829    0.00054578   -0.02114048
     atom   10 type  1   force =     0.00000000    0.00000000    0.00000000
     atom   11 type  2   force =    -0.00056864   -0.00042100    0.02075749
     atom   12 type  2   force =     0.00086449    0.00147558   -0.02064374
     atom   13 type  1   force =     0.00000000    0.00000000    0.00000000
     atom   14 type  2   force =    -0.00057716    0.00014036    0.02066243
     atom   15 type  2   force =     0.00062417    0.00044670   -0.02057525
     atom   16 type  1   force =     0.00000000    0.00000000    0.00000000
     atom   17 type  2   force =     0.00003897    0.00144826    0.02023272
     atom   18 type  2   force =     0.00004035   -0.00051127   -0.02098286
     atom   19 type  1   force =     0.00000000    0.00000000    0.00000000
     atom   20 type  2   force =     0.00012058    0.00064095   -0.02119976
     atom   21 type  1   force =     0.00000000    0.00000000    0.00000000
     atom   22 type  2   force =     0.00010352   -0.00039073    0.02041842
     atom   23 type  2   force =    -0.00057040    0.00117080   -0.02072994
     atom   24 type  1   force =     0.00000000    0.00000000    0.00000000
     atom   25 type  2   force =    -0.00004181   -0.00033207    0.02066649
     atom   26 type  2   force =    -0.00025120    0.00077064   -0.02087021
     atom   27 type  1   force =     0.00000000    0.00000000    0.00000000
     atom   28 type  2   force =     0.00027203    0.00181984    0.02095930
     atom   29 type  2   force =    -0.00043384   -0.00064565   -0.02060077
     atom   30 type  1   force =     0.00000000    0.00000000    0.00000000
     atom   31 type  2   force =     0.00036993   -0.00028321    0.01950983
     atom   32 type  2   force =    -0.00026642    0.00065614   -0.02104037
     atom   33 type  1   force =     0.00000000    0.00000000    0.00000000
     atom   34 type  2   force =     0.00102704    0.00536397    0.01712439
     atom   35 type  2   force =    -0.00017545    0.00104991   -0.02094138
     atom   36 type  3   force =     0.00000000    0.00000000    0.00000000
     The Hubbard contrib.    to forces
     atom    1 type  1   force =     0.00000000    0.00000000    0.00000000
     atom    2 type  2   force =     0.00000000    0.00000000    0.00000000
     atom    3 type  2   force =     0.00000000    0.00000000    0.00000000
     atom    4 type  1   force =     0.00000000    0.00000000    0.00000000
     atom    5 type  2   force =     0.00000000    0.00000000    0.00000000
     atom    6 type  2   force =     0.00000000    0.00000000    0.00000000
     atom    7 type  1   force =     0.00000000    0.00000000    0.00000000
     atom    8 type  2   force =     0.00000000    0.00000000    0.00000000
     atom    9 type  2   force =     0.00000000    0.00000000    0.00000000
     atom   10 type  1   force =     0.00000000    0.00000000    0.00000000
     atom   11 type  2   force =     0.00000000    0.00000000    0.00000000
     atom   12 type  2   force =     0.00000000    0.00000000    0.00000000
     atom   13 type  1   force =     0.00000000    0.00000000    0.00000000
     atom   14 type  2   force =     0.00000000    0.00000000    0.00000000
     atom   15 type  2   force =     0.00000000    0.00000000    0.00000000
     atom   16 type  1   force =     0.00000000    0.00000000    0.00000000
     atom   17 type  2   force =     0.00000000    0.00000000    0.00000000
     atom   18 type  2   force =     0.00000000    0.00000000    0.00000000
     atom   19 type  1   force =     0.00000000    0.00000000    0.00000000
     atom   20 type  2   force =     0.00000000    0.00000000    0.00000000
     atom   21 type  1   force =     0.00000000    0.00000000    0.00000000
     atom   22 type  2   force =     0.00000000    0.00000000    0.00000000
     atom   23 type  2   force =     0.00000000    0.00000000    0.00000000
     atom   24 type  1   force =     0.00000000    0.00000000    0.00000000
     atom   25 type  2   force =     0.00000000    0.00000000    0.00000000
     atom   26 type  2   force =     0.00000000    0.00000000    0.00000000
     atom   27 type  1   force =     0.00000000    0.00000000    0.00000000
     atom   28 type  2   force =     0.00000000    0.00000000    0.00000000
     atom   29 type  2   force =     0.00000000    0.00000000    0.00000000
     atom   30 type  1   force =     0.00000000    0.00000000    0.00000000
     atom   31 type  2   force =     0.00000000    0.00000000    0.00000000
     atom   32 type  2   force =     0.00000000    0.00000000    0.00000000
     atom   33 type  1   force =     0.00000000    0.00000000    0.00000000
     atom   34 type  2   force =     0.00000000    0.00000000    0.00000000
     atom   35 type  2   force =     0.00000000    0.00000000    0.00000000
     atom   36 type  3   force =     0.00000000    0.00000000    0.00000000
     The SCF correction term to forces
     atom    1 type  1   force =    -0.00006882    0.00023321    0.00087832
     atom    2 type  2   force =     0.00013063   -0.00010241    0.00043910
     atom    3 type  2   force =     0.00002587    0.00005667    0.00019027
     atom    4 type  1   force =    -0.00002422    0.00020867    0.00115089
     atom    5 type  2   force =     0.00003852    0.00010075    0.00031851
     atom    6 type  2   force =    -0.00004735    0.00001859    0.00026631
     atom    7 type  1   force =     0.00014595   -0.00017552    0.00118908
     atom    8 type  2   force =     0.00006791    0.00000812    0.00046411
     atom    9 type  2   force =    -0.00005019   -0.00010684    0.00027104
     atom   10 type  1   force =     0.00022344   -0.00015027    0.00140891
     atom   11 type  2   force =     0.00009993   -0.00009228    0.00041804
     atom   12 type  2   force =    -0.00005843   -0.00005119    0.00025422
     atom   13 type  1   force =     0.00004677    0.00013787    0.00089034
     atom   14 type  2   force =    -0.00002928    0.00002614    0.00038528
     atom   15 type  2   force =     0.00000472    0.00007322    0.00019686
     atom   16 type  1   force =     0.00006757   -0.00001278    0.00089553
     atom   17 type  2   force =    -0.00000257    0.00006279    0.00035578
     atom   18 type  2   force =     0.00001509    0.00005903    0.00020098
     atom   19 type  1   force =    -0.00005108   -0.00008822    0.00103269
     atom   20 type  2   force =    -0.00002826   -0.00004712    0.00023592
     atom   21 type  1   force =    -0.00005173   -0.00015057    0.00100147
     atom   22 type  2   force =    -0.00006578   -0.00010280    0.00038045
     atom   23 type  2   force =     0.00002204   -0.00008443    0.00025236
     atom   24 type  1   force =     0.00006111    0.00000900    0.00102435
     atom   25 type  2   force =    -0.00011723   -0.00007900    0.00034087
     atom   26 type  2   force =     0.00000392    0.00004989    0.00023517
     atom   27 type  1   force =    -0.00006212    0.00014083    0.00099403
     atom   28 type  2   force =    -0.00002964    0.00010080    0.00037440
     atom   29 type  2   force =     0.00002421    0.00005478    0.00022829
     atom   30 type  1   force =     0.00000760   -0.00013433    0.00148374
     atom   31 type  2   force =    -0.00010411    0.00005637    0.00044692
     atom   32 type  2   force =     0.00008032   -0.00009108    0.00024941
     atom   33 type  1   force =    -0.00016005   -0.00008455    0.00127464
     atom   34 type  2   force =    -0.00003290    0.00000300    0.00040683
     atom   35 type  2   force =     0.00004550    0.00003235    0.00027915
     atom   36 type  3   force =    -0.00000865   -0.00001048    0.00003862

     Total force =     0.085692     Total SCF correction =     0.004244
     Energy error            =      1.3E-02 Ry
     Gradient error          =      4.2E-02 Ry/Bohr

     number of scf cycles    =   2
     number of bfgs steps    =   1

     energy             old  =   -2205.4896639752 Ry
     energy             new  =   -2205.5023781984 Ry

     CASE: energy            _new < energy            _old

     new trust radius        =       0.0598037462 bohr
     new conv_thr            =       0.0000000424 Ry


ATOMIC_POSITIONS (angstrom)
Mo            6.5853358369        1.7622706478        2.8267896295
S             8.1621799560        0.8283065052        4.4338871141
S             8.1785904064        0.8219971650        1.2702975817
Mo            8.0983186535        4.4970478919        2.7111316116
S             6.4975439090        3.7150671605        4.3381856628
S             6.5587035968        3.5211124867        1.1228813713
Mo            6.4944820678        7.2079481391        2.6731804862
S             8.1036209576        6.3511448869        4.2893851493
S             8.0955711700        6.3122340019        1.0956249745
Mo            8.1530286124        9.9113244700        2.8208962946
S             6.4983187275        8.9424460340        4.3696359515
S             6.6171110558        9.0496606848        1.1451389260
Mo            3.4282002290        1.7514081765        2.7699825789
S             4.9835544261        0.8177569240        4.3637177045
S             5.0446215922        0.8495089411        1.2178388320
Mo            4.9768009508        4.5229432982        2.6360639314
S             3.4349241830        3.6726351032        4.2816862027
S             3.4338342550        3.5408859512        1.0732554398
Mo            3.4632061840        7.2018623177        2.6312525563
S             4.9874337460        6.3231119315        1.0370359821
Mo            5.0046685208        9.9090838225        2.7454321579
S             3.4702227101        8.9421974214        4.3195689829
S             3.4069905267        9.0661126486        1.1057533546
Mo            0.2884726911        1.7421252912        2.8290950768
S             1.8673921024        0.8134123050        4.4041821603
S             1.8492581156        0.8536509800        1.2030871041
Mo            1.8591467724        4.4966379055        2.6671728798
S             0.2730118222        3.6495757572        4.3316629493
S             0.2342305459        3.5272191067        1.1691490334
Mo            0.2751328632        7.2208327582        2.6680467430
S             1.9057054821        6.3101830099        4.2411901425
S             1.8532846368        6.3179217874        1.0526263846
Mo            1.8598870632        9.9371728005        2.7634130931
S             0.2937904326        9.0300642041        4.4195040384
S             0.2669506144        9.0537346875        1.1635410122
H             9.4255815966        7.2962825409        5.3350297258



     Writing config-only to output data dir ./MoS2-V-O.save/
     NEW-OLD atomic charge density approx. for the potential

     negative rho (up, down):  1.449E-04 0.000E+00

     total cpu time spent up to now is      165.5 secs

     Self-consistent Calculation

     iteration #  1     ecut=    80.00 Ry     beta= 0.70
     Davidson diagonalization with overlap
     c_bands:  1 eigenvalues not converged
     ethr =  1.00E-06,  avg # of iterations = 20.0

     negative rho (up, down):  9.534E-05 0.000E+00

     total cpu time spent up to now is      180.7 secs

     total energy              =   -2205.51116170 Ry
     estimated scf accuracy    <       0.00070376 Ry

     iteration #  2     ecut=    80.00 Ry     beta= 0.70
     Davidson diagonalization with overlap
     ethr =  2.29E-07,  avg # of iterations =  2.0

     negative rho (up, down):  7.561E-05 0.000E+00

     total cpu time spent up to now is      202.9 secs

     total energy              =   -2205.51119493 Ry
     estimated scf accuracy    <       0.00013355 Ry

     iteration #  3     ecut=    80.00 Ry     beta= 0.70
     Davidson diagonalization with overlap
     ethr =  4.35E-08,  avg # of iterations =  5.0

     negative rho (up, down):  6.646E-05 0.000E+00

     total cpu time spent up to now is      216.1 secs

     total energy              =   -2205.51121187 Ry
     estimated scf accuracy    <       0.00001941 Ry

     iteration #  4     ecut=    80.00 Ry     beta= 0.70
     Davidson diagonalization with overlap
     ethr =  6.32E-09,  avg # of iterations =  5.0

     negative rho (up, down):  6.630E-05 0.000E+00

     total cpu time spent up to now is      235.3 secs

     total energy              =   -2205.51121764 Ry
     estimated scf accuracy    <       0.00000205 Ry

     iteration #  5     ecut=    80.00 Ry     beta= 0.70
     Davidson diagonalization with overlap
     ethr =  6.66E-10,  avg # of iterations =  5.0

     negative rho (up, down):  7.004E-05 0.000E+00

     total cpu time spent up to now is      250.5 secs

     total energy              =   -2205.51121795 Ry
     estimated scf accuracy    <       0.00000064 Ry

     iteration #  6     ecut=    80.00 Ry     beta= 0.70
     Davidson diagonalization with overlap
     ethr =  2.09E-10,  avg # of iterations =  2.0

     negative rho (up, down):  7.696E-05 0.000E+00

     total cpu time spent up to now is      261.0 secs

     total energy              =   -2205.51121798 Ry
     estimated scf accuracy    <       0.00000018 Ry

     iteration #  7     ecut=    80.00 Ry     beta= 0.70
     Davidson diagonalization with overlap
     ethr =  6.02E-11,  avg # of iterations =  5.0

     negative rho (up, down):  9.492E-05 0.000E+00

     total cpu time spent up to now is      273.0 secs

     total energy              =   -2205.51121789 Ry
     estimated scf accuracy    <       0.00000008 Ry

     iteration #  8     ecut=    80.00 Ry     beta= 0.70
     Davidson diagonalization with overlap
     ethr =  2.64E-11,  avg # of iterations =  4.0

     negative rho (up, down):  1.380E-04 0.000E+00

     total cpu time spent up to now is      275.2 secs

     End of self-consistent calculation

          k = 0.0000 0.0000 0.0000 (105382 PWs)   bands (ev):

   -62.8944 -62.8888 -62.8790 -62.8551 -62.8347 -62.8326 -62.8269 -62.8128
   -62.8095 -62.7723 -62.7678 -62.7378 -37.2399 -37.1654 -37.1533 -37.1455
   -37.1387 -37.1130 -37.0955 -37.0820 -37.0733 -37.0712 -37.0698 -37.0514
   -37.0439 -37.0399 -37.0264 -37.0218 -37.0140 -37.0089 -37.0028 -36.9923
   -36.9878 -36.9661 -36.9445 -36.9387 -36.9263 -36.9226 -36.9097 -36.9050
   -36.9037 -36.8832 -36.8735 -36.8524 -36.8508 -36.8084 -36.7435 -36.7191
   -16.0100 -15.2402 -15.1884 -14.9852 -14.9419 -14.8479 -14.5544 -14.5086
   -14.4777 -14.4622 -14.4112 -14.3452 -14.3341 -14.2925 -14.1648 -14.1542
   -14.1243 -14.1217 -14.0426 -13.9178 -13.8612 -13.8430 -13.8214  -7.9839
    -7.6176  -7.4140  -7.3264  -7.2575  -7.2231  -7.2153  -7.1381  -7.0843
    -6.8459  -6.7968  -6.7393  -6.6700  -6.6376  -6.5160  -6.4328  -6.4110
    -6.2772  -6.2435  -6.0459  -5.9442  -5.9223  -5.9078  -5.8244  -5.8146
    -5.7786  -5.7161  -5.6898  -5.6664  -5.6438  -5.5896  -5.5517  -5.4765
    -5.4283  -5.3586  -5.2203  -5.1237  -5.0500  -5.0225  -5.0094  -4.9693
    -4.9389  -4.8585  -4.6439  -4.5583  -4.3387  -4.3106  -4.2828  -4.2558
    -4.2348  -4.0661  -4.0501  -3.8715  -3.8408  -3.7925  -3.7347  -3.7081
    -3.6791  -3.5647  -3.5437  -3.5233  -3.5000  -3.4879  -3.4514  -3.3870
    -3.3741  -3.2256  -3.1500  -2.9035  -2.8932  -2.8047  -2.7846  -2.7658
    -2.7094  -2.6772  -2.6615  -2.6257  -2.5791  -2.2907  -2.0146  -1.9979
    -1.9943  -1.0871  -0.7686  -0.6913  -0.1765  -0.1706  -0.0881  -0.0662
     0.0595   0.1000   0.2283   0.2434   0.2643   0.3005   0.3693   0.4123
     0.4520   0.5268   0.5488   0.5595   0.6007   0.6540   0.6895   0.7274
     0.7753   0.7953   0.8616   0.8635   0.9572   0.9755   1.0180   1.1083
     1.4435

     the Fermi energy is    -1.0872 ev

!    total energy              =   -2205.51121776 Ry
     estimated scf accuracy    <       0.00000002 Ry
     smearing contrib. (-TS)   =      -0.00566655 Ry
     internal energy E=F+TS    =   -2205.50555122 Ry

     The total energy is F=E-TS. E is the sum of the following terms:
     one-electron contribution =  -18044.62000393 Ry
     hartree contribution      =    9008.98385904 Ry
     xc contribution           =    -385.19119168 Ry
     ewald contribution        =    7215.32178536 Ry

     convergence has been achieved in   8 iterations

     negative rho (up, down):  1.380E-04 0.000E+00

     Forces acting on atoms (cartesian axes, Ry/au):

     atom    1 type  1   force =    -0.00351015   -0.00316846   -0.00407448
     atom    2 type  2   force =    -0.00342362    0.00568434   -0.00234623
     atom    3 type  2   force =    -0.00859698    0.00449864   -0.01109352
     atom    4 type  1   force =     0.00401397    0.00348599    0.00322776
     atom    5 type  2   force =     0.00059880   -0.00475299   -0.00645919
     atom    6 type  2   force =     0.00220237    0.00305748    0.00308449
     atom    7 type  1   force =     0.00645366   -0.00460838    0.00688928
     atom    8 type  2   force =     0.01880680    0.00438681    0.02179908
     atom    9 type  2   force =     0.00664110    0.00360264    0.00260050
     atom   10 type  1   force =     0.00067901    0.00433431    0.00195049
     atom   11 type  2   force =     0.00168258    0.00074352   -0.01000265
     atom   12 type  2   force =    -0.00366998   -0.00071318    0.00135282
     atom   13 type  1   force =     0.00260552    0.00146358   -0.00005688
     atom   14 type  2   force =     0.00337585    0.00023067    0.00590427
     atom   15 type  2   force =    -0.00584212    0.00106315   -0.00502594
     atom   16 type  1   force =     0.00018362    0.00334777    0.00136752
     atom   17 type  2   force =     0.00393787    0.00102509    0.00208377
     atom   18 type  2   force =    -0.00166073   -0.00175930    0.00739847
     atom   19 type  1   force =     0.00341963   -0.00675929    0.00426466
     atom   20 type  2   force =     0.00436594   -0.00233842   -0.00271051
     atom   21 type  1   force =    -0.00232699    0.00230431    0.00119803
     atom   22 type  2   force =     0.00007753   -0.00189944   -0.00321940
     atom   23 type  2   force =     0.00099326   -0.00174185    0.00334393
     atom   24 type  1   force =    -0.00229192   -0.00166392   -0.00288532
     atom   25 type  2   force =     0.00668848    0.00937868   -0.00319484
     atom   26 type  2   force =    -0.00317533   -0.00110046   -0.00463597
     atom   27 type  1   force =    -0.00093319   -0.00018786    0.00503227
     atom   28 type  2   force =    -0.00084311   -0.00479021   -0.00550790
     atom   29 type  2   force =     0.00194147    0.00151858   -0.00352597
     atom   30 type  1   force =     0.00220167   -0.00428456    0.00194923
     atom   31 type  2   force =     0.00088373   -0.00051801    0.00426035
     atom   32 type  2   force =    -0.00079264    0.00234627    0.00120519
     atom   33 type  1   force =     0.00044945   -0.00003006    0.00506378
     atom   34 type  2   force =    -0.00196182   -0.03055749   -0.00579924
     atom   35 type  2   force =    -0.00361563    0.00983922    0.00024950
     atom   36 type  3   force =    -0.02955811    0.00856283   -0.01368736
     The non-local contrib.  to forces
     atom    1 type  1   force =     0.00109955    0.02764216   -0.01361373
     atom    2 type  2   force =    -0.00141903   -0.00566456   -0.26837308
     atom    3 type  2   force =    -0.00953298   -0.00828821    0.26323547
     atom    4 type  1   force =     0.00315738    0.00616098   -0.00518177
     atom    5 type  2   force =     0.00448710   -0.03401998   -0.25344878
     atom    6 type  2   force =    -0.00404227    0.00543128    0.26756988
     atom    7 type  1   force =    -0.01428552   -0.00407087   -0.02300942
     atom    8 type  2   force =     0.09014888    0.08030709   -0.14385837
     atom    9 type  2   force =     0.00336063   -0.01097331    0.27517774
     atom   10 type  1   force =     0.00496156    0.00083672   -0.00232750
     atom   11 type  2   force =     0.01142547    0.00438544   -0.26181628
     atom   12 type  2   force =    -0.00888460   -0.02066406    0.26026803
     atom   13 type  1   force =     0.00218425    0.02203346   -0.00540881
     atom   14 type  2   force =     0.00762090   -0.01164940   -0.26432377
     atom   15 type  2   force =    -0.00799981   -0.00743749    0.26099307
     atom   16 type  1   force =     0.00314876    0.03094752   -0.02886189
     atom   17 type  2   force =     0.00036853   -0.02748645   -0.24974558
     atom   18 type  2   force =    -0.00219314    0.00010922    0.27035506
     atom   19 type  1   force =     0.01979449    0.00068254   -0.01788394
     atom   20 type  2   force =     0.00083099   -0.01716416    0.26303460
     atom   21 type  1   force =     0.00019365    0.03012834    0.00844096
     atom   22 type  2   force =    -0.00433818    0.00018966   -0.25546844
     atom   23 type  2   force =     0.00904317   -0.01551411    0.26222118
     atom   24 type  1   force =     0.00202321    0.01666038   -0.01008920
     atom   25 type  2   force =     0.00467333    0.00020744   -0.26452537
     atom   26 type  2   force =     0.00325877   -0.01368978    0.26452124
     atom   27 type  1   force =    -0.00244078    0.00706938    0.00562141
     atom   28 type  2   force =    -0.00430341   -0.02693731   -0.27570475
     atom   29 type  2   force =     0.00296597    0.00320711    0.26442196
     atom   30 type  1   force =     0.00195257    0.01660050    0.01511160
     atom   31 type  2   force =    -0.00296865    0.00569041   -0.24026852
     atom   32 type  2   force =     0.00435033   -0.01440023    0.27046470
     atom   33 type  1   force =    -0.00309479    0.00485112   -0.00040897
     atom   34 type  2   force =    -0.01397355   -0.10445874   -0.19870912
     atom   35 type  2   force =     0.00233777   -0.01133467    0.26315534
     atom   36 type  3   force =    -0.00558482    0.00183517   -0.00891907
     The ionic contribution  to forces
     atom    1 type  1   force =    -0.05749985    0.84005511    5.80045627
     atom    2 type  2   force =    -0.33101520    0.24946801   39.40938941
     atom    3 type  2   force =    -0.12736508    0.05399764  -36.33383456
     atom    4 type  1   force =    -0.16715812    0.39668332    0.51126238
     atom    5 type  2   force =    -0.95966120    1.41070664   38.53599736
     atom    6 type  2   force =     0.20662987   -0.59404852  -37.84834000
     atom    7 type  1   force =    -2.70738045   -2.67219325    2.68823648
     atom    8 type  2   force =    -1.53545558   -0.43640571   37.27248291
     atom    9 type  2   force =     0.13011465   -0.12830354  -38.00784189
     atom   10 type  1   force =    -0.69930003   -0.15462886    5.06413833
     atom   11 type  2   force =    -0.64846600   -1.47662688   38.92503773
     atom   12 type  2   force =     0.24933373    0.59011299  -37.79877398
     atom   13 type  1   force =     0.38597982    0.91174575    2.74573929
     atom   14 type  2   force =    -0.07084685    0.06217563   38.71377802
     atom   15 type  2   force =     0.18751328    0.01003700  -36.91300912
     atom   16 type  1   force =     0.20785257    3.50288775    0.65258844
     atom   17 type  2   force =     0.82897421    1.35549100   37.97407742
     atom   18 type  2   force =    -0.11643634   -0.58402652  -38.42715206
     atom   19 type  1   force =     2.80714038   -2.22585889    0.68138056
     atom   20 type  2   force =     0.24785664   -0.17205511  -38.60868317
[...]
     atom   27 type  1   force =    -0.00311753    0.00567571    0.00544412
     atom   28 type  2   force =     0.00809364   -0.01783108   -0.26602921
     atom   29 type  2   force =    -0.00776163   -0.00959547    0.27136604
     atom   30 type  1   force =    -0.00044503    0.02001751    0.00480919
     atom   31 type  2   force =    -0.01219793    0.00365410   -0.25823723
     atom   32 type  2   force =     0.00846383   -0.01694157    0.26431818
     atom   33 type  1   force =     0.00038504    0.00887709    0.00122049
     atom   34 type  2   force =    -0.00029023   -0.01031953   -0.25270761
     atom   35 type  2   force =     0.00246579   -0.00999760    0.26903502
     atom   36 type  3   force =    -0.00516349   -0.03580651   -0.04225530
     The ionic contribution  to forces
     atom    1 type  1   force =    -0.17271583    0.71042775    1.69772106
     atom    2 type  2   force =    -0.15890694    0.35151695   38.64597454
     atom    3 type  2   force =     0.04717002   -0.14687500  -37.84511400
     atom    4 type  1   force =    -0.00972426    1.63658444   -1.03773353
     atom    5 type  2   force =    -0.69595434    1.23707575   38.14495130
     atom    6 type  2   force =    -0.05003334   -0.12856145  -38.43355374
     atom    7 type  1   force =    -2.83376396   -3.12709964    4.49012575
     atom    8 type  2   force =    -1.31407752   -2.06962253   37.77514629
     atom    9 type  2   force =     0.28143158    0.17378043  -37.25288973
     atom   10 type  1   force =    -0.34783101   -0.20747896    1.98906717
     atom   11 type  2   force =    -0.75153757   -0.87930356   38.53182922
     atom   12 type  2   force =     0.12908101    0.08903310  -37.90298754
     atom   13 type  1   force =     0.05446368    0.86872529    1.84099306
     atom   14 type  2   force =    -0.01997696    0.15832019   38.51850240
     atom   15 type  2   force =    -0.06978989   -0.18627659  -37.69398495
     atom   16 type  1   force =    -0.03313645    3.75865733    1.28419360
     atom   17 type  2   force =     0.82721126    1.13304247   38.21220977
     atom   18 type  2   force =    -0.24890268   -0.07780872  -38.03627763
     atom   19 type  1   force =     2.72471297   -2.13307879    4.40712739
     atom   20 type  2   force =     0.02769021    0.05478071  -38.03238609
     atom   21 type  1   force =    -0.27406834   -0.32721787    1.05873539
     atom   22 type  2   force =     0.39820288   -1.28324985   38.64705665
     atom   23 type  2   force =    -0.20370750    0.01793750  -37.67499919
     atom   24 type  1   force =     0.14778831    0.60925478    1.08920913
     atom   25 type  2   force =     0.16018956    0.22627563   38.70384691
     atom   26 type  2   force =     0.00980131   -0.14086988  -37.75059457
     atom   27 type  1   force =     0.14944627    0.40867907    0.73274814
     atom   28 type  2   force =    -0.14940968    0.51658710   37.76579146
     atom   29 type  2   force =     0.22526253    0.12169815  -37.94025731
     atom   30 type  1   force =     0.11525197   -1.45652518    3.08902082
     atom   31 type  2   force =     1.26955908   -0.12256411   38.38652934
     atom   32 type  2   force =    -0.27086472    0.13658213  -37.47665258
     atom   33 type  1   force =     0.62907694   -0.48010760    2.58573361
     atom   34 type  2   force =     0.35585937    0.01031785   38.64594950
     atom   35 type  2   force =     0.07800782   -0.06994752  -37.50654077
     atom   36 type  3   force =    -0.02580580    0.61731063    8.34150912
     The local contribution  to forces
     atom    1 type  1   force =     0.17468289   -0.73470062   -1.68829828
     atom    2 type  2   force =     0.15916510   -0.34040383  -38.40276172
     atom    3 type  2   force =    -0.04659523    0.15680798   37.60063877
     atom    4 type  1   force =     0.00877217   -1.63978485    1.05053800
     atom    5 type  2   force =     0.70239567   -1.20812081  -37.92011672
     atom    6 type  2   force =     0.04783568    0.13210739   38.18824454
     atom    7 type  1   force =     2.85062735    3.13440045   -4.46948016
     atom    8 type  2   force =     1.27017680    1.83613809  -37.81024330
     atom    9 type  2   force =    -0.27637294   -0.16091208   36.99879425
     atom   10 type  1   force =     0.34472557    0.20073712   -1.99539540
     atom   11 type  2   force =     0.74457685    0.87994119  -38.30679230
     atom   12 type  2   force =    -0.12341572   -0.07872445   37.65847247
     atom   13 type  1   force =    -0.05714425   -0.89283131   -1.83788291
     atom   14 type  2   force =     0.02012669   -0.14581839  -38.27419969
     atom   15 type  2   force =     0.06985009    0.19441158   37.45344953
     atom   16 type  1   force =     0.02552243   -3.79258073   -1.25657581
     atom   17 type  2   force =    -0.82211622   -1.11258777  -37.98036486
     atom   18 type  2   force =     0.24947678    0.08257348   37.79328308
     atom   19 type  1   force =    -2.75101541    2.13075206   -4.37998186
     atom   20 type  2   force =    -0.02487531   -0.03900859   37.79010364
     atom   21 type  1   force =     0.27482940    0.29827687   -1.06116307
     atom   22 type  2   force =    -0.39297844    1.28991620  -38.41069461
     atom   23 type  2   force =     0.19496571   -0.00728860   37.43112520
     atom   24 type  1   force =    -0.14819595   -0.62592876   -1.08762692
     atom   25 type  2   force =    -0.16227218   -0.21415355  -38.46240208
     atom   26 type  2   force =    -0.01138052    0.15067920   37.50648265
     atom   27 type  1   force =    -0.14630032   -0.41435794   -0.73833791
     atom   28 type  2   force =     0.14209663   -0.49960377  -37.51948479
     atom   29 type  2   force =    -0.21783386   -0.11306666   37.69094363
     atom   30 type  1   force =    -0.11390646    1.43734335   -3.09494507
     atom   31 type  2   force =    -1.25693321    0.11804056  -38.14855010
     atom   32 type  2   force =     0.26283608   -0.12001384   37.23243504
     atom   33 type  1   force =    -0.62885955    0.47148956   -2.58702935
     atom   34 type  2   force =    -0.35553237   -0.00037566  -38.41288841
     atom   35 type  2   force =    -0.08062504    0.08052082   37.26033329
     atom   36 type  3   force =     0.03047724   -0.58379479   -8.29942895
     The core correction contribution to forces
     atom    1 type  1   force =     0.00000000    0.00000000    0.00000000
     atom    2 type  2   force =     0.00001242    0.00070560    0.02069981
     atom    3 type  2   force =     0.00006824    0.00034109   -0.02087739
     atom    4 type  1   force =     0.00000000    0.00000000    0.00000000
     atom    5 type  2   force =     0.00018946    0.00131528    0.01997463
     atom    6 type  2   force =    -0.00025231   -0.00032598   -0.02092916
     atom    7 type  1   force =     0.00000000    0.00000000    0.00000000
     atom    8 type  2   force =    -0.00272260   -0.01625949    0.00049655
     atom    9 type  2   force =     0.00039137    0.00099107   -0.02129492
     atom   10 type  1   force =     0.00000000    0.00000000    0.00000000
     atom   11 type  2   force =    -0.00035502    0.00019772    0.01975426
     atom   12 type  2   force =     0.00048651    0.00061448   -0.02083644
     atom   13 type  1   force =     0.00000000    0.00000000    0.00000000
     atom   14 type  2   force =     0.00000649    0.00042647    0.02075364
     atom   15 type  2   force =    -0.00003295    0.00033191   -0.02058589
     atom   16 type  1   force =     0.00000000    0.00000000    0.00000000
     atom   17 type  2   force =     0.00050404    0.00091223    0.02021764
     atom   18 type  2   force =    -0.00017497   -0.00013892   -0.02070866
     atom   19 type  1   force =     0.00000000    0.00000000    0.00000000
     atom   20 type  2   force =     0.00026857    0.00088182   -0.02110151
     atom   21 type  1   force =     0.00000000    0.00000000    0.00000000
     atom   22 type  2   force =     0.00014704    0.00021982    0.02044980
     atom   23 type  2   force =    -0.00063617    0.00052366   -0.02082776
     atom   24 type  1   force =     0.00000000    0.00000000    0.00000000
     atom   25 type  2   force =    -0.00009636    0.00071099    0.02060884
     atom   26 type  2   force =    -0.00003470    0.00028641   -0.02082384
     atom   27 type  1   force =     0.00000000    0.00000000    0.00000000
     atom   28 type  2   force =    -0.00052073    0.00098164    0.02077133
     atom   29 type  2   force =     0.00053821    0.00031530   -0.02094832
     atom   30 type  1   force =     0.00000000    0.00000000    0.00000000
     atom   31 type  2   force =     0.00066667   -0.00001832    0.02038775
     atom   32 type  2   force =    -0.00068504    0.00100884   -0.02074272
     atom   33 type  1   force =     0.00000000    0.00000000    0.00000000
     atom   34 type  2   force =     0.00013820    0.00081820    0.02006689
     atom   35 type  2   force =    -0.00010771    0.00051275   -0.02103911
     atom   36 type  3   force =     0.00000000    0.00000000    0.00000000
     The Hubbard contrib.    to forces
     atom    1 type  1   force =     0.00000000    0.00000000    0.00000000
     atom    2 type  2   force =     0.00000000    0.00000000    0.00000000
     atom    3 type  2   force =     0.00000000    0.00000000    0.00000000
     atom    4 type  1   force =     0.00000000    0.00000000    0.00000000
     atom    5 type  2   force =     0.00000000    0.00000000    0.00000000
     atom    6 type  2   force =     0.00000000    0.00000000    0.00000000
     atom    7 type  1   force =     0.00000000    0.00000000    0.00000000
     atom    8 type  2   force =     0.00000000    0.00000000    0.00000000
     atom    9 type  2   force =     0.00000000    0.00000000    0.00000000
     atom   10 type  1   force =     0.00000000    0.00000000    0.00000000
     atom   11 type  2   force =     0.00000000    0.00000000    0.00000000
     atom   12 type  2   force =     0.00000000    0.00000000    0.00000000
     atom   13 type  1   force =     0.00000000    0.00000000    0.00000000
     atom   14 type  2   force =     0.00000000    0.00000000    0.00000000
     atom   15 type  2   force =     0.00000000    0.00000000    0.00000000
     atom   16 type  1   force =     0.00000000    0.00000000    0.00000000
     atom   17 type  2   force =     0.00000000    0.00000000    0.00000000
     atom   18 type  2   force =     0.00000000    0.00000000    0.00000000
     atom   19 type  1   force =     0.00000000    0.00000000    0.00000000
     atom   20 type  2   force =     0.00000000    0.00000000    0.00000000
     atom   21 type  1   force =     0.00000000    0.00000000    0.00000000
     atom   22 type  2   force =     0.00000000    0.00000000    0.00000000
     atom   23 type  2   force =     0.00000000    0.00000000    0.00000000
     atom   24 type  1   force =     0.00000000    0.00000000    0.00000000
     atom   25 type  2   force =     0.00000000    0.00000000    0.00000000
     atom   26 type  2   force =     0.00000000    0.00000000    0.00000000
     atom   27 type  1   force =     0.00000000    0.00000000    0.00000000
     atom   28 type  2   force =     0.00000000    0.00000000    0.00000000
     atom   29 type  2   force =     0.00000000    0.00000000    0.00000000
     atom   30 type  1   force =     0.00000000    0.00000000    0.00000000
     atom   31 type  2   force =     0.00000000    0.00000000    0.00000000
     atom   32 type  2   force =     0.00000000    0.00000000    0.00000000
     atom   33 type  1   force =     0.00000000    0.00000000    0.00000000
     atom   34 type  2   force =     0.00000000    0.00000000    0.00000000
     atom   35 type  2   force =     0.00000000    0.00000000    0.00000000
     atom   36 type  3   force =     0.00000000    0.00000000    0.00000000
     The SCF correction term to forces
     atom    1 type  1   force =    -0.00000568   -0.00001507    0.00002788
     atom    2 type  2   force =    -0.00000834   -0.00000176    0.00000175
     atom    3 type  2   force =     0.00000284   -0.00001053    0.00000499
     atom    4 type  1   force =    -0.00001006   -0.00001168    0.00003679
     atom    5 type  2   force =    -0.00000694    0.00000334    0.00002207
     atom    6 type  2   force =    -0.00000035   -0.00000946    0.00001364
     atom    7 type  1   force =    -0.00001308    0.00001511    0.00004912
     atom    8 type  2   force =    -0.00001385    0.00000305    0.00004504
     atom    9 type  2   force =    -0.00000107    0.00000932    0.00000602
     atom   10 type  1   force =    -0.00001256   -0.00000445    0.00000343
     atom   11 type  2   force =    -0.00000161   -0.00000343    0.00000851
     atom   12 type  2   force =     0.00000933    0.00000915    0.00001029
     atom   13 type  1   force =     0.00000728   -0.00001481    0.00003019
     atom   14 type  2   force =    -0.00000100    0.00000222    0.00001076
     atom   15 type  2   force =     0.00000072   -0.00000322    0.00001203
     atom   16 type  1   force =    -0.00000373    0.00000617    0.00005930
     atom   17 type  2   force =     0.00000780    0.00000232    0.00001745
     atom   18 type  2   force =    -0.00000159   -0.00000582    0.00001339
     atom   19 type  1   force =     0.00000394    0.00000523    0.00005052
     atom   20 type  2   force =    -0.00000563    0.00000979    0.00002013
     atom   21 type  1   force =     0.00000384   -0.00000155    0.00003307
     atom   22 type  2   force =     0.00000433   -0.00000998    0.00001079
     atom   23 type  2   force =    -0.00000324    0.00000015    0.00001332
     atom   24 type  1   force =     0.00000379   -0.00001914    0.00000642
     atom   25 type  2   force =     0.00000717   -0.00000072    0.00000242
     atom   26 type  2   force =    -0.00000459   -0.00000527    0.00000493
     atom   27 type  1   force =     0.00000834    0.00000960    0.00004203
     atom   28 type  2   force =     0.00000087    0.00000439    0.00001798
     atom   29 type  2   force =     0.00000282   -0.00001029    0.00000286
     atom   30 type  1   force =     0.00001946    0.00002401    0.00002221
     atom   31 type  2   force =     0.00001130    0.00000281    0.00001371
     atom   32 type  2   force =     0.00000513    0.00000832    0.00001539
     atom   33 type  1   force =     0.00000098   -0.00000070    0.00001315
     atom   34 type  2   force =     0.00000035   -0.00000111    0.00000256
     atom   35 type  2   force =    -0.00000410    0.00000821    0.00000434
     atom   36 type  3   force =    -0.00000223   -0.00000430   -0.00000149

     Total force =     0.007106     Total SCF correction =     0.000158
     Energy error            =      8.2E-05 Ry
     Gradient error          =      2.3E-03 Ry/Bohr

     bfgs converged in  25 scf cycles and  24 bfgs steps
     (criteria: energy <  1.0E-04 Ry, force <  1.0E-02 Ry/Bohr)

     End of BFGS Geometry Optimization

     Final energy             =   -2205.5916322205 Ry

     File ./MoS2-V-O.bfgs deleted, as requested
Begin final coordinates

ATOMIC_POSITIONS (angstrom)
Mo            6.5981526818        1.7461223778        2.7353887153
S             8.1769763497        0.8571976341        4.3451695767
S             8.1809043086        0.8309929167        1.1472749690
Mo            8.1404073461        4.4649143019        2.6647226586
S             6.5613361424        3.6500621017        4.2913104553
S             6.5925199298        3.5425141206        1.0845526611
Mo            6.5588683351        7.2139842791        2.7185048300
S             8.1119624948        6.4128767439        4.4457595774
S             8.1679361382        6.3300769048        1.1534191215
Mo            8.1803927108        9.9414122610        2.7599595357
S             6.5597174268        8.9973684777        4.3384188965
S             6.6228777662        9.0232624079        1.1370181272
Mo            3.4595511457        1.7551768186        2.7415742950
S             5.0255056523        0.8315247679        4.3318026471
S             5.0243547245        0.8301919419        1.1547480332
Mo            5.0341370811        4.5148837576        2.6474025392
S             3.4960660550        3.6569213386        4.3003855829
S             3.4587576574        3.5654384099        1.1041679722
Mo            3.5170661645        7.1667837917        2.7098448486
S             5.0510087188        6.3258869818        1.0830486871
Mo            5.0268870300        9.9129824151        2.7334618646
S             3.5069384467        8.9564750440        4.3417215600
S             3.4420990212        9.0049728785        1.1442002272
Mo            0.3080118504        1.7367585206        2.7368659599
S             1.8939767582        0.8581225944        4.3503748346
S             1.8903498674        0.8223771833        1.1534661150
Mo            1.8866951850        4.4936342412        2.7158525919
S             0.2781899821        3.5980959538        4.2875450160
S             0.2988639114        3.5561430090        1.1163650052
Mo            0.2990308275        7.2166985489        2.7737809853
S             1.9436152387        6.2912363954        4.3297987837
S             1.8868922272        6.3304353935        1.1455793548
Mo            1.8928449061        9.9317906248        2.7661047923
S             0.3096226126        9.0500284643        4.3632239235
S             0.3053937162        9.0250755739        1.1760037169
H             8.2411966018        7.3244605678        5.4975043592
End final coordinates



     Writing all to output data dir ./MoS2-V-O.save/
 
     init_run     :      2.40s CPU      2.65s WALL (       1 calls)
     electrons    :   2246.97s CPU   2507.84s WALL (      25 calls)
     update_pot   :     34.87s CPU     36.85s WALL (      24 calls)
     forces       :     34.32s CPU     40.05s WALL (      25 calls)

     Called by init_run:
     wfcinit      :      0.38s CPU      0.43s WALL (       1 calls)
     potinit      :      1.33s CPU      1.44s WALL (       1 calls)
     hinit0       :      0.16s CPU      0.18s WALL (       1 calls)

     Called by electrons:
     c_bands      :    277.10s CPU    281.52s WALL (     208 calls)
     sum_band     :     60.67s CPU     80.69s WALL (     208 calls)
     v_of_rho     :     96.23s CPU    117.39s WALL (     226 calls)
     newd         :     30.05s CPU     48.10s WALL (     226 calls)
     mix_rho      :   1794.29s CPU   1992.11s WALL (     208 calls)

     Called by c_bands:
     init_us_2    :      4.39s CPU      4.75s WALL (     417 calls)
     init_us_2:cp :      4.39s CPU      4.75s WALL (     417 calls)
     regterg      :    261.76s CPU    265.79s WALL (     208 calls)

     Called by *egterg:
     rdiaghg      :     21.50s CPU     21.72s WALL (    1204 calls)
     h_psi        :    144.04s CPU    145.35s WALL (    1236 calls)
     s_psi        :     17.92s CPU     17.99s WALL (    1236 calls)
     g_psi        :      1.33s CPU      1.34s WALL (    1027 calls)

     Called by h_psi:
     h_psi:calbec :     21.22s CPU     21.35s WALL (    1236 calls)
     vloc_psi     :    102.23s CPU    103.27s WALL (    1236 calls)
     add_vuspsi   :     18.00s CPU     18.11s WALL (    1236 calls)

     General routines
     calbec       :     30.01s CPU     30.19s WALL (    1544 calls)
     fft          :     61.93s CPU     72.62s WALL (   15242 calls)
     ffts         :    808.01s CPU    999.16s WALL (  438848 calls)
     fftw         :     86.82s CPU     87.56s WALL (  129980 calls)
     interpolate  :      1.60s CPU      1.91s WALL (     226 calls)
 
     Parallel routines
 
     PWSCF        :  38m42.94s CPU  43m15.03s WALL

 
   This run was terminated on:   7:43:17   4Nov2023            

=------------------------------------------------------------------------------=
   JOB DONE.
=------------------------------------------------------------------------------=
