
     Program PWSCF v.7.2 starts on  4Nov2023 at  2:14:21 

     This program is part of the open-source Quantum ESPRESSO suite
     for quantum simulation of materials; please cite
         "P. Giannozzi et al., J. Phys.:Condens. Matter 21 395502 (2009);
         "P. Giannozzi et al., J. Phys.:Condens. Matter 29 465901 (2017);
         "P. Giannozzi et al., J. Chem. Phys. 152 154105 (2020);
          URL http://www.quantum-espresso.org", 
     in publications or presentations arising from this work. More details at
     http://www.quantum-espresso.org/quote

     Parallel version (MPI & OpenMP), running on      48 processor cores
     Number of MPI processes:                48
     Threads/MPI process:                     1

     MPI processes distributed on     1 nodes
     109157 MiB available memory on the printing compute node when the environment starts
 
     Waiting for input...
     Reading input from standard input
Warning: card &CELL ignored
Warning: card CELL_DYNAMICS = 'BFGS', ignored
Warning: card CELL_DOFREE = '2DXY' ignored
Warning: card / ignored

     Current dimensions of program PWSCF are:
     Max number of different atomic species (ntypx) = 10
     Max number of k-points (npk) =  40000
     Max angular momentum in pseudopotentials (lmaxx) =  4

     IMPORTANT: XC functional enforced from input :
     Exchange-correlation= RVV10
                           (   1   4  13   4  26   0   0)
     Any further DFT definition will be discarded
     Please, verify this is what you really want


     gamma-point specific algorithms are used
     signal trapping enabled: kill the code with -SIGUSR1 to stop cleanly the simulation 
 
     R & G space division:  proc/nbgrp/npool/nimage =      48
     Subspace diagonalization in iterative solution of the eigenvalue problem:
     one sub-group per band group will be used
     scalapack distributed-memory algorithm (size of sub-group:  2*  2 procs)

 
     Parallelization info
     --------------------
     sticks:   dense  smooth     PW     G-vecs:    dense   smooth      PW
     Min         243     194     47                49060    35090    4376
     Max         246     196     50                49086    35128    4410
     Sum       11735    9389   2349              2355467  1685513  210763
 
     Using Slab Decomposition
 


     bravais-lattice index     =            0
     lattice parameter (alat)  =      17.8707  a.u.
     unit-cell volume          =   17436.2743 (a.u.)^3
     number of atoms/cell      =           36
     number of atomic types    =            3
     number of electrons       =       307.00
     number of Kohn-Sham states=          185
     kinetic-energy cutoff     =      80.0000  Ry
     charge density cutoff     =     400.0000  Ry
     scf convergence threshold =      1.0E-06
     mixing beta               =       0.7000
     number of iterations used =            8  local-TF  mixing
     energy convergence thresh.=      1.0E-04
     force convergence thresh. =      1.0E-02
     Exchange-correlation= RVV10
                           (   1   4  13   4  26   0   0)
     nstep                     =          200


     celldm(1)=  17.870686  celldm(2)=   0.000000  celldm(3)=   0.000000
     celldm(4)=   0.000000  celldm(5)=   0.000000  celldm(6)=   0.000000

     crystal axes: (cart. coord. in units of alat)
               a(1) = (   1.000000   0.000000   0.000000 )  
               a(2) = (   0.000000   1.155671   0.000000 )  
               a(3) = (   0.000000   0.000000   2.643601 )  

     reciprocal axes: (cart. coord. in units 2 pi/alat)
               b(1) = (  1.000000  0.000000  0.000000 )  
               b(2) = (  0.000000  0.865298  0.000000 )  
               b(3) = (  0.000000  0.000000  0.378272 )  


     PseudoPot. # 1 for Mo read from file:
     ../pseudo/Mo_ONCV_PBE-1.0.oncvpsp.upf
     MD5 check sum: 1b5d28e075c9ccadda658a603575cd1f
     Pseudo is Norm-conserving, Zval = 14.0
     Generated using ONCVPSP code by D. R. Hamann
     Using radial grid of 1526 points,  6 beta functions with: 
                l(1) =   0
                l(2) =   0
                l(3) =   1
                l(4) =   1
                l(5) =   2
                l(6) =   2

     PseudoPot. # 2 for S  read from file:
     ../pseudo/s_pbe_v1.4.uspp.F.UPF
     MD5 check sum: 88d86576ff6df21479756cfb9bdac1df
     Pseudo is Ultrasoft + core correction, Zval =  6.0
     Generated by new atomic code, or converted to UPF format
     Using radial grid of  907 points,  6 beta functions with: 
                l(1) =   0
                l(2) =   0
                l(3) =   1
                l(4) =   1
                l(5) =   2
                l(6) =   2
     Q(r) pseudized with  8 coefficients,  rinner =    1.300   1.300   1.300
                                                       1.300   1.300

     PseudoPot. # 3 for H  read from file:
     ../pseudo/H_ONCV_PBE-1.0.oncvpsp.upf
     MD5 check sum: 1790becc920ee074925cf490c71280fe
     Pseudo is Norm-conserving, Zval =  1.0
     Generated using ONCVPSP code by D. R. Hamann
     Using radial grid of 1166 points,  2 beta functions with: 
                l(1) =   0
                l(2) =   0

     atomic species   valence    mass     pseudopotential
        Mo            14.00    95.94000     Mo( 1.00)
        S              6.00    32.06500     S ( 1.00)
        H              1.00     1.00794     H ( 1.00)

     No symmetry found



   Cartesian axes

     site n.     atom                  positions (alat units)
         1           Mo  tau(   1) = (   0.6952221   0.1890506   0.2985846  )
         2           S   tau(   2) = (   0.8646417   0.0856217   0.4689279  )
         3           S   tau(   3) = (   0.8663890   0.0857843   0.1351291  )
         4           Mo  tau(   4) = (   0.8560186   0.4753274   0.2873942  )
         5           S   tau(   5) = (   0.6873294   0.3936244   0.4596353  )
         6           S   tau(   6) = (   0.6929804   0.3713468   0.1185692  )
         7           Mo  tau(   7) = (   0.6862796   0.7633098   0.2825370  )
         8           S   tau(   8) = (   0.8545980   0.6708292   0.4486168  )
         9           S   tau(   9) = (   0.8545123   0.6666874   0.1146125  )
        10           Mo  tau(  10) = (   0.8629403   1.0471007   0.3006803  )
        11           S   tau(  11) = (   0.6868280   0.9456650   0.4634891  )
        12           S   tau(  12) = (   0.6998113   0.9568511   0.1205389  )
        13           Mo  tau(  13) = (   0.3618216   0.1847309   0.2935964  )
        14           S   tau(  14) = (   0.5260962   0.0863870   0.4600448  )
        15           S   tau(  15) = (   0.5348379   0.0894875   0.1297123  )
        16           Mo  tau(  16) = (   0.5265817   0.4772436   0.2784130  )
        17           S   tau(  17) = (   0.3624753   0.3882513   0.4525556  )
        18           S   tau(  18) = (   0.3635411   0.3752055   0.1119148  )
        19           Mo  tau(  19) = (   0.3652268   0.7630864   0.2781795  )
        20           S   tau(  20) = (   0.5269494   0.6690381   0.1096838  )
        21           Mo  tau(  21) = (   0.5300192   1.0470394   0.2900995  )
        22           S   tau(  22) = (   0.3670346   0.9457522   0.4574073  )
        23           S   tau(  23) = (   0.3604225   0.9585725   0.1159032  )
        24           Mo  tau(  24) = (   0.0313099   0.1847895   0.3013130  )
        25           S   tau(  25) = (   0.1956761   0.0838230   0.4650863  )
        26           S   tau(  26) = (   0.1967693   0.0903508   0.1278874  )
        27           Mo  tau(  27) = (   0.1967578   0.4753919   0.2813011  )
        28           S   tau(  28) = (   0.0287851   0.3864324   0.4586755  )
        29           S   tau(  29) = (   0.0244514   0.3729871   0.1239344  )
        30           Mo  tau(  30) = (   0.0286728   0.7631204   0.2856894  )
        31           S   tau(  31) = (   0.2011512   0.6675435   0.4465001  )
        32           S   tau(  32) = (   0.1969214   0.6672839   0.1104564  )
        33           Mo  tau(  33) = (   0.1950294   1.0511147   0.2932237  )
        34           S   tau(  34) = (   0.0312912   0.9612169   0.4667423  )
        35           S   tau(  35) = (   0.0292670   0.9563028   0.1216485  )
        36           H   tau(  36) = (   0.1111111   0.5136314   0.5650415  )

     number of k points=     1  Gaussian smearing, width (Ry)=  0.0100
                       cart. coord. in units 2pi/alat
        k(    1) = (   0.0000000   0.0000000   0.0000000), wk =   2.0000000

     Dense  grid:  1177734 G-vectors     FFT dimensions: ( 120, 135, 320)

     Smooth grid:   842757 G-vectors     FFT dimensions: ( 108, 120, 270)

     Estimated max dynamical RAM per process >     146.59 MB

     Estimated total dynamical RAM >       6.87 GB

     Initial potential from superposition of free atoms

     starting charge     306.9873, renormalised to     307.0000

     negative rho (up, down):  1.408E-04 0.000E+00


---------------------------------------------------------------------------------
Carrying out rVV10 run using the following parameters:
Nqs =      20    Nr_points =    1024   r_max =   100.000
b_value =  6.30000    beta =  0.00901
     q_mesh =  0.00010000  0.00030000  0.00058939  0.00100810
               0.00161396  0.00249058  0.00375900  0.00559430
               0.00824984  0.01209221  0.01765183  0.02569619
               0.03733578  0.05417739  0.07854596  0.11380545
               0.16482331  0.23864234  0.34545298  0.50000000

Gradients computed in Reciprocal space

---------------------------------------------------------------------------------


     Starting wfcs are  213 randomized atomic wfcs

     total cpu time spent up to now is        3.5 secs

     Self-consistent Calculation

     iteration #  1     ecut=    80.00 Ry     beta= 0.70
     Davidson diagonalization with overlap
     ethr =  1.00E-02,  avg # of iterations =  2.0

     Threshold (ethr) on eigenvalues was too large:
     Diagonalizing with lowered threshold

     Davidson diagonalization with overlap
     ethr =  3.75E-04,  avg # of iterations =  4.0

     negative rho (up, down):  1.726E-08 0.000E+00

     total cpu time spent up to now is       19.8 secs

     total energy              =   -2205.58847846 Ry
     estimated scf accuracy    <       1.44399282 Ry

     iteration #  2     ecut=    80.00 Ry     beta= 0.70
     Davidson diagonalization with overlap
     ethr =  4.70E-04,  avg # of iterations =  2.0

     total cpu time spent up to now is       22.3 secs

     total energy              =   -2205.46199959 Ry
     estimated scf accuracy    <       0.56828055 Ry

     iteration #  3     ecut=    80.00 Ry     beta= 0.70
     Davidson diagonalization with overlap
     ethr =  1.85E-04,  avg # of iterations =  2.0

     total cpu time spent up to now is       24.8 secs

     total energy              =   -2205.51193865 Ry
     estimated scf accuracy    <       0.13880835 Ry

     iteration #  4     ecut=    80.00 Ry     beta= 0.70
     Davidson diagonalization with overlap
     c_bands:  1 eigenvalues not converged
     ethr =  4.52E-05,  avg # of iterations = 20.0

     total cpu time spent up to now is       28.1 secs

     total energy              =   -2205.52602532 Ry
     estimated scf accuracy    <       0.03190662 Ry

     iteration #  5     ecut=    80.00 Ry     beta= 0.70
     Davidson diagonalization with overlap
     ethr =  1.04E-05,  avg # of iterations =  9.0

     total cpu time spent up to now is       30.7 secs

     total energy              =   -2205.52676244 Ry
     estimated scf accuracy    <       0.01880362 Ry

     iteration #  6     ecut=    80.00 Ry     beta= 0.70
     Davidson diagonalization with overlap
     ethr =  6.12E-06,  avg # of iterations =  1.0

     total cpu time spent up to now is       32.8 secs

     total energy              =   -2205.52535610 Ry
     estimated scf accuracy    <       0.01340882 Ry

     iteration #  7     ecut=    80.00 Ry     beta= 0.70
     Davidson diagonalization with overlap
     ethr =  4.37E-06,  avg # of iterations =  2.0

     total cpu time spent up to now is       36.2 secs

     total energy              =   -2205.52388522 Ry
     estimated scf accuracy    <       0.00734001 Ry

     iteration #  8     ecut=    80.00 Ry     beta= 0.70
     Davidson diagonalization with overlap
     ethr =  2.39E-06,  avg # of iterations =  2.0

     negative rho (up, down):  9.959E-03 0.000E+00

     total cpu time spent up to now is       40.8 secs

     total energy              =   -2205.52333497 Ry
     estimated scf accuracy    <       0.00368043 Ry

     iteration #  9     ecut=    80.00 Ry     beta= 0.70
     Davidson diagonalization with overlap
     c_bands:  1 eigenvalues not converged
     ethr =  1.20E-06,  avg # of iterations = 20.0

     negative rho (up, down):  2.559E-02 0.000E+00

     total cpu time spent up to now is       45.7 secs

     total energy              =   -2205.52325938 Ry
     estimated scf accuracy    <       0.00233482 Ry

     iteration # 10     ecut=    80.00 Ry     beta= 0.70
     Davidson diagonalization with overlap
     ethr =  7.61E-07,  avg # of iterations = 16.0

     negative rho (up, down):  3.202E-02 0.000E+00

     total cpu time spent up to now is       50.8 secs

     total energy              =   -2205.52346553 Ry
     estimated scf accuracy    <       0.00080434 Ry

     iteration # 11     ecut=    80.00 Ry     beta= 0.70
     Davidson diagonalization with overlap
     ethr =  2.62E-07,  avg # of iterations =  2.0

     negative rho (up, down):  1.594E-02 0.000E+00

     total cpu time spent up to now is       56.5 secs

     total energy              =   -2205.52339219 Ry
     estimated scf accuracy    <       0.00029696 Ry

     iteration # 12     ecut=    80.00 Ry     beta= 0.70
     Davidson diagonalization with overlap
     ethr =  9.67E-08,  avg # of iterations =  2.0

     negative rho (up, down):  6.414E-03 0.000E+00

     total cpu time spent up to now is       64.9 secs

     total energy              =   -2205.52351508 Ry
     estimated scf accuracy    <       0.00006889 Ry

     iteration # 13     ecut=    80.00 Ry     beta= 0.70
     Davidson diagonalization with overlap
     ethr =  2.24E-08,  avg # of iterations =  6.0

     negative rho (up, down):  1.723E-03 0.000E+00

     total cpu time spent up to now is       71.6 secs

     total energy              =   -2205.52353360 Ry
     estimated scf accuracy    <       0.00000929 Ry

     iteration # 14     ecut=    80.00 Ry     beta= 0.70
     Davidson diagonalization with overlap
     ethr =  3.03E-09,  avg # of iterations =  6.0

     negative rho (up, down):  4.649E-04 0.000E+00

     total cpu time spent up to now is       79.7 secs

     total energy              =   -2205.52353551 Ry
     estimated scf accuracy    <       0.00000528 Ry

     iteration # 15     ecut=    80.00 Ry     beta= 0.70
     Davidson diagonalization with overlap
     ethr =  1.72E-09,  avg # of iterations =  3.0

     negative rho (up, down):  1.371E-04 0.000E+00

     total cpu time spent up to now is       81.7 secs

     End of self-consistent calculation

          k = 0.0000 0.0000 0.0000 (105382 PWs)   bands (ev):

   -62.8838 -62.8565 -62.8433 -62.8337 -62.8280 -62.8218 -62.8199 -62.8086
   -62.7949 -62.7791 -62.7535 -62.7406 -37.2168 -37.1628 -37.1424 -37.1347
   -37.1228 -37.0971 -37.0855 -37.0750 -37.0634 -37.0575 -37.0548 -37.0429
   -37.0292 -37.0169 -37.0108 -37.0062 -37.0028 -36.9962 -36.9931 -36.9834
   -36.9587 -36.9540 -36.9415 -36.9268 -36.9232 -36.9068 -36.9064 -36.8972
   -36.8871 -36.8767 -36.8702 -36.8515 -36.8405 -36.8061 -36.7533 -36.6917
   -16.0254 -15.3343 -15.1540 -15.0145 -14.9442 -14.8059 -14.6330 -14.5414
   -14.4738 -14.4315 -14.3850 -14.3525 -14.3160 -14.2789 -14.1941 -14.1396
   -14.1212 -14.0981 -14.0204 -13.9355 -13.8385 -13.8126 -13.7929  -8.1669
    -7.6232  -7.3869  -7.2956  -7.2533  -7.2429  -7.1832  -7.1281  -7.0650
    -6.8411  -6.8017  -6.7477  -6.6807  -6.5484  -6.5122  -6.4373  -6.4181
    -6.2602  -6.2358  -6.1528  -5.9680  -5.9395  -5.9187  -5.8657  -5.7511
    -5.7382  -5.7090  -5.6697  -5.6589  -5.6454  -5.6083  -5.5422  -5.4604
    -5.4472  -5.3860  -5.1649  -5.1459  -5.0611  -5.0522  -4.9719  -4.9509
    -4.9143  -4.8594  -4.6666  -4.5257  -4.3453  -4.3259  -4.2726  -4.2621
    -4.1704  -4.0912  -4.0263  -3.8857  -3.8252  -3.7996  -3.7379  -3.7213
    -3.6643  -3.5734  -3.5584  -3.5067  -3.4855  -3.4629  -3.4551  -3.3846
    -3.3500  -3.2578  -3.1314  -2.8976  -2.8800  -2.8133  -2.7694  -2.7647
    -2.7127  -2.6724  -2.6342  -2.6215  -2.5722  -2.2980  -2.0131  -1.9954
    -1.9862  -0.9555  -0.8031  -0.6778  -0.1783  -0.1308  -0.1128  -0.0502
     0.0868   0.1366   0.2044   0.2376   0.2690   0.3213   0.3704   0.4106
     0.4738   0.5223   0.5335   0.5688   0.6102   0.6637   0.7336   0.7627
     0.7881   0.8111   0.8395   0.8711   0.9630   1.0025   1.0452   1.3092
     1.4039

     the Fermi energy is    -0.9666 ev

!    total energy              =   -2205.52353884 Ry
     estimated scf accuracy    <       0.00000029 Ry
     smearing contrib. (-TS)   =      -0.00699871 Ry
     internal energy E=F+TS    =   -2205.51654013 Ry

     The total energy is F=E-TS. E is the sum of the following terms:
     one-electron contribution =  -18046.77326554 Ry
     hartree contribution      =    9010.15085028 Ry
     xc contribution           =    -385.23695662 Ry
     ewald contribution        =    7216.34283175 Ry

     convergence has been achieved in  15 iterations

     negative rho (up, down):  1.371E-04 0.000E+00

     Forces acting on atoms (cartesian axes, Ry/au):

     atom    1 type  1   force =     0.01525750   -0.02423806    0.00629883
     atom    2 type  2   force =    -0.01611681    0.01642196    0.00162111
     atom    3 type  2   force =    -0.00857753    0.00868342   -0.00249225
     atom    4 type  1   force =     0.00879761    0.00485916    0.00624111
     atom    5 type  2   force =    -0.00340398   -0.00591529   -0.00774132
     atom    6 type  2   force =     0.00078131    0.00932679    0.00018921
     atom    7 type  1   force =     0.00557795   -0.00660613   -0.01054949
     atom    8 type  2   force =     0.00027280   -0.00166299    0.01586489
     atom    9 type  2   force =     0.01212857    0.00425988    0.01078472
     atom   10 type  1   force =    -0.01217505    0.00770529   -0.02733794
     atom   11 type  2   force =     0.00411624   -0.00126838   -0.00492557
     atom   12 type  2   force =    -0.00151844    0.00134405    0.00746579
     atom   13 type  1   force =     0.00278531    0.00683786   -0.00709127
     atom   14 type  2   force =     0.00809569   -0.00041975    0.01234156
     atom   15 type  2   force =    -0.01260542    0.00237594   -0.00842482
     atom   16 type  1   force =    -0.00292393    0.01321649    0.00125346
     atom   17 type  2   force =     0.00462872    0.00072176    0.00476435
     atom   18 type  2   force =    -0.00274755   -0.00631386    0.01264486
     atom   19 type  1   force =     0.00840665   -0.00994758   -0.00969326
     atom   20 type  2   force =     0.00256580   -0.00545404    0.00111469
     atom   21 type  1   force =    -0.00164777    0.00686921   -0.00154682
     atom   22 type  2   force =    -0.00319556   -0.00011911   -0.00264374
     atom   23 type  2   force =     0.00040036    0.00121147    0.00843466
     atom   24 type  1   force =    -0.00923165   -0.01837749   -0.03632974
     atom   25 type  2   force =     0.01711811    0.01526603    0.00676585
     atom   26 type  2   force =    -0.01212995   -0.00048060   -0.00452767
     atom   27 type  1   force =     0.00797393   -0.00257821   -0.01836490
     atom   28 type  2   force =     0.01663265    0.04345461    0.03424627
     atom   29 type  2   force =     0.00381246   -0.00086799   -0.00329713
     atom   30 type  1   force =    -0.00221357    0.00729824   -0.00069071
     atom   31 type  2   force =    -0.01282260   -0.01701914    0.03310831
     atom   32 type  2   force =    -0.00871237    0.00567777    0.00615264
     atom   33 type  1   force =     0.01496181   -0.00869221   -0.00856201
     atom   34 type  2   force =     0.00294082   -0.04151550   -0.01008175
     atom   35 type  2   force =    -0.00823963    0.00850628    0.01523947
     atom   36 type  3   force =    -0.01899245   -0.01255988   -0.02023139
     The non-local contrib.  to forces
     atom    1 type  1   force =    -0.00429573    0.02822115   -0.01079533
     atom    2 type  2   force =    -0.01570637    0.00139021   -0.26820014
     atom    3 type  2   force =    -0.01252996   -0.00340902    0.27093898
     atom    4 type  1   force =     0.00360250    0.00136009    0.00204502
     atom    5 type  2   force =     0.00546078   -0.03271388   -0.25238070
     atom    6 type  2   force =    -0.00273947    0.01313897    0.26164783
     atom    7 type  1   force =    -0.02370546   -0.00045606   -0.01345386
     atom    8 type  2   force =     0.00899513   -0.00809786   -0.25405684
     atom    9 type  2   force =     0.01140533   -0.01219550    0.27756058
     atom   10 type  1   force =     0.00372114    0.00167660   -0.00075211
     atom   11 type  2   force =     0.01461218    0.00566449   -0.25762530
     atom   12 type  2   force =    -0.01204414   -0.01612576    0.26266215
     atom   13 type  1   force =    -0.00029660    0.01903650   -0.00669938
     atom   14 type  2   force =     0.01118988   -0.00918572   -0.26225015
     atom   15 type  2   force =    -0.01367029   -0.00473122    0.26056370
     atom   16 type  1   force =    -0.00178720    0.03143522   -0.02651731
     atom   17 type  2   force =     0.00276940   -0.02634970   -0.24354477
     atom   18 type  2   force =    -0.00498864   -0.00228031    0.27451202
     atom   19 type  1   force =     0.01276625   -0.00462528   -0.01771794
     atom   20 type  2   force =    -0.00199533   -0.02095928    0.26687562
     atom   21 type  1   force =     0.00348724    0.02410852    0.00628597
     atom   22 type  2   force =    -0.00327255    0.00867134   -0.25549877
     atom   23 type  2   force =     0.00619216   -0.01597470    0.26843922
     atom   24 type  1   force =     0.01145743    0.02023133   -0.01869046
     atom   25 type  2   force =     0.01143604    0.00122941   -0.25862834
     atom   26 type  2   force =    -0.00561453   -0.01114593    0.26428372
     atom   27 type  1   force =     0.00160774    0.00794882    0.01662150
     atom   28 type  2   force =     0.08775459    0.14170210   -0.09078635
     atom   29 type  2   force =     0.00767048    0.00481319    0.26614111
     atom   30 type  1   force =    -0.00181428    0.01570142    0.00781991
     atom   31 type  2   force =    -0.04951303   -0.05735390   -0.15043129
     atom   32 type  2   force =    -0.00406126   -0.01261087    0.27438235
     atom   33 type  1   force =    -0.00667836    0.00932985    0.00363777
     atom   34 type  2   force =     0.00020915   -0.03799848   -0.27238912
     atom   35 type  2   force =    -0.00233670   -0.01165793    0.27133076
     atom   36 type  3   force =    -0.00601956   -0.00756062   -0.01336357
     The ionic contribution  to forces
     atom    1 type  1   force =     0.33595346    0.11616244    5.66992033
     atom    2 type  2   force =    -0.71206942    0.32550327   39.27618408
     atom    3 type  2   force =    -0.17920988   -0.00993048  -36.08884511
     atom    4 type  1   force =    -0.22455892    0.52577354    0.33739799
     atom    5 type  2   force =    -1.04205821    1.44448347   38.72287739
     atom    6 type  2   force =     0.33014727   -0.51930035  -38.04643400
     atom    7 type  1   force =    -2.67460093   -2.66522192    2.51558952
     atom    8 type  2   force =    -1.22689679    0.19609810   37.28691788
     atom    9 type  2   force =     0.30840999   -0.00682868  -38.04964555
     atom   10 type  1   force =    -1.15076655   -0.27909902    5.66367174
     atom   11 type  2   force =    -0.58163634   -1.56123417   39.14400859
     atom   12 type  2   force =     0.43553249    0.70958139  -37.84560075
     atom   13 type  1   force =     0.59590345    0.80744940    2.76533624
     atom   14 type  2   force =     0.08113517   -0.05336080   38.52152095
     atom   15 type  2   force =     0.16444511   -0.08257595  -36.79815004
     atom   16 type  1   force =     0.08577843    3.92501413    0.36656074
     atom   17 type  2   force =     1.10692288    1.33784517   37.80816168
     atom   18 type  2   force =    -0.12695838   -0.67197621  -38.61432250
     atom   19 type  1   force =     2.87557915   -2.25237043    0.50419814
     atom   20 type  2   force =     0.24374029   -0.17686067  -38.49721205
     atom   21 type  1   force =     0.06316694    0.07550583    1.18426579
     atom   22 type  2   force =     0.50435065   -1.64225670   38.42572705
     atom   23 type  2   force =    -0.07301713    0.68712114  -38.28996158
     atom   24 type  1   force =    -0.61998146    0.85069555    5.66272050
     atom   25 type  2   force =     0.68505971    0.16257084   39.25208580
     atom   26 type  2   force =    -0.28064014    0.03222581  -37.34666375
     atom   27 type  1   force =     0.27652593    0.28870552   -3.05411458
     atom   28 type  2   force =    -0.42302016    0.26534652   37.60691136
     atom   29 type  2   force =    -0.28756733   -0.46837180  -37.35721693
     atom   30 type  1   force =    -0.44670305   -0.56376784   -0.34358164
     atom   31 type  2   force =     1.55633302    0.52081032   36.90522866
     atom   32 type  2   force =    -0.46190088    0.03420774  -38.71531718
     atom   33 type  1   force =     0.81922410   -0.81045452    2.04320449
     atom   34 type  2   force =     0.21444760   -1.33700275   39.34129929
     atom   35 type  2   force =    -0.30779869    0.50617351  -37.82468803
     atom   36 type  3   force =     0.13672859    0.28933860    7.86796548
     The local contribution  to forces
     atom    1 type  1   force =    -0.31645991   -0.16864192   -5.65259527
     atom    2 type  2   force =     0.71120130   -0.31035077  -39.02712607
     atom    3 type  2   force =     0.18264686    0.02198212   35.83668773
     atom    4 type  1   force =     0.22962956   -0.52212798   -0.33307931
     atom    5 type  2   force =     1.03384832   -1.41958860  -38.49871817
     atom    6 type  2   force =    -0.32694654    0.51670729   37.80610895
     atom    7 type  1   force =     2.70413485    2.65936120   -2.51260167
     atom    8 type  2   force =     1.21864531   -0.19040457  -37.03756707
     atom    9 type  2   force =    -0.30733549    0.02259094   37.80417562
     atom   10 type  1   force =     1.13504005    0.28512198   -5.68993873
     atom   11 type  2   force =     0.57182401    1.55489439  -38.91197655
     atom   12 type  2   force =    -0.42613028   -0.69355630   37.61153306
     atom   13 type  1   force =    -0.59281296   -0.81967456   -2.76544958
     atom   14 type  2   force =    -0.08365385    0.06219371  -38.26767933
     atom   15 type  2   force =    -0.16411991    0.08943592   36.55005270
     atom   16 type  1   force =    -0.08690278   -3.94365094   -0.33867261
     atom   17 type  2   force =    -1.10516503   -1.31220146  -37.57988633
     atom   18 type  2   force =     0.12909301    0.66846935   38.37379312
     atom   19 type  1   force =    -2.88020134    2.24740596   -0.49609549
     atom   20 type  2   force =    -0.23941067    0.19165004   38.25292022
     atom   21 type  1   force =    -0.06834373   -0.09297530   -1.19174997
     atom   22 type  2   force =    -0.50429996    1.63412702  -38.19343632
     atom   23 type  2   force =     0.06774728   -0.67134510   38.05120025
     atom   24 type  1   force =     0.59933205   -0.88976958   -5.68024183
     atom   25 type  2   force =    -0.67924633   -0.14828608  -39.00746098
     atom   26 type  2   force =     0.27414198   -0.02215540   37.09908810
     atom   27 type  1   force =    -0.27008291   -0.29917299    3.01910688
     atom   28 type  2   force =     0.35699225   -0.35596826  -37.49270906
     atom   29 type  2   force =     0.28433205    0.46344217   37.10874898
     atom   30 type  1   force =     0.44633576    0.55543245    0.33515279
     atom   31 type  2   force =    -1.52237761   -0.48376016  -36.73706067
     atom   32 type  2   force =     0.45733492   -0.01659200   38.46842908
     atom   33 type  1   force =    -0.79767526    0.79236341   -2.05508384
     atom   34 type  2   force =    -0.21206324    1.33234469  -39.10025318
     atom   35 type  2   force =     0.30197855   -0.48709880   37.59007625
     atom   36 type  3   force =    -0.14970240   -0.29433342   -7.87482826
     The core correction contribution to forces
     atom    1 type  1   force =     0.00000000    0.00000000    0.00000000
     atom    2 type  2   force =     0.00047570   -0.00018447    0.02061843
     atom    3 type  2   force =     0.00055869    0.00004178   -0.02091810
     atom    4 type  1   force =     0.00000000    0.00000000    0.00000000
     atom    5 type  2   force =    -0.00061944    0.00181652    0.02031246
     atom    6 type  2   force =     0.00031296   -0.00121372   -0.02083277
     atom    7 type  1   force =     0.00000000    0.00000000    0.00000000
     atom    8 type  2   force =    -0.00044751    0.00078167    0.02035233
     atom    9 type  2   force =    -0.00033875    0.00071759   -0.02101382
     atom   10 type  1   force =     0.00000000    0.00000000    0.00000000
     atom   11 type  2   force =    -0.00069214   -0.00054923    0.02050788
     atom   12 type  2   force =     0.00111426    0.00135379   -0.02080426
     atom   13 type  1   force =     0.00000000    0.00000000    0.00000000
     atom   14 type  2   force =    -0.00057490   -0.00005633    0.02062192
     atom   15 type  2   force =     0.00073967    0.00030004   -0.02054005
     atom   16 type  1   force =     0.00000000    0.00000000    0.00000000
     atom   17 type  2   force =     0.00011606    0.00133358    0.01984770
     atom   18 type  2   force =     0.00008259   -0.00051449   -0.02107612
     atom   19 type  1   force =     0.00000000    0.00000000    0.00000000
     atom   20 type  2   force =     0.00020221    0.00080333   -0.02123873
     atom   21 type  1   force =     0.00000000    0.00000000    0.00000000
     atom   22 type  2   force =     0.00003620   -0.00065329    0.02036557
     atom   23 type  2   force =    -0.00052057    0.00129378   -0.02090485
     atom   24 type  1   force =     0.00000000    0.00000000    0.00000000
     atom   25 type  2   force =    -0.00015895   -0.00027576    0.02058166
     atom   26 type  2   force =    -0.00003832    0.00061319   -0.02087657
     atom   27 type  1   force =     0.00000000    0.00000000    0.00000000
     atom   28 type  2   force =    -0.00513435   -0.00766004    0.01069124
     atom   29 type  2   force =    -0.00059464   -0.00071393   -0.02073186
     atom   30 type  1   force =     0.00000000    0.00000000    0.00000000
     atom   31 type  2   force =     0.00273302    0.00340004    0.01511361
     atom   32 type  2   force =    -0.00006965    0.00071700   -0.02106237
     atom   33 type  1   force =     0.00000000    0.00000000    0.00000000
     atom   34 type  2   force =     0.00032063    0.00120919    0.02106650
     atom   35 type  2   force =    -0.00007897    0.00102775   -0.02110834
     atom   36 type  3   force =     0.00000000    0.00000000    0.00000000
     The Hubbard contrib.    to forces
     atom    1 type  1   force =     0.00000000    0.00000000    0.00000000
     atom    2 type  2   force =     0.00000000    0.00000000    0.00000000
     atom    3 type  2   force =     0.00000000    0.00000000    0.00000000
     atom    4 type  1   force =     0.00000000    0.00000000    0.00000000
     atom    5 type  2   force =     0.00000000    0.00000000    0.00000000
     atom    6 type  2   force =     0.00000000    0.00000000    0.00000000
     atom    7 type  1   force =     0.00000000    0.00000000    0.00000000
     atom    8 type  2   force =     0.00000000    0.00000000    0.00000000
     atom    9 type  2   force =     0.00000000    0.00000000    0.00000000
     atom   10 type  1   force =     0.00000000    0.00000000    0.00000000
     atom   11 type  2   force =     0.00000000    0.00000000    0.00000000
     atom   12 type  2   force =     0.00000000    0.00000000    0.00000000
     atom   13 type  1   force =     0.00000000    0.00000000    0.00000000
     atom   14 type  2   force =     0.00000000    0.00000000    0.00000000
     atom   15 type  2   force =     0.00000000    0.00000000    0.00000000
     atom   16 type  1   force =     0.00000000    0.00000000    0.00000000
     atom   17 type  2   force =     0.00000000    0.00000000    0.00000000
     atom   18 type  2   force =     0.00000000    0.00000000    0.00000000
     atom   19 type  1   force =     0.00000000    0.00000000    0.00000000
     atom   20 type  2   force =     0.00000000    0.00000000    0.00000000
     atom   21 type  1   force =     0.00000000    0.00000000    0.00000000
     atom   22 type  2   force =     0.00000000    0.00000000    0.00000000
     atom   23 type  2   force =     0.00000000    0.00000000    0.00000000
     atom   24 type  1   force =     0.00000000    0.00000000    0.00000000
     atom   25 type  2   force =     0.00000000    0.00000000    0.00000000
     atom   26 type  2   force =     0.00000000    0.00000000    0.00000000
     atom   27 type  1   force =     0.00000000    0.00000000    0.00000000
     atom   28 type  2   force =     0.00000000    0.00000000    0.00000000
     atom   29 type  2   force =     0.00000000    0.00000000    0.00000000
     atom   30 type  1   force =     0.00000000    0.00000000    0.00000000
     atom   31 type  2   force =     0.00000000    0.00000000    0.00000000
     atom   32 type  2   force =     0.00000000    0.00000000    0.00000000
     atom   33 type  1   force =     0.00000000    0.00000000    0.00000000
     atom   34 type  2   force =     0.00000000    0.00000000    0.00000000
     atom   35 type  2   force =     0.00000000    0.00000000    0.00000000
     atom   36 type  3   force =     0.00000000    0.00000000    0.00000000
     The SCF correction term to forces
     atom    1 type  1   force =     0.00005967    0.00001805   -0.00022792
     atom    2 type  2   force =    -0.00001803    0.00006149    0.00014779
     atom    3 type  2   force =    -0.00004325   -0.00000320   -0.00035276
     atom    4 type  1   force =     0.00012445   -0.00014870   -0.00011961
     atom    5 type  2   force =    -0.00003545    0.00008499    0.00017068
     atom    6 type  2   force =     0.00000709   -0.00000762   -0.00029781
     atom    7 type  1   force =    -0.00025053   -0.00029157   -0.00008050
     atom    8 type  2   force =    -0.00002335   -0.00004256    0.00022156
     atom    9 type  2   force =    -0.00001251   -0.00002670   -0.00028913
     atom   10 type  1   force =    -0.00016971    0.00000350   -0.00031586
     atom   11 type  2   force =     0.00000851   -0.00004608    0.00016279
     atom   12 type  2   force =     0.00000922    0.00008871   -0.00032143
     atom   13 type  1   force =    -0.00000859    0.00002429   -0.00027557
     atom   14 type  2   force =    -0.00000062   -0.00001283    0.00013115
     atom   15 type  2   force =    -0.00000002   -0.00005506   -0.00034815
     atom   16 type  1   force =    -0.00001239    0.00041586   -0.00011438
     atom   17 type  2   force =    -0.00001459    0.00009195    0.00018906
     atom   18 type  2   force =     0.00002385   -0.00001442   -0.00025868
     atom   19 type  1   force =     0.00026258   -0.00036004   -0.00007498
     atom   20 type  2   force =     0.00002928   -0.00008968   -0.00022740
     atom   21 type  1   force =     0.00004178    0.00022793   -0.00034563
     atom   22 type  2   force =    -0.00000990   -0.00000969    0.00020171
     atom   23 type  2   force =    -0.00000140    0.00011413   -0.00033539
     atom   24 type  1   force =    -0.00003968    0.00046299   -0.00011497
     atom   25 type  2   force =     0.00002762    0.00002540    0.00019069
     atom   26 type  2   force =     0.00002105   -0.00002048   -0.00035618
     atom   27 type  1   force =    -0.00007684   -0.00006178    0.00002427
     atom   28 type  2   force =     0.00004031    0.00003207    0.00014206
     atom   29 type  2   force =    -0.00002811   -0.00003984   -0.00023544
     atom   30 type  1   force =    -0.00003202   -0.00007002   -0.00007879
     atom   31 type  2   force =     0.00000199   -0.00011766    0.00026097
     atom   32 type  2   force =    -0.00001550   -0.00004631   -0.00027626
     atom   33 type  1   force =     0.00009132    0.00006682   -0.00031744
     atom   34 type  2   force =     0.00002667   -0.00007037    0.00019773
     atom   35 type  2   force =    -0.00000383    0.00005953   -0.00036818
     atom   36 type  3   force =     0.00000091   -0.00000667   -0.00000205

     Total force =     0.128900     Total SCF correction =     0.001738

     BFGS Geometry Optimization
     Energy error            =      0.0E+00 Ry
     Gradient error          =      4.3E-02 Ry/Bohr

     number of scf cycles    =   1
     number of bfgs steps    =   0

     energy             new  =   -2205.5235388415 Ry

     new trust radius        =       0.0577733098 bohr
     new conv_thr            =       0.0000010000 Ry


ATOMIC_POSITIONS (angstrom)
Mo            6.5826223302        1.7749799986        2.8269762298
S             8.1681806892        0.8183941515        4.4353962050
S             8.1886940517        0.8158368115        1.2765645851
Mo            8.0998180574        4.4976283037        2.7211210442
S             6.4981079474        3.7192812497        4.3425641199
S             6.5537632485        3.5166730803        1.1213803535
Mo            6.4929334206        7.2149414698        2.6663019375
S             8.0818720873        6.3429909740        4.2508568993
S             8.0873358107        6.3069565493        1.0895700241
Mo            8.1541762914        9.9062578745        2.8289951468
S             6.4973458161        8.9422556143        4.3804990359
S             6.6171436751        9.0494224515        1.1438580278
Mo            3.4231335868        1.7505742884        2.7727186236
S             4.9794495430        0.8167190881        4.3570639664
S             5.0511632516        0.8475194047        1.2222002387
Mo            4.9782094027        4.5201718680        2.6335478533
S             3.4302910753        3.6719816261        4.2822307666
S             3.4364666380        3.5448875448        1.0650430524
Mo            3.4583103490        7.2110605081        2.6255474095
S             4.9845919535        6.3240461324        1.0378435976
Mo            5.0113919604        9.9052350785        2.7425824202
S             3.4692670998        8.9436882383        4.3241923049
S             3.4086410254        9.0656310645        1.1005317315
Mo            0.2912053071        1.7377845839        2.8302198358
S             1.8595207262        0.8007724443        4.4017897698
S             1.8543811406        0.8541715978        1.2070049163
Mo            1.8649109318        4.4943024325        2.6504790915
S             0.2810154666        3.6773940165        4.3557064460
S             0.2332486729        3.5267899084        1.1702731199
Mo            0.2699807798        7.2205081567        2.7013309192
S             1.8954528196        6.3037926958        4.2399642843
S             1.8576278284        6.3133483597        1.0478151192
Mo            1.8522641126        9.9355394320        2.7684154324
S             0.2974691120        9.0680287731        4.4085344316
S             0.2724111749        9.0480270422        1.1584651605
H             1.0407007395        4.8506424860        5.3327557718



     Writing config-only to output data dir ./MoS2-V-O.save/
     NEW-OLD atomic charge density approx. for the potential

     negative rho (up, down):  1.444E-04 0.000E+00

     total cpu time spent up to now is       85.1 secs

     Self-consistent Calculation

     iteration #  1     ecut=    80.00 Ry     beta= 0.70
     Davidson diagonalization with overlap
     ethr =  1.00E-06,  avg # of iterations = 10.0

     negative rho (up, down):  1.117E-04 0.000E+00

     total cpu time spent up to now is       97.9 secs

     total energy              =   -2205.53711406 Ry
     estimated scf accuracy    <       0.00122399 Ry

     iteration #  2     ecut=    80.00 Ry     beta= 0.70
     Davidson diagonalization with overlap
     ethr =  3.99E-07,  avg # of iterations =  2.0

     negative rho (up, down):  1.045E-04 0.000E+00

     total cpu time spent up to now is      114.0 secs

     total energy              =   -2205.53712919 Ry
     estimated scf accuracy    <       0.00028276 Ry

     iteration #  3     ecut=    80.00 Ry     beta= 0.70
     Davidson diagonalization with overlap
     ethr =  9.21E-08,  avg # of iterations =  5.0

     negative rho (up, down):  1.004E-04 0.000E+00

     total cpu time spent up to now is      127.0 secs

     total energy              =   -2205.53716213 Ry
     estimated scf accuracy    <       0.00006450 Ry

     iteration #  4     ecut=    80.00 Ry     beta= 0.70
     Davidson diagonalization with overlap
     ethr =  2.10E-08,  avg # of iterations =  5.0

     negative rho (up, down):  9.839E-05 0.000E+00

     total cpu time spent up to now is      147.3 secs

     total energy              =   -2205.53717449 Ry
     estimated scf accuracy    <       0.00000705 Ry

     iteration #  5     ecut=    80.00 Ry     beta= 0.70
     Davidson diagonalization with overlap
     ethr =  2.30E-09,  avg # of iterations =  5.0

     negative rho (up, down):  9.518E-05 0.000E+00

     total cpu time spent up to now is      158.4 secs

     total energy              =   -2205.53717576 Ry
     estimated scf accuracy    <       0.00000213 Ry

     iteration #  6     ecut=    80.00 Ry     beta= 0.70
     Davidson diagonalization with overlap
     ethr =  6.95E-10,  avg # of iterations =  4.0

     negative rho (up, down):  1.375E-04 0.000E+00

     total cpu time spent up to now is      160.6 secs

     End of self-consistent calculation

          k = 0.0000 0.0000 0.0000 (105382 PWs)   bands (ev):

   -62.8875 -62.8513 -62.8372 -62.8308 -62.8221 -62.8185 -62.8119 -62.8009
   -62.7906 -62.7797 -62.7523 -62.7399 -37.2119 -37.1600 -37.1396 -37.1308
   -37.1123 -37.0939 -37.0846 -37.0710 -37.0562 -37.0549 -37.0502 -37.0317
   -37.0239 -37.0112 -37.0057 -37.0008 -36.9980 -36.9912 -36.9857 -36.9809
   -36.9567 -36.9537 -36.9392 -36.9224 -36.9202 -36.9049 -36.9018 -36.8934
   -36.8847 -36.8765 -36.8652 -36.8471 -36.8358 -36.8012 -36.7528 -36.6905
   -16.0235 -15.3487 -15.1478 -15.0023 -14.9388 -14.8085 -14.6276 -14.5211
   -14.4723 -14.4219 -14.3882 -14.3440 -14.3112 -14.2839 -14.1907 -14.1342
   -14.1152 -14.1027 -14.0200 -13.9166 -13.8450 -13.8187 -13.7911  -8.2151
    -7.6189  -7.3873  -7.2934  -7.2433  -7.2343  -7.1793  -7.1261  -7.0701
    -6.8325  -6.7914  -6.7400  -6.6759  -6.5500  -6.5169  -6.4280  -6.4020
    -6.2551  -6.2298  -6.1709  -5.9563  -5.9253  -5.9015  -5.8598  -5.7471
    -5.7393  -5.7097  -5.6626  -5.6585  -5.6538  -5.6031  -5.5317  -5.4554
    -5.4244  -5.3578  -5.1416  -5.1342  -5.0557  -5.0406  -4.9646  -4.9476
    -4.9169  -4.8647  -4.6575  -4.5285  -4.3378  -4.3162  -4.2660  -4.2598
    -4.1861  -4.1089  -4.0382  -3.8891  -3.8229  -3.7928  -3.7354  -3.7113
    -3.6751  -3.5632  -3.5570  -3.5006  -3.4775  -3.4619  -3.4529  -3.3919
    -3.3471  -3.2580  -3.1382  -2.8878  -2.8738  -2.8105  -2.7579  -2.7495
    -2.7007  -2.6714  -2.6443  -2.6198  -2.5692  -2.2948  -2.0167  -1.9977
    -1.9897  -0.9471  -0.7931  -0.6842  -0.1679  -0.1371  -0.0995  -0.0526
     0.0911   0.1350   0.2201   0.2552   0.2756   0.3328   0.3922   0.4194
     0.4784   0.5278   0.5378   0.5661   0.6172   0.6699   0.7253   0.7643
     0.7906   0.8146   0.8449   0.8855   0.9770   0.9966   1.0445   1.3179
     1.4171

     the Fermi energy is    -0.9581 ev

!    total energy              =   -2205.53717564 Ry
     estimated scf accuracy    <       0.00000080 Ry
     smearing contrib. (-TS)   =      -0.00699955 Ry
     internal energy E=F+TS    =   -2205.53017610 Ry

     The total energy is F=E-TS. E is the sum of the following terms:
     one-electron contribution =  -18044.65063775 Ry
     hartree contribution      =    9009.12533375 Ry
     xc contribution           =    -385.23351639 Ry
     ewald contribution        =    7215.22864430 Ry

     convergence has been achieved in   6 iterations

     negative rho (up, down):  1.375E-04 0.000E+00

     Forces acting on atoms (cartesian axes, Ry/au):

     atom    1 type  1   force =     0.00542306   -0.01224052    0.00102776
     atom    2 type  2   force =    -0.00927349    0.01041382   -0.00122619
     atom    3 type  2   force =    -0.00912482    0.00578746   -0.01032665
     atom    4 type  1   force =     0.00746664    0.00417333    0.00761332
     atom    5 type  2   force =    -0.00167814   -0.00574216   -0.00772368
     atom    6 type  2   force =     0.00154132    0.00656900    0.00302817
     atom    7 type  1   force =     0.00466967   -0.00535956   -0.00320495
     atom    8 type  2   force =    -0.00071489   -0.00029162    0.01138268
     atom    9 type  2   force =     0.01155397    0.00320867    0.00696935
     atom   10 type  1   force =    -0.00513361    0.00665050   -0.00920965
     atom   11 type  2   force =     0.00361700   -0.00083848   -0.00726256
     atom   12 type  2   force =    -0.00321062    0.00115436    0.00172818
     atom   13 type  1   force =     0.00231127    0.00383523   -0.00186052
     atom   14 type  2   force =     0.00571599   -0.00019352    0.00818995
     atom   15 type  2   force =    -0.00861163    0.00227412   -0.00678306
     atom   16 type  1   force =    -0.00072046    0.00852674    0.00300861
     atom   17 type  2   force =     0.00357883    0.00144278    0.00192457
     atom   18 type  2   force =     0.00024580   -0.00523813    0.00694587
     atom   19 type  1   force =     0.00257089   -0.00867445   -0.00019815
     atom   20 type  2   force =     0.00324734   -0.00422407   -0.00356309
     atom   21 type  1   force =    -0.00217758    0.00375195    0.00189466
     atom   22 type  2   force =    -0.00127344   -0.00175100   -0.00380578
     atom   23 type  2   force =     0.00185104   -0.00020931    0.00409852
     atom   24 type  1   force =    -0.00558886   -0.00724353   -0.01478713
     atom   25 type  2   force =     0.01106803    0.01153466   -0.00089260
     atom   26 type  2   force =    -0.00699610   -0.00253387   -0.00655656
     atom   27 type  1   force =     0.00439557    0.00079037   -0.00325237
     atom   28 type  2   force =     0.01727811    0.03133166    0.02630633
     atom   29 type  2   force =     0.00218640   -0.00057867   -0.00424369
     atom   30 type  1   force =    -0.00135935    0.00070927    0.00577924
     atom   31 type  2   force =    -0.00635755   -0.01176868    0.01898804
     atom   32 type  2   force =    -0.00709360    0.00580852    0.00300565
     atom   33 type  1   force =     0.00801584   -0.00356067    0.00004382
     atom   34 type  2   force =     0.00045978   -0.03045074   -0.01423235
     atom   35 type  2   force =    -0.00580660    0.00779621    0.00856327
     atom   36 type  3   force =    -0.02207582   -0.01485965   -0.02136902
     The non-local contrib.  to forces
     atom    1 type  1   force =    -0.00201183    0.02430566   -0.01132820
     atom    2 type  2   force =    -0.01214547   -0.00327267   -0.26764277
     atom    3 type  2   force =    -0.01117720   -0.00664423    0.26467833
     atom    4 type  1   force =     0.00535825    0.00255596    0.00052174
     atom    5 type  2   force =     0.00683023   -0.03264794   -0.25359495
     atom    6 type  2   force =    -0.00233286    0.01039162    0.26517040
     atom    7 type  1   force =    -0.02289687   -0.00077378   -0.01531875
     atom    8 type  2   force =     0.00938315   -0.00724143   -0.25776500
     atom    9 type  2   force =     0.00969957   -0.01252898    0.27566515
     atom   10 type  1   force =     0.00199123    0.00212857   -0.00168493
     atom   11 type  2   force =     0.01295230    0.00528295   -0.25952374
     atom   12 type  2   force =    -0.01305528   -0.01634469    0.25996035
     atom   13 type  1   force =    -0.00021996    0.02077581   -0.00760218
     atom   14 type  2   force =     0.00906694   -0.00851363   -0.26463919
     atom   15 type  2   force =    -0.01061747   -0.00505485    0.26112557
     atom   16 type  1   force =    -0.00263139    0.03344516   -0.02839505
     atom   17 type  2   force =     0.00205815   -0.02479257   -0.24507103
     atom   18 type  2   force =    -0.00251005   -0.00088843    0.27138976
     atom   19 type  1   force =     0.01428052   -0.00333629   -0.01929829
     atom   20 type  2   force =    -0.00140049   -0.01899171    0.26398048
     atom   21 type  1   force =     0.00290471    0.02535714    0.00478359
     atom   22 type  2   force =    -0.00096945    0.00667667   -0.25666140
     atom   23 type  2   force =     0.00774081   -0.01775937    0.26609033
     atom   24 type  1   force =     0.00991281    0.01846219   -0.01828896
     atom   25 type  2   force =     0.00820361   -0.00277511   -0.26293169
     atom   26 type  2   force =    -0.00221737   -0.01214998    0.26360586
     atom   27 type  1   force =     0.00218874    0.00693419    0.01561878
     atom   28 type  2   force =     0.09154927    0.15149535   -0.09079043
     atom   29 type  2   force =     0.00719285    0.00320325    0.26709543
     atom   30 type  1   force =    -0.00158492    0.01643361    0.00663504
     atom   31 type  2   force =    -0.04429864   -0.04947484   -0.16311295
     atom   32 type  2   force =    -0.00142536   -0.01283303    0.27310692
     atom   33 type  1   force =    -0.00492071    0.00813142    0.00201020
     atom   34 type  2   force =    -0.00191172   -0.02950311   -0.27622934
     atom   35 type  2   force =    -0.00117600   -0.01187162    0.26793308
     atom   36 type  3   force =    -0.00741639   -0.00944832   -0.01497034
     The ionic contribution  to forces
     atom    1 type  1   force =     0.09102696    0.51491079    5.81759354
     atom    2 type  2   force =    -0.47707935    0.25679632   39.36366108
     atom    3 type  2   force =    -0.22022797    0.02202710  -36.22167758
     atom    4 type  1   force =    -0.24211952    0.29669833    0.59257980
     atom    5 type  2   force =    -1.03585736    1.40985290   38.60696429
     atom    6 type  2   force =     0.31636997   -0.55715373  -37.91354592
     atom    7 type  1   force =    -2.68025300   -2.59297702    2.37689616
     atom    8 type  2   force =    -1.27291369    0.22289528   37.38446142
     atom    9 type  2   force =     0.30953439   -0.06267226  -38.01835161
     atom   10 type  1   force =    -0.88801946   -0.31513476    5.36800736
     atom   11 type  2   force =    -0.56002303   -1.57308176   39.11937831
     atom   12 type  2   force =     0.35685283    0.65882442  -37.84327075
     atom   13 type  1   force =     0.57093209    0.74181238    2.76494874
     atom   14 type  2   force =    -0.00371437   -0.02114672   38.59330298
     atom   15 type  2   force =     0.18019570   -0.01634614  -36.82656812
     atom   16 type  1   force =     0.24483511    3.68295299    0.51645410
     atom   17 type  2   force =     1.07692533    1.30359861   37.82825990
     atom   18 type  2   force =    -0.04633804   -0.67854195  -38.57754397
     atom   19 type  1   force =     2.71617059   -2.17981980    0.47694968
     atom   20 type  2   force =     0.25957020   -0.17517305  -38.56235469
     atom   21 type  1   force =    -0.00678366    0.01712556    1.30476803
     atom   22 type  2   force =     0.50592655   -1.67048376   38.42353416
     atom   23 type  2   force =    -0.05334988    0.65616384  -38.26357350
     atom   24 type  1   force =    -0.42794577    1.07130148    5.24364365
     atom   25 type  2   force =     0.53082914    0.15477151   39.21327941
     atom   26 type  2   force =    -0.18920162    0.00514233  -37.33046954
     atom   27 type  1   force =     0.13225918    0.24252517   -3.36585470
     atom   28 type  2   force =    -0.42645292   -0.04583865   37.62191531
     atom   29 type  2   force =    -0.34126396   -0.41582194  -37.31876943
     atom   30 type  1   force =    -0.31289521   -0.65547424   -0.25454462
     atom   31 type  2   force =     1.62026457    0.57606453   36.99717888
     atom   32 type  2   force =    -0.47388139    0.06502249  -38.67410286
     atom   33 type  1   force =     0.66290590   -0.62697134    2.15889472
     atom   34 type  2   force =     0.17006212   -1.10886474   39.25074210
     atom   35 type  2   force =    -0.24561117    0.48574427  -37.74526189
     atom   36 type  3   force =     0.15927068    0.31127156    7.89247554
     The local contribution  to forces
     atom    1 type  1   force =    -0.08339855   -0.55209312   -5.80606941
     atom    2 type  2   force =     0.47931016   -0.24305656  -39.11839268
     atom    3 type  2   force =     0.22184149   -0.00984959   35.96736070
     atom    4 type  1   force =     0.24405419   -0.29519353   -0.58657871
     atom    5 type  2   force =     1.02796805   -1.38490221  -38.38174979
     atom    6 type  2   force =    -0.31284102    0.55430441   37.67195509
     atom    7 type  1   force =     2.70786745    2.58867788   -2.36574639
     atom    8 type  2   force =     1.26339843   -0.21660726  -37.13614032
     atom    9 type  2   force =    -0.30732853    0.07783586   37.77030200
     atom   10 type  1   force =     0.88084118    0.32000785   -5.37673323
     atom   11 type  2   force =     0.55129044    1.56777180  -38.88798143
     atom   12 type  2   force =    -0.34801110   -0.64237739   37.60546035
     atom   13 type  1   force =    -0.56840853   -0.75903201   -2.76018727
     atom   14 type  2   force =     0.00103370    0.02942250  -38.34157531
     atom   15 type  2   force =    -0.17875643    0.02322083   36.57896489
     atom   16 type  1   force =    -0.24305042   -3.70809830   -0.48597850
     atom   17 type  2   force =    -1.07544965   -1.27870080  -37.60161755
     atom   18 type  2   force =     0.04904119    0.67470776   38.33391114
     atom   19 type  1   force =    -2.72796131    2.17469663   -0.45890086
     atom   20 type  2   force =    -0.25512646    0.18914222   38.31564163
     atom   21 type  1   force =     0.00182319   -0.03825430   -1.30862086
     atom   22 type  2   force =    -0.50619733    1.66292258  -38.19136979
     atom   23 type  2   force =     0.04800381   -0.63974954   38.02210188
     atom   24 type  1   force =     0.41228071   -1.09774343   -5.24161801
     atom   25 type  2   force =    -0.52780386   -0.14044317  -38.97221432
     atom   26 type  2   force =     0.18442126    0.00380846   37.08089492
     atom   27 type  1   force =    -0.12987824   -0.24881058    3.34592106
     atom   28 type  2   force =     0.35775323   -0.06570709  -37.51513861
     atom   29 type  2   force =     0.33696248    0.41243289   37.06787081
     atom   30 type  1   force =     0.31307598    0.64022662    0.25273608
     atom   31 type  2   force =    -1.58499474   -0.54147401  -36.83085347
     atom   32 type  2   force =     0.46836274   -0.04713510   38.42470231
     atom   33 type  1   force =    -0.65008588    0.61541084   -2.16187292
     atom   34 type  2   force =    -0.16799019    1.10689167  -39.01029424
     atom   35 type  2   force =     0.24102059   -0.46699821   37.50666014
     atom   36 type  3   force =    -0.17392674   -0.31668749   -7.89895041
     The core correction contribution to forces
     atom    1 type  1   force =     0.00000000    0.00000000    0.00000000
     atom    2 type  2   force =     0.00045892   -0.00005210    0.02064603
     atom    3 type  2   force =     0.00043646    0.00019517   -0.02079867
     atom    4 type  1   force =     0.00000000    0.00000000    0.00000000
     atom    5 type  2   force =    -0.00070578    0.00178180    0.02030549
     atom    6 type  2   force =     0.00027975   -0.00111472   -0.02088315
     atom    7 type  1   force =     0.00000000    0.00000000    0.00000000
     atom    8 type  2   force =    -0.00048424    0.00077942    0.02048604
     atom    9 type  2   force =    -0.00023253    0.00068610   -0.02099981
     atom   10 type  1   force =     0.00000000    0.00000000    0.00000000
     atom   11 type  2   force =    -0.00057718   -0.00054500    0.02056113
     atom   12 type  2   force =     0.00108537    0.00133605   -0.02073588
     atom   13 type  1   force =     0.00000000    0.00000000    0.00000000
     atom   14 type  2   force =    -0.00053949   -0.00006274    0.02071319
     atom   15 type  2   force =     0.00062702    0.00035683   -0.02055844
     atom   16 type  1   force =     0.00000000    0.00000000    0.00000000
     atom   17 type  2   force =     0.00012474    0.00125342    0.01989249
     atom   18 type  2   force =     0.00004204   -0.00058617   -0.02102475
     atom   19 type  1   force =     0.00000000    0.00000000    0.00000000
     atom   20 type  2   force =     0.00019062    0.00071774   -0.02118440
     atom   21 type  1   force =     0.00000000    0.00000000    0.00000000
     atom   22 type  2   force =    -0.00006361   -0.00060753    0.02042063
     atom   23 type  2   force =    -0.00055661    0.00135752   -0.02085866
     atom   24 type  1   force =     0.00000000    0.00000000    0.00000000
     atom   25 type  2   force =    -0.00008717   -0.00008464    0.02067750
     atom   26 type  2   force =    -0.00011751    0.00062848   -0.02085718
     atom   27 type  1   force =     0.00000000    0.00000000    0.00000000
     atom   28 type  2   force =    -0.00545644   -0.00859289    0.01015832
     atom   29 type  2   force =    -0.00062017   -0.00059053   -0.02078983
     atom   30 type  1   force =     0.00000000    0.00000000    0.00000000
     atom   31 type  2   force =     0.00255740    0.00312091    0.01547330
     atom   32 type  2   force =    -0.00023129    0.00075625   -0.02103233
     atom   33 type  1   force =     0.00000000    0.00000000    0.00000000
     atom   34 type  2   force =     0.00035279    0.00095957    0.02118236
     atom   35 type  2   force =    -0.00010062    0.00103382   -0.02100756
     atom   36 type  3   force =     0.00000000    0.00000000    0.00000000
     The Hubbard contrib.    to forces
     atom    1 type  1   force =     0.00000000    0.00000000    0.00000000
     atom    2 type  2   force =     0.00000000    0.00000000    0.00000000
     atom    3 type  2   force =     0.00000000    0.00000000    0.00000000
     atom    4 type  1   force =     0.00000000    0.00000000    0.00000000
     atom    5 type  2   force =     0.00000000    0.00000000    0.00000000
     atom    6 type  2   force =     0.00000000    0.00000000    0.00000000
     atom    7 type  1   force =     0.00000000    0.00000000    0.00000000
     atom    8 type  2   force =     0.00000000    0.00000000    0.00000000
     atom    9 type  2   force =     0.00000000    0.00000000    0.00000000
     atom   10 type  1   force =     0.00000000    0.00000000    0.00000000
     atom   11 type  2   force =     0.00000000    0.00000000    0.00000000
     atom   12 type  2   force =     0.00000000    0.00000000    0.00000000
     atom   13 type  1   force =     0.00000000    0.00000000    0.00000000
     atom   14 type  2   force =     0.00000000    0.00000000    0.00000000
     atom   15 type  2   force =     0.00000000    0.00000000    0.00000000
     atom   16 type  1   force =     0.00000000    0.00000000    0.00000000
     atom   17 type  2   force =     0.00000000    0.00000000    0.00000000
     atom   18 type  2   force =     0.00000000    0.00000000    0.00000000
     atom   19 type  1   force =     0.00000000    0.00000000    0.00000000
     atom   20 type  2   force =     0.00000000    0.00000000    0.00000000
     atom   21 type  1   force =     0.00000000    0.00000000    0.00000000
     atom   22 type  2   force =     0.00000000    0.00000000    0.00000000
     atom   23 type  2   force =     0.00000000    0.00000000    0.00000000
     atom   24 type  1   force =     0.00000000    0.00000000    0.00000000
     atom   25 type  2   force =     0.00000000    0.00000000    0.00000000
     atom   26 type  2   force =     0.00000000    0.00000000    0.00000000
     atom   27 type  1   force =     0.00000000    0.00000000    0.00000000
     atom   28 type  2   force =     0.00000000    0.00000000    0.00000000
     atom   29 type  2   force =     0.00000000    0.00000000    0.00000000
     atom   30 type  1   force =     0.00000000    0.00000000    0.00000000
     atom   31 type  2   force =     0.00000000    0.00000000    0.00000000
     atom   32 type  2   force =     0.00000000    0.00000000    0.00000000
     atom   33 type  1   force =     0.00000000    0.00000000    0.00000000
     atom   34 type  2   force =     0.00000000    0.00000000    0.00000000
     atom   35 type  2   force =     0.00000000    0.00000000    0.00000000
     atom   36 type  3   force =     0.00000000    0.00000000    0.00000000
     The SCF correction term to forces
     atom    1 type  1   force =    -0.00018849    0.00063532    0.00081170
     atom    2 type  2   force =     0.00018728   -0.00000199    0.00048202
     atom    3 type  2   force =     0.00000744    0.00005818    0.00009043
     atom    4 type  1   force =     0.00017876    0.00011175    0.00107036
     atom    5 type  2   force =     0.00009174    0.00017246    0.00033115
     atom    6 type  2   force =     0.00007051    0.00014059    0.00031161
     atom    7 type  1   force =    -0.00004287   -0.00028747    0.00094389
     atom    8 type  2   force =    -0.00009351   -0.00011847    0.00032041
     atom    9 type  2   force =    -0.00011391   -0.00011287    0.00033349
     atom   10 type  1   force =     0.00005847   -0.00035198    0.00118103
     atom   11 type  2   force =    -0.00002050   -0.00026730    0.00028304
     atom   12 type  2   force =    -0.00007740   -0.00028486    0.00029398
     atom   13 type  1   force =     0.00001271    0.00027822    0.00096006
     atom   14 type  2   force =    -0.00012575    0.00010623    0.00036813
     atom   15 type  2   force =    -0.00005541    0.00009663    0.00023291
     atom   16 type  1   force =     0.00013127    0.00022606    0.00090793
     atom   17 type  2   force =    -0.00007472    0.00008328    0.00044063
     atom   18 type  2   force =     0.00001570    0.00006984    0.00019356
     atom   19 type  1   force =     0.00008612   -0.00021581    0.00103118
     atom   20 type  2   force =     0.00001850    0.00007989    0.00033375
     atom   21 type  1   force =    -0.00011680   -0.00047729    0.00094377
     atom   22 type  2   force =     0.00003542   -0.00025979    0.00025049
     atom   23 type  2   force =     0.00001795   -0.00022259    0.00031834
     atom   24 type  1   force =     0.00016842    0.00073540    0.00145605
     atom   25 type  2   force =    -0.00006866    0.00006524    0.00027637
     atom   26 type  2   force =     0.00012418    0.00003601    0.00024925
     atom   27 type  1   force =    -0.00016907    0.00014076    0.00104235
     atom   28 type  2   force =    -0.00010999   -0.00002588    0.00014161
     atom   29 type  2   force =    -0.00007977    0.00019683    0.00032918
     atom   30 type  1   force =     0.00004982   -0.00047754    0.00093261
     atom   31 type  2   force =     0.00011888   -0.00000609    0.00028216
     atom   32 type  2   force =     0.00008673   -0.00000292    0.00031147
     atom   33 type  1   force =     0.00012157   -0.00013241    0.00099168
     atom   34 type  2   force =    -0.00004819    0.00006504    0.00034665
     atom   35 type  2   force =     0.00006564   -0.00011287    0.00021936
     atom   36 type  3   force =     0.00000167    0.00000378    0.00005606

     Total force =     0.089452     Total SCF correction =     0.004198
     Energy error            =      1.4E-02 Ry
     Gradient error          =      3.1E-02 Ry/Bohr

     number of scf cycles    =   2
     number of bfgs steps    =   1

     energy             old  =   -2205.5235388415 Ry
     energy             new  =   -2205.5371756444 Ry

     CASE: energy            _new < energy            _old

     new trust radius        =       0.0635506408 bohr
     new conv_thr            =       0.0000000313 Ry


ATOMIC_POSITIONS (angstrom)
Mo            6.5876920524        1.7647295180        2.8283353853
S             8.1606774636        0.8266239998        4.4348427668
S             8.1821623517        0.8203587313        1.2700161288
Mo            8.1053707739        4.5007250942        2.7264637475
S             6.4966931618        3.7151104045        4.3369791574
S             6.5547885034        3.5217437699        1.1232372896
Mo            6.4964149871        7.2109216837        2.6631266303
S             8.0814708200        6.3426198483        4.2596086647
S             8.0957545366        6.3093987694        1.0950537400
Mo            8.1496423285        9.9111883691        2.8202187006
S             6.5000186582        8.9415992770        4.3755226689
S             6.6150207823        9.0502790317        1.1457780077
Mo            3.4248596639        1.7536975526        2.7707622397
S             4.9838594478        0.8165527571        4.3634692786
S             5.0444715866        0.8491751085        1.2171052976
Mo            4.9774310189        4.5268835376        2.6355173664
S             3.4330007021        3.6729402107        4.2839539121
S             3.4362943458        3.5409755018        1.0707300191
Mo            3.4608509406        7.2046415158        2.6242940724
S             4.9868595424        6.3208490515        1.0358149863
Mo            5.0098798826        9.9083115454        2.7435495838
S             3.4681218968        8.9426133528        4.3215772366
S             3.4098094064        9.0656458757        1.1040012184
Mo            0.2867396260        1.7312470394        2.8170126429
S             1.8682283602        0.8095462828        4.4020399483
S             1.8487239412        0.8525800975        1.2025028493
Mo            1.8685065400        4.4944799027        2.6463613223
S             0.2934291297        3.7014587931        4.3756497202
S             0.2350191752        3.5263378047        1.1673163212
Mo            0.2688983294        7.2217911769        2.7047519001
S             1.8901015455        6.2946720993        4.2553402445
S             1.8523111087        6.3175316436        1.0503556146
Mo            1.8588702768        9.9323657266        2.7674409700
S             0.2980915201        9.0447244648        4.3987321347
S             0.2679295420        9.0537453897        1.1654354800
H             1.0251041749        4.8401703718        5.3174426251



     Writing config-only to output data dir ./MoS2-V-O.save/
     NEW-OLD atomic charge density approx. for the potential

     negative rho (up, down):  1.456E-04 0.000E+00

     total cpu time spent up to now is      163.9 secs

     Self-consistent Calculation

     iteration #  1     ecut=    80.00 Ry     beta= 0.70
     Davidson diagonalization with overlap
     ethr =  1.00E-06,  avg # of iterations =  8.0

     negative rho (up, down):  9.489E-05 0.000E+00

     total cpu time spent up to now is      176.3 secs

     total energy              =   -2205.54682903 Ry
     estimated scf accuracy    <       0.00086352 Ry

     iteration #  2     ecut=    80.00 Ry     beta= 0.70
     Davidson diagonalization with overlap
     ethr =  2.81E-07,  avg # of iterations =  5.0

     negative rho (up, down):  7.348E-05 0.000E+00

     total cpu time spent up to now is      197.5 secs

     total energy              =   -2205.54685810 Ry
     estimated scf accuracy    <       0.00018944 Ry

     iteration #  3     ecut=    80.00 Ry     beta= 0.70
     Davidson diagonalization with overlap
     ethr =  6.17E-08,  avg # of iterations =  5.0

     negative rho (up, down):  5.935E-05 0.000E+00

     total cpu time spent up to now is      211.0 secs

     total energy              =   -2205.54687573 Ry
     estimated scf accuracy    <       0.00005253 Ry

     iteration #  4     ecut=    80.00 Ry     beta= 0.70
     Davidson diagonalization with overlap
     ethr =  1.71E-08,  avg # of iterations =  5.0

     negative rho (up, down):  5.770E-05 0.000E+00

     total cpu time spent up to now is      229.6 secs

     total energy              =   -2205.54688457 Ry
     estimated scf accuracy    <       0.00000389 Ry

     iteration #  5     ecut=    80.00 Ry     beta= 0.70
     Davidson diagonalization with overlap
     ethr =  1.27E-09,  avg # of iterations =  7.0

     negative rho (up, down):  6.107E-05 0.000E+00

     total cpu time spent up to now is      241.0 secs

     total energy              =   -2205.54688615 Ry
     estimated scf accuracy    <       0.00000162 Ry

     iteration #  6     ecut=    80.00 Ry     beta= 0.70
     Davidson diagonalization with overlap
     ethr =  5.27E-10,  avg # of iterations =  3.0

     negative rho (up, down):  6.714E-05 0.000E+00

     total cpu time spent up to now is      254.1 secs

     total energy              =   -2205.54688633 Ry
     estimated scf accuracy    <       0.00000035 Ry

     iteration #  7     ecut=    80.00 Ry     beta= 0.70
     Davidson diagonalization with overlap
     c_bands:  1 eigenvalues not converged
     ethr =  1.13E-10,  avg # of iterations = 20.0

     negative rho (up, down):  7.494E-05 0.000E+00

     total cpu time spent up to now is      266.1 secs

     total energy              =   -2205.54688633 Ry
     estimated scf accuracy    <       0.00000011 Ry

     iteration #  8     ecut=    80.00 Ry     beta= 0.70
     Davidson diagonalization with overlap
     c_bands:  1 eigenvalues not converged
     ethr =  3.70E-11,  avg # of iterations = 20.0

     negative rho (up, down):  9.617E-05 0.000E+00

     total cpu time spent up to now is      279.5 secs

     total energy              =   -2205.54688624 Ry
     estimated scf accuracy    <       0.00000005 Ry

     iteration #  9     ecut=    80.00 Ry     beta= 0.70
     Davidson diagonalization with overlap
     c_bands:  1 eigenvalues not converged
     ethr =  1.74E-11,  avg # of iterations = 20.0

     negative rho (up, down):  1.380E-04 0.000E+00

     total cpu time spent up to now is      282.3 secs

     End of self-consistent calculation

          k = 0.0000 0.0000 0.0000 (105382 PWs)   bands (ev):

   -62.8891 -62.8440 -62.8311 -62.8245 -62.8158 -62.8088 -62.7992 -62.7913
   -62.7819 -62.7751 -62.7490 -62.7377 -37.2055 -37.1550 -37.1351 -37.1255
   -37.1007 -37.0872 -37.0825 -37.0644 -37.0515 -37.0462 -37.0412 -37.0195
   -37.0148 -37.0036 -36.9984 -36.9936 -36.9884 -36.9851 -36.9757 -36.9734
   -36.9521 -36.9498 -36.9338 -36.9158 -36.9145 -36.9010 -36.8945 -36.8864
   -36.8779 -36.8735 -36.8577 -36.8386 -36.8281 -36.7928 -36.7473 -36.6869
   -16.0256 -15.3788 -15.1421 -14.9939 -14.9313 -14.8061 -14.6295 -14.5017
   -14.4693 -14.4102 -14.3882 -14.3309 -14.3037 -14.2820 -14.1841 -14.1247
   -14.1104 -14.0990 -14.0145 -13.9076 -13.8432 -13.8173 -13.7845  -8.2939
    -7.6143  -7.3853  -7.2911  -7.2380  -7.2198  -7.1691  -7.1180  -7.0700
    -6.8236  -6.7809  -6.7320  -6.6687  -6.5481  -6.5188  -6.4156  -6.3846
    -6.2502  -6.2254  -6.1928  -5.9439  -5.9143  -5.8850  -5.8529  -5.7415
    -5.7380  -5.7076  -5.6595  -5.6505  -5.6461  -5.5967  -5.5138  -5.4485
    -5.4059  -5.3378  -5.1341  -5.1186  -5.0500  -5.0186  -4.9586  -4.9378
    -4.9150  -4.8643  -4.6422  -4.5268  -4.3320  -4.3061  -4.2682  -4.2524
    -4.1942  -4.1236  -4.0373  -3.8864  -3.8183  -3.7876  -3.7273  -3.7048
    -3.6719  -3.5554  -3.5472  -3.4941  -3.4745  -3.4536  -3.4498  -3.3847
    -3.3392  -3.2557  -3.1389  -2.8754  -2.8688  -2.8074  -2.7469  -2.7338
    -2.6957  -2.6596  -2.6474  -2.6122  -2.5625  -2.2933  -2.0205  -1.9915
    -1.9833  -0.9314  -0.7780  -0.6881  -0.1690  -0.1315  -0.0833  -0.0513
     0.0949   0.1296   0.2262   0.2782   0.2826   0.3456   0.4025   0.4323
     0.4863   0.5340   0.5446   0.5646   0.6268   0.6813   0.7198   0.7691
     0.7936   0.8216   0.8582   0.9007   0.9846   0.9963   1.0457   1.3345
     1.3922

     the Fermi energy is    -0.9429 ev

!    total energy              =   -2205.54688612 Ry
     estimated scf accuracy    <       0.00000002 Ry
     smearing contrib. (-TS)   =      -0.00707046 Ry
     internal energy E=F+TS    =   -2205.53981567 Ry

     The total energy is F=E-TS. E is the sum of the following terms:
     one-electron contribution =  -18042.49296039 Ry
     hartree contribution      =    9008.10511831 Ry
     xc contribution           =    -385.23580286 Ry
     ewald contribution        =    7214.08382927 Ry

     convergence has been achieved in   9 iterations

     negative rho (up, down):  1.380E-04 0.000E+00

     Forces acting on atoms (cartesian axes, Ry/au):

     atom    1 type  1   force =    -0.00159622   -0.00306613   -0.00373047
     atom    2 type  2   force =    -0.00367560    0.00587490   -0.00192576
     atom    3 type  2   force =    -0.00793875    0.00337868   -0.01291122
     atom    4 type  1   force =     0.00656417    0.00310531    0.00713186
     atom    5 type  2   force =    -0.00020742   -0.00513667   -0.00609553
     atom    6 type  2   force =     0.00231470    0.00487207    0.00505171
     atom    7 type  1   force =     0.00333602   -0.00388461    0.00019337
     atom    8 type  2   force =    -0.00170879    0.00032196    0.00871453
     atom    9 type  2   force =     0.01009303    0.00200030    0.00461667
     atom   10 type  1   force =    -0.00121343    0.00550315   -0.00008857
     atom   11 type  2   force =     0.00305031   -0.00040929   -0.00729282
     atom   12 type  2   force =    -0.00393474    0.00079728   -0.00076149
     atom   13 type  1   force =     0.00147970    0.00106825    0.00018226
     atom   14 type  2   force =     0.00345483    0.00004332    0.00491353
     atom   15 type  2   force =    -0.00553619    0.00149504   -0.00443422
     atom   16 type  1   force =     0.00094212    0.00465401    0.00281718
     atom   17 type  2   force =     0.00341881    0.00171361    0.00077027
     atom   18 type  2   force =     0.00213641   -0.00348617    0.00343023
     atom   19 type  1   force =    -0.00069217   -0.00703168    0.00380690
     atom   20 type  2   force =     0.00308142   -0.00259969   -0.00481157
     atom   21 type  1   force =    -0.00187555    0.00151870    0.00210419
     atom   22 type  2   force =     0.00009977   -0.00306007   -0.00303144
     atom   23 type  2   force =     0.00243419   -0.00161712    0.00228928
     atom   24 type  1   force =    -0.00318348   -0.00037704   -0.00371925
     atom   25 type  2   force =     0.00580074    0.00802663   -0.00460994
     atom   26 type  2   force =    -0.00271604   -0.00338249   -0.00556434
     atom   27 type  1   force =     0.00154940    0.00299684    0.00412790
     atom   28 type  2   force =     0.01539681    0.02088710    0.02077454
     atom   29 type  2   force =     0.00142012    0.00017658   -0.00245036
     atom   30 type  1   force =    -0.00055025   -0.00326997    0.00650888
     atom   31 type  2   force =    -0.00006902   -0.00520655    0.00818005
     atom   32 type  2   force =    -0.00510003    0.00495381    0.00203120
     atom   33 type  1   force =     0.00253923   -0.00010005    0.00264747
     atom   34 type  2   force =    -0.00085627   -0.01939695   -0.01309607
     atom   35 type  2   force =    -0.00327302    0.00593002    0.00483187
     atom   36 type  3   force =    -0.02498482   -0.01729310   -0.02060083
     The non-local contrib.  to forces
     atom    1 type  1   force =    -0.00068242    0.02111314   -0.01133338
     atom    2 type  2   force =    -0.00905586   -0.00704205   -0.26588569
     atom    3 type  2   force =    -0.00896651   -0.00907469    0.26158407
     atom    4 type  1   force =     0.00681765    0.00355142   -0.00054317
     atom    5 type  2   force =     0.00821749   -0.03174615   -0.25332165
     atom    6 type  2   force =    -0.00187310    0.00843740    0.26766917
     atom    7 type  1   force =    -0.02198677   -0.00071496   -0.01642648
     atom    8 type  2   force =     0.01003239   -0.00685717   -0.25958402
     atom    9 type  2   force =     0.00703288   -0.01298966    0.27431217
     atom   10 type  1   force =     0.00090038    0.00266519   -0.00167718
     atom   11 type  2   force =     0.01161086    0.00479320   -0.25985329
     atom   12 type  2   force =    -0.01327447   -0.01662970    0.25908205
     atom   13 type  1   force =    -0.00015802    0.02213011   -0.00787773
     atom   14 type  2   force =     0.00685815   -0.00816751   -0.26617984
     atom   15 type  2   force =    -0.00810306   -0.00582514    0.26178597
     atom   16 type  1   force =    -0.00316026    0.03516267   -0.02941362
     atom   17 type  2   force =     0.00142639   -0.02360229   -0.24524052
     atom   18 type  2   force =    -0.00080123    0.00098912    0.26934640
     atom   19 type  1   force =     0.01524864   -0.00152566   -0.02009995
     atom   20 type  2   force =    -0.00143621   -0.01660198    0.26271452
     atom   21 type  1   force =     0.00232919    0.02623547    0.00391216
     atom   22 type  2   force =     0.00061236    0.00474782   -0.25637628
     atom   23 type  2   force =     0.00843864   -0.01936150    0.26512299
     atom   24 type  1   force =     0.00872724    0.01769584   -0.01730617
     atom   25 type  2   force =     0.00537705   -0.00652453   -0.26454881
     atom   26 type  2   force =     0.00063380   -0.01220312    0.26450629
     atom   27 type  1   force =     0.00249807    0.00592238    0.01497584
     atom   28 type  2   force =     0.09440149    0.16552650   -0.08562628
     atom   29 type  2   force =     0.00716752    0.00233222    0.26914763
     atom   30 type  1   force =    -0.00147349    0.01701217    0.00650545
     atom   31 type  2   force =    -0.03795423   -0.03782029   -0.17415479
     atom   32 type  2   force =     0.00135676   -0.01362947    0.27245704
     atom   33 type  1   force =    -0.00356093    0.00731781    0.00129237
     atom   34 type  2   force =    -0.00296274   -0.02118953   -0.27640973
     atom   35 type  2   force =     0.00023132   -0.01322058    0.26624501
     atom   36 type  3   force =    -0.00941649   -0.01243142   -0.01713105
     The ionic contribution  to forces
     atom    1 type  1   force =    -0.06830071    0.80732684    5.82049643
     atom    2 type  2   force =    -0.28792744    0.21053904   39.41772940
     atom    3 type  2   force =    -0.22516542    0.04110470  -36.37460761
     atom    4 type  1   force =    -0.26617564    0.04482863    0.86363420
     atom    5 type  2   force =    -1.02242320    1.36620233   38.48555958
     atom    6 type  2   force =     0.31680845   -0.57264458  -37.79190713
     atom    7 type  1   force =    -2.72508900   -2.48769472    2.22510143
     atom    8 type  2   force =    -1.33949008    0.24857290   37.49365749
     atom    9 type  2   force =     0.29863486   -0.10109928  -38.00139524
     atom   10 type  1   force =    -0.69735843   -0.32260759    5.17312005
     atom   11 type  2   force =    -0.55090754   -1.57436378   39.06287948
     atom   12 type  2   force =     0.30180412    0.61233589  -37.83300193
     atom   13 type  1   force =     0.52318993    0.67340804    2.74620212
     atom   14 type  2   force =    -0.06579422    0.00026427   38.65995930
[...]
     atom   27 type  1   force =    -0.00334450    0.00050261   -0.00100560
     atom   28 type  2   force =     0.00311893    0.28417772   -0.01680728
     atom   29 type  2   force =     0.00068989   -0.01028901    0.27321859
     atom   30 type  1   force =     0.00037582    0.02079898    0.00730755
     atom   31 type  2   force =    -0.01505366    0.00325158   -0.24503993
     atom   32 type  2   force =     0.00961735   -0.00868388    0.27143267
     atom   33 type  1   force =    -0.00230383    0.00776118    0.00122770
     atom   34 type  2   force =    -0.00047302   -0.01295454   -0.27067764
     atom   35 type  2   force =     0.00044261   -0.01270332    0.26424514
     atom   36 type  3   force =    -0.00112113   -0.03813783   -0.03962650
     The ionic contribution  to forces
     atom    1 type  1   force =    -0.14218955    0.94560928    2.23378261
     atom    2 type  2   force =    -0.00546296    0.20357560   38.46978319
     atom    3 type  2   force =    -0.20832717    0.13091376  -38.05225600
     atom    4 type  1   force =    -0.05560036   -0.72666481    2.71474615
     atom    5 type  2   force =    -0.91929695    0.77301373   38.37187417
     atom    6 type  2   force =     0.28462897   -0.20098488  -37.61670964
     atom    7 type  1   force =    -2.76148893   -1.95012088    2.96900191
     atom    8 type  2   force =    -1.53389223    0.59454317   38.34612959
     atom    9 type  2   force =     0.29748549   -0.20091555  -37.71157735
     atom   10 type  1   force =    -0.47981375   -0.36471676    2.10430772
     atom   11 type  2   force =    -0.47469747   -1.19616450   38.54499319
     atom   12 type  2   force =     0.15818494    0.17902216  -38.05446248
     atom   13 type  1   force =     0.09382000    0.89917329    2.16135267
     atom   14 type  2   force =    -0.00890077   -0.05013547   38.37990371
     atom   15 type  2   force =     0.01716019    0.10036677  -37.51521842
     atom   16 type  1   force =     0.02115878    3.16501908    2.67954673
     atom   17 type  2   force =     0.92176159    0.76968675   38.33601682
     atom   18 type  2   force =    -0.23601841   -0.20522933  -37.69883239
     atom   19 type  1   force =     2.79477582   -1.91937998    2.48647120
     atom   20 type  2   force =     0.04073801   -0.22780106  -38.47605721
     atom   21 type  1   force =     0.01024547   -0.01814120    0.55811220
     atom   22 type  2   force =     0.46482785   -1.18929496   38.47539591
     atom   23 type  2   force =    -0.15135270    0.21890746  -38.09529639
     atom   24 type  1   force =     0.01205359    2.03083504   -0.92859146
     atom   25 type  2   force =     0.02694346    0.20198846   38.41523994
     atom   26 type  2   force =     0.20054973    0.13399502  -38.05778995
     atom   27 type  1   force =    -0.00861727   -0.72087031    2.18662734
     atom   28 type  2   force =    -0.02043513   -1.83020342   37.79461219
     atom   29 type  2   force =    -0.01567077    0.18002837  -36.76985016
     atom   30 type  1   force =    -0.01328098   -0.45303256    2.08317363
     atom   31 type  2   force =     1.53677382    0.57742260   38.24194922
     atom   32 type  2   force =    -0.34783541   -0.19414743  -37.84398608
     atom   33 type  1   force =     0.50973110   -0.31210894    1.89839346
     atom   34 type  2   force =    -0.00392915   -0.12474912   38.69455405
     atom   35 type  2   force =    -0.02625516   -0.02641877  -37.62066630
     atom   36 type  3   force =     0.02222630    0.80697938    8.29532624
     The local contribution  to forces
     atom    1 type  1   force =     0.14231598   -0.96469298   -2.22967252
     atom    2 type  2   force =     0.01740806   -0.18609061  -38.23324189
     atom    3 type  2   force =     0.20739848   -0.12047323   37.80660097
     atom    4 type  1   force =     0.05082582    0.72572834   -2.71219888
     atom    5 type  2   force =     0.90811958   -0.75704229  -38.14319795
     atom    6 type  2   force =    -0.28123175    0.20424701   37.37007725
     atom    7 type  1   force =     2.77736787    1.94287314   -2.94618948
     atom    8 type  2   force =     1.52170914   -0.59783469  -38.11883294
     atom    9 type  2   force =    -0.28964140    0.20934842   37.46155876
     atom   10 type  1   force =     0.47792222    0.35702528   -2.10487593
     atom   11 type  2   force =     0.47069455    1.19971427  -38.30976431
     atom   12 type  2   force =    -0.14956663   -0.16679707   37.81259366
     atom   13 type  1   force =    -0.09302358   -0.91881852   -2.15709960
     atom   14 type  2   force =     0.00882717    0.05920669  -38.13355425
     atom   15 type  2   force =    -0.01689273   -0.08931704   37.27556394
     atom   16 type  1   force =    -0.02103770   -3.20040623   -2.64870358
     atom   17 type  2   force =    -0.91109378   -0.75324030  -38.10777880
     atom   18 type  2   force =     0.23298295    0.20825937   37.45236741
     atom   19 type  1   force =    -2.81242269    1.91217166   -2.46341493
     atom   20 type  2   force =    -0.04022366    0.23695659   38.23365531
     atom   21 type  1   force =    -0.00995177   -0.01159745   -0.56227666
     atom   22 type  2   force =    -0.46107703    1.19282939  -38.23977338
     atom   23 type  2   force =     0.14314485   -0.20624996   37.85295785
     atom   24 type  1   force =    -0.01095976   -2.04587832    0.92841380
     atom   25 type  2   force =    -0.03833421   -0.18430734  -38.17878469
     atom   26 type  2   force =    -0.19923048   -0.12379922   37.81219812
     atom   27 type  1   force =     0.01165984    0.72043556   -2.18490061
     atom   28 type  2   force =     0.01700540    1.56480613  -37.78102259
     atom   29 type  2   force =     0.01504346   -0.16988328   36.51803297
     atom   30 type  1   force =     0.01283392    0.43181114   -2.09109476
     atom   31 type  2   force =    -1.52456284   -0.58233649  -38.01624181
     atom   32 type  2   force =     0.33931810    0.20238121   37.59467564
     atom   33 type  1   force =    -0.50745396    0.30469646   -1.89931243
     atom   34 type  2   force =     0.00419100    0.13630703  -38.44460101
     atom   35 type  2   force =     0.02593483    0.03863761   37.37679877
     atom   36 type  3   force =    -0.02201939   -0.76720732   -8.25687778
     The core correction contribution to forces
     atom    1 type  1   force =     0.00000000    0.00000000    0.00000000
     atom    2 type  2   force =     0.00075782    0.00089779    0.02038824
     atom    3 type  2   force =    -0.00035643    0.00031976   -0.02089026
     atom    4 type  1   force =     0.00000000    0.00000000    0.00000000
     atom    5 type  2   force =    -0.00083242    0.00048673    0.01997482
     atom    6 type  2   force =     0.00044491   -0.00008849   -0.02085278
     atom    7 type  1   force =     0.00000000    0.00000000    0.00000000
     atom    8 type  2   force =    -0.00078652    0.00046800    0.01985696
     atom    9 type  2   force =     0.00074561    0.00038841   -0.02103831
     atom   10 type  1   force =     0.00000000    0.00000000    0.00000000
     atom   11 type  2   force =    -0.00004704    0.00013117    0.02043579
     atom   12 type  2   force =     0.00064850    0.00080406   -0.02079812
     atom   13 type  1   force =     0.00000000    0.00000000    0.00000000
     atom   14 type  2   force =    -0.00001281    0.00011510    0.02078260
     atom   15 type  2   force =    -0.00000585    0.00060945   -0.02053329
     atom   16 type  1   force =     0.00000000    0.00000000    0.00000000
     atom   17 type  2   force =     0.00084796    0.00049986    0.01995786
     atom   18 type  2   force =    -0.00034648   -0.00017882   -0.02088135
     atom   19 type  1   force =     0.00000000    0.00000000    0.00000000
     atom   20 type  2   force =     0.00004493    0.00038611   -0.02116055
     atom   21 type  1   force =     0.00000000    0.00000000    0.00000000
     atom   22 type  2   force =    -0.00004456    0.00005148    0.02043023
     atom   23 type  2   force =    -0.00065244    0.00079310   -0.02076977
     atom   24 type  1   force =     0.00000000    0.00000000    0.00000000
     atom   25 type  2   force =    -0.00078548    0.00088891    0.02037913
     atom   26 type  2   force =     0.00030827    0.00035914   -0.02087743
     atom   27 type  1   force =     0.00000000    0.00000000    0.00000000
     atom   28 type  2   force =    -0.00021815   -0.01826062    0.00303765
     atom   29 type  2   force =    -0.00003011    0.00066043   -0.02109239
     atom   30 type  1   force =     0.00000000    0.00000000    0.00000000
     atom   31 type  2   force =     0.00091172    0.00044984    0.01972638
     atom   32 type  2   force =    -0.00078803    0.00039338   -0.02105918
     atom   33 type  1   force =     0.00000000    0.00000000    0.00000000
     atom   34 type  2   force =     0.00002261    0.00077438    0.02101719
     atom   35 type  2   force =    -0.00003828    0.00071463   -0.02079019
     atom   36 type  3   force =     0.00000000    0.00000000    0.00000000
     The Hubbard contrib.    to forces
     atom    1 type  1   force =     0.00000000    0.00000000    0.00000000
     atom    2 type  2   force =     0.00000000    0.00000000    0.00000000
     atom    3 type  2   force =     0.00000000    0.00000000    0.00000000
     atom    4 type  1   force =     0.00000000    0.00000000    0.00000000
     atom    5 type  2   force =     0.00000000    0.00000000    0.00000000
     atom    6 type  2   force =     0.00000000    0.00000000    0.00000000
     atom    7 type  1   force =     0.00000000    0.00000000    0.00000000
     atom    8 type  2   force =     0.00000000    0.00000000    0.00000000
     atom    9 type  2   force =     0.00000000    0.00000000    0.00000000
     atom   10 type  1   force =     0.00000000    0.00000000    0.00000000
     atom   11 type  2   force =     0.00000000    0.00000000    0.00000000
     atom   12 type  2   force =     0.00000000    0.00000000    0.00000000
     atom   13 type  1   force =     0.00000000    0.00000000    0.00000000
     atom   14 type  2   force =     0.00000000    0.00000000    0.00000000
     atom   15 type  2   force =     0.00000000    0.00000000    0.00000000
     atom   16 type  1   force =     0.00000000    0.00000000    0.00000000
     atom   17 type  2   force =     0.00000000    0.00000000    0.00000000
     atom   18 type  2   force =     0.00000000    0.00000000    0.00000000
     atom   19 type  1   force =     0.00000000    0.00000000    0.00000000
     atom   20 type  2   force =     0.00000000    0.00000000    0.00000000
     atom   21 type  1   force =     0.00000000    0.00000000    0.00000000
     atom   22 type  2   force =     0.00000000    0.00000000    0.00000000
     atom   23 type  2   force =     0.00000000    0.00000000    0.00000000
     atom   24 type  1   force =     0.00000000    0.00000000    0.00000000
     atom   25 type  2   force =     0.00000000    0.00000000    0.00000000
     atom   26 type  2   force =     0.00000000    0.00000000    0.00000000
     atom   27 type  1   force =     0.00000000    0.00000000    0.00000000
     atom   28 type  2   force =     0.00000000    0.00000000    0.00000000
     atom   29 type  2   force =     0.00000000    0.00000000    0.00000000
     atom   30 type  1   force =     0.00000000    0.00000000    0.00000000
     atom   31 type  2   force =     0.00000000    0.00000000    0.00000000
     atom   32 type  2   force =     0.00000000    0.00000000    0.00000000
     atom   33 type  1   force =     0.00000000    0.00000000    0.00000000
     atom   34 type  2   force =     0.00000000    0.00000000    0.00000000
     atom   35 type  2   force =     0.00000000    0.00000000    0.00000000
     atom   36 type  3   force =     0.00000000    0.00000000    0.00000000
     The SCF correction term to forces
     atom    1 type  1   force =     0.00005740    0.00000695    0.00004806
     atom    2 type  2   force =    -0.00001623    0.00003098   -0.00000895
     atom    3 type  2   force =     0.00002650    0.00001105    0.00001243
     atom    4 type  1   force =     0.00000848   -0.00001637   -0.00001785
     atom    5 type  2   force =     0.00003102   -0.00000315    0.00003028
     atom    6 type  2   force =     0.00003119    0.00002311   -0.00002108
     atom    7 type  1   force =     0.00000061   -0.00001826   -0.00001970
     atom    8 type  2   force =    -0.00000068   -0.00002568    0.00002017
     atom    9 type  2   force =    -0.00002390   -0.00002211   -0.00001442
     atom   10 type  1   force =    -0.00002393    0.00002875   -0.00005049
     atom   11 type  2   force =    -0.00000577   -0.00000589    0.00001603
     atom   12 type  2   force =     0.00001184   -0.00001846   -0.00001021
     atom   13 type  1   force =    -0.00009493    0.00006712    0.00001527
     atom   14 type  2   force =     0.00002592   -0.00000369    0.00001576
     atom   15 type  2   force =     0.00000989   -0.00001292   -0.00002103
     atom   16 type  1   force =    -0.00001291    0.00004782   -0.00005597
     atom   17 type  2   force =    -0.00000644    0.00000042   -0.00000417
     atom   18 type  2   force =    -0.00001947    0.00000422   -0.00000658
     atom   19 type  1   force =     0.00005258    0.00000495   -0.00007369
     atom   20 type  2   force =     0.00000573    0.00000339   -0.00000641
     atom   21 type  1   force =    -0.00001272   -0.00002377   -0.00000342
     atom   22 type  2   force =     0.00001166    0.00001211   -0.00000658
     atom   23 type  2   force =     0.00000327   -0.00002117    0.00000438
     atom   24 type  1   force =    -0.00006348    0.00003203   -0.00005928
     atom   25 type  2   force =    -0.00000008    0.00001719    0.00000365
     atom   26 type  2   force =    -0.00002208    0.00003656   -0.00001278
     atom   27 type  1   force =     0.00000331   -0.00008339   -0.00009201
     atom   28 type  2   force =    -0.00003625    0.00001538    0.00003821
     atom   29 type  2   force =     0.00000410    0.00000235   -0.00000527
     atom   30 type  1   force =    -0.00002557    0.00000887    0.00001624
     atom   31 type  2   force =    -0.00001512   -0.00000680    0.00004508
     atom   32 type  2   force =     0.00000185   -0.00001450   -0.00004029
     atom   33 type  1   force =    -0.00001416   -0.00003035   -0.00000148
     atom   34 type  2   force =     0.00000153   -0.00001788    0.00000046
     atom   35 type  2   force =    -0.00001675   -0.00000066   -0.00000188
     atom   36 type  3   force =    -0.00000200   -0.00000196    0.00000090

     Total force =     0.005964     Total SCF correction =     0.000296
     Energy error            =      8.9E-05 Ry
     Gradient error          =      2.0E-03 Ry/Bohr

     bfgs converged in  22 scf cycles and  21 bfgs steps
     (criteria: energy <  1.0E-04 Ry, force <  1.0E-02 Ry/Bohr)

     End of BFGS Geometry Optimization

     Final energy             =   -2205.5821859978 Ry

     File ./MoS2-V-O.bfgs deleted, as requested
Begin final coordinates

ATOMIC_POSITIONS (angstrom)
Mo            6.5904744656        1.7571672122        2.7514708617
S             8.1674032664        0.8518153519        4.3365065627
S             8.1417416627        0.8265813253        1.1339014412
Mo            8.1469794169        4.5172442525        2.7682728500
S             6.5363599171        3.6544657686        4.3293488873
S             6.5906429782        3.5811464296        1.1360041783
Mo            6.5380417917        7.1912223032        2.6798748934
S             8.1001158727        6.3385693179        4.3322613488
S             8.1660510824        6.3158995350        1.1362895412
Mo            8.1501456788        9.9351169390        2.7463359729
S             6.5377543107        8.9721424535        4.3193541028
S             6.6033040194        9.0186875938        1.1165182608
Mo            3.4351880257        1.7566796551        2.7493941405
S             5.0109360224        0.8186493971        4.3294144853
S             5.0119245728        0.8508434761        1.1580908905
Mo            5.0186190339        4.5405602181        2.6822499247
S             3.4997766266        3.6521939203        4.3255740980
S             3.4494473210        3.5758528894        1.1302876469
Mo            3.4988322279        7.1904293444        2.6710648291
S             5.0208946799        6.3102206118        1.0602652628
Mo            5.0140029110        9.9123652344        2.7154927040
S             3.4882398351        8.9678406122        4.3129668090
S             3.4264127643        9.0182390792        1.1137770518
Mo            0.2819705873        1.7002989563        2.6872835497
S             1.8535984258        0.8497918768        4.3329627938
S             1.8789526003        0.8292290025        1.1320868583
Mo            1.8945676358        4.5164367527        2.7586317326
S             0.2983508487        3.7127230740        4.4713745274
S             0.2874604541        3.5774427920        1.1921288148
Mo            0.2912243880        7.2212477228        2.7495301411
S             1.9474769272        6.3392059055        4.3224667282
S             1.8706099872        6.3159811531        1.1256768904
Mo            1.8772230793        9.9348461129        2.7425778255
S             0.2882747821        9.0469183471        4.3460686787
S             0.2847285402        9.0388318201        1.1616273544
H             0.3253713842        4.7013488631        5.4632072330
End final coordinates



     Writing all to output data dir ./MoS2-V-O.save/
 
     init_run     :      3.23s CPU      3.40s WALL (       1 calls)
     electrons    :   2041.20s CPU   2236.42s WALL (      22 calls)
     update_pot   :     29.49s CPU     30.73s WALL (      21 calls)
     forces       :     30.54s CPU     32.61s WALL (      22 calls)

     Called by init_run:
     wfcinit      :      0.41s CPU      0.44s WALL (       1 calls)
     potinit      :      2.06s CPU      2.15s WALL (       1 calls)
     hinit0       :      0.18s CPU      0.19s WALL (       1 calls)

     Called by electrons:
     c_bands      :    248.76s CPU    251.54s WALL (     194 calls)
     sum_band     :     64.46s CPU     70.03s WALL (     194 calls)
     v_of_rho     :     82.89s CPU     95.11s WALL (     204 calls)
     newd         :     33.97s CPU     38.03s WALL (     204 calls)
     mix_rho      :   1621.58s CPU   1791.02s WALL (     194 calls)

     Called by c_bands:
     init_us_2    :      4.29s CPU      4.44s WALL (     389 calls)
     init_us_2:cp :      4.29s CPU      4.44s WALL (     389 calls)
     regterg      :    234.27s CPU    236.87s WALL (     194 calls)

     Called by *egterg:
     rdiaghg      :     20.12s CPU     20.27s WALL (    1177 calls)
     h_psi        :    133.26s CPU    134.43s WALL (    1211 calls)
     s_psi        :     17.96s CPU     18.01s WALL (    1211 calls)
     g_psi        :      0.88s CPU      0.89s WALL (    1016 calls)

     Called by h_psi:
     h_psi:calbec :     19.52s CPU     19.59s WALL (    1211 calls)
     vloc_psi     :     93.78s CPU     94.78s WALL (    1211 calls)
     add_vuspsi   :     17.89s CPU     17.97s WALL (    1211 calls)

     General routines
     calbec       :     27.95s CPU     28.06s WALL (    1493 calls)
     fft          :     57.99s CPU     66.93s WALL (   13731 calls)
     ffts         :    727.77s CPU    891.71s WALL (  394406 calls)
     fftw         :     80.99s CPU     81.75s WALL (  118500 calls)
     interpolate  :      1.47s CPU      1.72s WALL (     204 calls)
 
     Parallel routines
 
     PWSCF        :  35m 8.90s CPU  38m29.29s WALL

 
   This run was terminated on:   2:52:50   4Nov2023            

=------------------------------------------------------------------------------=
   JOB DONE.
=------------------------------------------------------------------------------=
