
     Program PWSCF v.7.2 starts on  4Nov2023 at  9:51:30 

     This program is part of the open-source Quantum ESPRESSO suite
     for quantum simulation of materials; please cite
         "P. Giannozzi et al., J. Phys.:Condens. Matter 21 395502 (2009);
         "P. Giannozzi et al., J. Phys.:Condens. Matter 29 465901 (2017);
         "P. Giannozzi et al., J. Chem. Phys. 152 154105 (2020);
          URL http://www.quantum-espresso.org", 
     in publications or presentations arising from this work. More details at
     http://www.quantum-espresso.org/quote

     Parallel version (MPI & OpenMP), running on      48 processor cores
     Number of MPI processes:                48
     Threads/MPI process:                     1

     MPI processes distributed on     1 nodes
     86771 MiB available memory on the printing compute node when the environment starts
 
     Waiting for input...
     Reading input from standard input
Warning: card &CELL ignored
Warning: card CELL_DYNAMICS = 'BFGS', ignored
Warning: card CELL_DOFREE = '2DXY' ignored
Warning: card / ignored

     Current dimensions of program PWSCF are:
     Max number of different atomic species (ntypx) = 10
     Max number of k-points (npk) =  40000
     Max angular momentum in pseudopotentials (lmaxx) =  4

     IMPORTANT: XC functional enforced from input :
     Exchange-correlation= RVV10
                           (   1   4  13   4  26   0   0)
     Any further DFT definition will be discarded
     Please, verify this is what you really want


     gamma-point specific algorithms are used
     signal trapping enabled: kill the code with -SIGUSR1 to stop cleanly the simulation 
 
     R & G space division:  proc/nbgrp/npool/nimage =      48
     Subspace diagonalization in iterative solution of the eigenvalue problem:
     one sub-group per band group will be used
     scalapack distributed-memory algorithm (size of sub-group:  2*  2 procs)

 
     Parallelization info
     --------------------
     sticks:   dense  smooth     PW     G-vecs:    dense   smooth      PW
     Min         243     194     47                49060    35090    4376
     Max         246     196     50                49086    35128    4410
     Sum       11735    9389   2349              2355467  1685513  210763
 
     Using Slab Decomposition
 


     bravais-lattice index     =            0
     lattice parameter (alat)  =      17.8707  a.u.
     unit-cell volume          =   17436.2743 (a.u.)^3
     number of atoms/cell      =           36
     number of atomic types    =            3
     number of electrons       =       307.00
     number of Kohn-Sham states=          185
     kinetic-energy cutoff     =      80.0000  Ry
     charge density cutoff     =     400.0000  Ry
     scf convergence threshold =      1.0E-06
     mixing beta               =       0.7000
     number of iterations used =            8  local-TF  mixing
     energy convergence thresh.=      1.0E-04
     force convergence thresh. =      1.0E-02
     Exchange-correlation= RVV10
                           (   1   4  13   4  26   0   0)
     nstep                     =          200


     celldm(1)=  17.870686  celldm(2)=   0.000000  celldm(3)=   0.000000
     celldm(4)=   0.000000  celldm(5)=   0.000000  celldm(6)=   0.000000

     crystal axes: (cart. coord. in units of alat)
               a(1) = (   1.000000   0.000000   0.000000 )  
               a(2) = (   0.000000   1.155671   0.000000 )  
               a(3) = (   0.000000   0.000000   2.643601 )  

     reciprocal axes: (cart. coord. in units 2 pi/alat)
               b(1) = (  1.000000  0.000000  0.000000 )  
               b(2) = (  0.000000  0.865298  0.000000 )  
               b(3) = (  0.000000  0.000000  0.378272 )  


     PseudoPot. # 1 for Mo read from file:
     ../pseudo/Mo_ONCV_PBE-1.0.oncvpsp.upf
     MD5 check sum: 1b5d28e075c9ccadda658a603575cd1f
     Pseudo is Norm-conserving, Zval = 14.0
     Generated using ONCVPSP code by D. R. Hamann
     Using radial grid of 1526 points,  6 beta functions with: 
                l(1) =   0
                l(2) =   0
                l(3) =   1
                l(4) =   1
                l(5) =   2
                l(6) =   2

     PseudoPot. # 2 for S  read from file:
     ../pseudo/s_pbe_v1.4.uspp.F.UPF
     MD5 check sum: 88d86576ff6df21479756cfb9bdac1df
     Pseudo is Ultrasoft + core correction, Zval =  6.0
     Generated by new atomic code, or converted to UPF format
     Using radial grid of  907 points,  6 beta functions with: 
                l(1) =   0
                l(2) =   0
                l(3) =   1
                l(4) =   1
                l(5) =   2
                l(6) =   2
     Q(r) pseudized with  8 coefficients,  rinner =    1.300   1.300   1.300
                                                       1.300   1.300

     PseudoPot. # 3 for H  read from file:
     ../pseudo/H_ONCV_PBE-1.0.oncvpsp.upf
     MD5 check sum: 1790becc920ee074925cf490c71280fe
     Pseudo is Norm-conserving, Zval =  1.0
     Generated using ONCVPSP code by D. R. Hamann
     Using radial grid of 1166 points,  2 beta functions with: 
                l(1) =   0
                l(2) =   0

     atomic species   valence    mass     pseudopotential
        Mo            14.00    95.94000     Mo( 1.00)
        S              6.00    32.06500     S ( 1.00)
        H              1.00     1.00794     H ( 1.00)

     No symmetry found



   Cartesian axes

     site n.     atom                  positions (alat units)
         1           Mo  tau(   1) = (   0.6952221   0.1890506   0.2985846  )
         2           S   tau(   2) = (   0.8646417   0.0856217   0.4689279  )
         3           S   tau(   3) = (   0.8663890   0.0857843   0.1351291  )
         4           Mo  tau(   4) = (   0.8560186   0.4753274   0.2873942  )
         5           S   tau(   5) = (   0.6873294   0.3936244   0.4596353  )
         6           S   tau(   6) = (   0.6929804   0.3713468   0.1185692  )
         7           Mo  tau(   7) = (   0.6862796   0.7633098   0.2825370  )
         8           S   tau(   8) = (   0.8545980   0.6708292   0.4486168  )
         9           S   tau(   9) = (   0.8545123   0.6666874   0.1146125  )
        10           Mo  tau(  10) = (   0.8629403   1.0471007   0.3006803  )
        11           S   tau(  11) = (   0.6868280   0.9456650   0.4634891  )
        12           S   tau(  12) = (   0.6998113   0.9568511   0.1205389  )
        13           Mo  tau(  13) = (   0.3618216   0.1847309   0.2935964  )
        14           S   tau(  14) = (   0.5260962   0.0863870   0.4600448  )
        15           S   tau(  15) = (   0.5348379   0.0894875   0.1297123  )
        16           Mo  tau(  16) = (   0.5265817   0.4772436   0.2784130  )
        17           S   tau(  17) = (   0.3624753   0.3882513   0.4525556  )
        18           S   tau(  18) = (   0.3635411   0.3752055   0.1119148  )
        19           Mo  tau(  19) = (   0.3652268   0.7630864   0.2781795  )
        20           S   tau(  20) = (   0.5269494   0.6690381   0.1096838  )
        21           Mo  tau(  21) = (   0.5300192   1.0470394   0.2900995  )
        22           S   tau(  22) = (   0.3670346   0.9457522   0.4574073  )
        23           S   tau(  23) = (   0.3604225   0.9585725   0.1159032  )
        24           Mo  tau(  24) = (   0.0313099   0.1847895   0.3013130  )
        25           S   tau(  25) = (   0.1956761   0.0838230   0.4650863  )
        26           S   tau(  26) = (   0.1967693   0.0903508   0.1278874  )
        27           Mo  tau(  27) = (   0.1967578   0.4753919   0.2813011  )
        28           S   tau(  28) = (   0.0287851   0.3864324   0.4586755  )
        29           S   tau(  29) = (   0.0244514   0.3729871   0.1239344  )
        30           Mo  tau(  30) = (   0.0286728   0.7631204   0.2856894  )
        31           S   tau(  31) = (   0.2011512   0.6675435   0.4465001  )
        32           S   tau(  32) = (   0.1969214   0.6672839   0.1104564  )
        33           Mo  tau(  33) = (   0.1950294   1.0511147   0.2932237  )
        34           S   tau(  34) = (   0.0312912   0.9612169   0.4667423  )
        35           S   tau(  35) = (   0.0292670   0.9563028   0.1216485  )
        36           H   tau(  36) = (   0.5555556   1.0272628   0.5391074  )

     number of k points=     1  Gaussian smearing, width (Ry)=  0.0100
                       cart. coord. in units 2pi/alat
        k(    1) = (   0.0000000   0.0000000   0.0000000), wk =   2.0000000

     Dense  grid:  1177734 G-vectors     FFT dimensions: ( 120, 135, 320)

     Smooth grid:   842757 G-vectors     FFT dimensions: ( 108, 120, 270)

     Estimated max dynamical RAM per process >     146.59 MB

     Estimated total dynamical RAM >       6.87 GB

     Initial potential from superposition of free atoms

     starting charge     306.9873, renormalised to     307.0000

     negative rho (up, down):  1.418E-04 0.000E+00


---------------------------------------------------------------------------------
Carrying out rVV10 run using the following parameters:
Nqs =      20    Nr_points =    1024   r_max =   100.000
b_value =  6.30000    beta =  0.00901
     q_mesh =  0.00010000  0.00030000  0.00058939  0.00100810
               0.00161396  0.00249058  0.00375900  0.00559430
               0.00824984  0.01209221  0.01765183  0.02569619
               0.03733578  0.05417739  0.07854596  0.11380545
               0.16482331  0.23864234  0.34545298  0.50000000

Gradients computed in Reciprocal space

---------------------------------------------------------------------------------


     Starting wfcs are  213 randomized atomic wfcs

     total cpu time spent up to now is        2.7 secs

     Self-consistent Calculation

     iteration #  1     ecut=    80.00 Ry     beta= 0.70
     Davidson diagonalization with overlap
     ethr =  1.00E-02,  avg # of iterations =  2.0

     Threshold (ethr) on eigenvalues was too large:
     Diagonalizing with lowered threshold

     Davidson diagonalization with overlap
     ethr =  3.68E-04,  avg # of iterations =  4.0

     negative rho (up, down):  2.160E-08 0.000E+00

     total cpu time spent up to now is       17.3 secs

     total energy              =   -2205.59987773 Ry
     estimated scf accuracy    <       1.41259828 Ry

     iteration #  2     ecut=    80.00 Ry     beta= 0.70
     Davidson diagonalization with overlap
     ethr =  4.60E-04,  avg # of iterations =  1.0

     total cpu time spent up to now is       19.5 secs

     total energy              =   -2205.42398514 Ry
     estimated scf accuracy    <       0.58063775 Ry

     iteration #  3     ecut=    80.00 Ry     beta= 0.70
     Davidson diagonalization with overlap
     ethr =  1.89E-04,  avg # of iterations =  4.0

     total cpu time spent up to now is       22.0 secs

     total energy              =   -2205.52767928 Ry
     estimated scf accuracy    <       0.04704766 Ry

     iteration #  4     ecut=    80.00 Ry     beta= 0.70
     Davidson diagonalization with overlap
     ethr =  1.53E-05,  avg # of iterations = 16.0

     total cpu time spent up to now is       25.2 secs

     total energy              =   -2205.52850771 Ry
     estimated scf accuracy    <       0.02569724 Ry

     iteration #  5     ecut=    80.00 Ry     beta= 0.70
     Davidson diagonalization with overlap
     ethr =  8.37E-06,  avg # of iterations =  2.0

     total cpu time spent up to now is       27.4 secs

     total energy              =   -2205.52857940 Ry
     estimated scf accuracy    <       0.01933116 Ry

     iteration #  6     ecut=    80.00 Ry     beta= 0.70
     Davidson diagonalization with overlap
     ethr =  6.30E-06,  avg # of iterations =  1.0

     total cpu time spent up to now is       29.7 secs

     total energy              =   -2205.52692020 Ry
     estimated scf accuracy    <       0.01235745 Ry

     iteration #  7     ecut=    80.00 Ry     beta= 0.70
     Davidson diagonalization with overlap
     ethr =  4.03E-06,  avg # of iterations =  2.0

     negative rho (up, down):  1.397E-04 0.000E+00

     total cpu time spent up to now is       34.9 secs

     total energy              =   -2205.52569829 Ry
     estimated scf accuracy    <       0.00590084 Ry

     iteration #  8     ecut=    80.00 Ry     beta= 0.70
     Davidson diagonalization with overlap
     ethr =  1.92E-06,  avg # of iterations =  2.0

     negative rho (up, down):  2.109E-02 0.000E+00

     total cpu time spent up to now is       39.2 secs

     total energy              =   -2205.52540742 Ry
     estimated scf accuracy    <       0.00317966 Ry

     iteration #  9     ecut=    80.00 Ry     beta= 0.70
     Davidson diagonalization with overlap
     ethr =  1.04E-06,  avg # of iterations =  2.0

     negative rho (up, down):  3.048E-02 0.000E+00

     total cpu time spent up to now is       43.1 secs

     total energy              =   -2205.52544949 Ry
     estimated scf accuracy    <       0.00154055 Ry

     iteration # 10     ecut=    80.00 Ry     beta= 0.70
     Davidson diagonalization with overlap
     ethr =  5.02E-07,  avg # of iterations =  2.0

     negative rho (up, down):  2.321E-02 0.000E+00

     total cpu time spent up to now is       47.7 secs

     total energy              =   -2205.52552889 Ry
     estimated scf accuracy    <       0.00048257 Ry

     iteration # 11     ecut=    80.00 Ry     beta= 0.70
     Davidson diagonalization with overlap
     ethr =  1.57E-07,  avg # of iterations =  2.0

     negative rho (up, down):  7.993E-03 0.000E+00

     total cpu time spent up to now is       54.1 secs

     total energy              =   -2205.52555618 Ry
     estimated scf accuracy    <       0.00013961 Ry

     iteration # 12     ecut=    80.00 Ry     beta= 0.70
     Davidson diagonalization with overlap
     c_bands:  1 eigenvalues not converged
     ethr =  4.55E-08,  avg # of iterations = 20.0

     negative rho (up, down):  1.635E-03 0.000E+00

     total cpu time spent up to now is       61.0 secs

     total energy              =   -2205.52560905 Ry
     estimated scf accuracy    <       0.00001428 Ry

     iteration # 13     ecut=    80.00 Ry     beta= 0.70
     Davidson diagonalization with overlap
     c_bands:  1 eigenvalues not converged
     ethr =  4.65E-09,  avg # of iterations = 20.0

     negative rho (up, down):  4.925E-04 0.000E+00

     total cpu time spent up to now is       72.2 secs

     total energy              =   -2205.52561507 Ry
     estimated scf accuracy    <       0.00000279 Ry

     iteration # 14     ecut=    80.00 Ry     beta= 0.70
     Davidson diagonalization with overlap
     ethr =  9.08E-10,  avg # of iterations =  4.0

     negative rho (up, down):  1.376E-04 0.000E+00

     total cpu time spent up to now is       74.2 secs

     End of self-consistent calculation

          k = 0.0000 0.0000 0.0000 (105382 PWs)   bands (ev):

   -62.9049 -62.8911 -62.8599 -62.8413 -62.8280 -62.8117 -62.8054 -62.7914
   -62.7896 -62.7222 -62.7027 -62.5523 -37.2108 -37.1723 -37.1461 -37.1347
   -37.1275 -37.1174 -37.1009 -37.0967 -37.0642 -37.0505 -37.0484 -37.0300
   -37.0147 -37.0092 -37.0069 -37.0034 -36.9933 -36.9885 -36.9803 -36.9654
   -36.9482 -36.9311 -36.9174 -36.9133 -36.8969 -36.8906 -36.8806 -36.8765
   -36.8500 -36.8448 -36.8273 -36.8077 -36.7308 -36.7096 -36.6466 -36.5910
   -16.1102 -15.4907 -15.1186 -15.0488 -14.9563 -14.8743 -14.6295 -14.4840
   -14.4588 -14.4139 -14.4030 -14.3559 -14.3296 -14.2774 -14.1714 -14.1166
   -14.0882 -14.0857 -14.0117 -13.8795 -13.8380 -13.8063 -13.7712  -8.7319
    -7.6223  -7.4304  -7.2976  -7.2790  -7.2638  -7.2168  -7.1158  -7.0440
    -6.8298  -6.7563  -6.7157  -6.6876  -6.5539  -6.4993  -6.4794  -6.4167
    -6.2684  -6.2360  -6.0884  -5.9586  -5.9182  -5.8794  -5.8263  -5.7868
    -5.7529  -5.7383  -5.6787  -5.6280  -5.6077  -5.5636  -5.5113  -5.4664
    -5.4313  -5.3669  -5.2208  -5.1356  -5.0531  -5.0106  -4.9668  -4.9384
    -4.8939  -4.8270  -4.6882  -4.5274  -4.3888  -4.3272  -4.2870  -4.1964
    -4.1773  -4.0437  -4.0106  -3.8942  -3.7952  -3.7674  -3.7178  -3.6739
    -3.6226  -3.5673  -3.5414  -3.4991  -3.4638  -3.4439  -3.4382  -3.3856
    -3.3460  -3.1974  -3.1197  -2.9498  -2.9091  -2.8275  -2.7533  -2.7123
    -2.6999  -2.6557  -2.6393  -2.6091  -2.5246  -2.2350  -2.0135  -1.9717
    -1.9412  -0.9549  -0.6960  -0.4081  -0.1745  -0.1282  -0.0511  -0.0155
     0.1153   0.1231   0.1842   0.2136   0.2381   0.2707   0.3965   0.4682
     0.4873   0.5494   0.5627   0.5979   0.6786   0.6968   0.7392   0.7576
     0.7749   0.8150   0.8474   0.8836   0.9628   0.9871   1.0065   1.3440
     1.4001

     the Fermi energy is    -0.9557 ev

!    total energy              =   -2205.52561770 Ry
     estimated scf accuracy    <       0.00000071 Ry
     smearing contrib. (-TS)   =      -0.00578916 Ry
     internal energy E=F+TS    =   -2205.51982854 Ry

     The total energy is F=E-TS. E is the sum of the following terms:
     one-electron contribution =  -18055.05296315 Ry
     hartree contribution      =    9014.40863050 Ry
     xc contribution           =    -385.30419459 Ry
     ewald contribution        =    7220.42869869 Ry

     convergence has been achieved in  14 iterations

     negative rho (up, down):  1.376E-04 0.000E+00

     Forces acting on atoms (cartesian axes, Ry/au):

     atom    1 type  1   force =     0.01269226   -0.02777536    0.00366709
     atom    2 type  2   force =    -0.01040496    0.01955512    0.00074047
     atom    3 type  2   force =    -0.01288910    0.00792263   -0.00342929
     atom    4 type  1   force =     0.01066279   -0.00690588    0.00036982
     atom    5 type  2   force =    -0.00093036   -0.00488666   -0.00678170
     atom    6 type  2   force =     0.00255233    0.01112429    0.00281654
     atom    7 type  1   force =    -0.00905753   -0.00324126   -0.01207920
     atom    8 type  2   force =     0.00346579   -0.00594624    0.01596281
     atom    9 type  2   force =     0.01267130    0.00203053    0.00875932
     atom   10 type  1   force =    -0.01231017    0.01840727   -0.02262682
     atom   11 type  2   force =    -0.01839304    0.00577167    0.04332624
     atom   12 type  2   force =    -0.00134498   -0.00077151    0.00468466
     atom   13 type  1   force =     0.00371404    0.00264779   -0.00770090
     atom   14 type  2   force =     0.00647940    0.01346393    0.01411441
     atom   15 type  2   force =    -0.01203964    0.00154552   -0.01117088
     atom   16 type  1   force =    -0.00093907    0.00018151   -0.00368178
     atom   17 type  2   force =     0.00566239    0.00225160    0.00167111
     atom   18 type  2   force =    -0.00345560   -0.00623593    0.01594940
     atom   19 type  1   force =     0.01685205    0.00380929   -0.00900136
     atom   20 type  2   force =     0.00299745   -0.00457026    0.00499521
     atom   21 type  1   force =    -0.01661022    0.01737437   -0.04347726
     atom   22 type  2   force =    -0.00940358   -0.00789003    0.00599975
     atom   23 type  2   force =    -0.00013833    0.00055956    0.00813325
     atom   24 type  1   force =    -0.00862653    0.00137679   -0.01893621
     atom   25 type  2   force =     0.01371242    0.01988868    0.00739276
     atom   26 type  2   force =    -0.01029732   -0.00127632   -0.00412709
     atom   27 type  1   force =    -0.00689766   -0.00858808    0.00870688
     atom   28 type  2   force =     0.00060695   -0.00011591   -0.00558177
     atom   29 type  2   force =     0.00261928    0.00130449   -0.00353561
     atom   30 type  1   force =    -0.00529853    0.01421885   -0.00281724
     atom   31 type  2   force =     0.00037777   -0.00100542    0.01570721
     atom   32 type  2   force =    -0.00984015    0.00369581    0.00669969
     atom   33 type  1   force =     0.01343647   -0.00353563   -0.00575993
     atom   34 type  2   force =     0.00565238   -0.04265629   -0.01183468
     atom   35 type  2   force =    -0.00802304    0.00734298    0.01431377
     atom   36 type  3   force =     0.04274474   -0.02907189   -0.01146867
     The non-local contrib.  to forces
     atom    1 type  1   force =    -0.00098728    0.04066496   -0.01383049
     atom    2 type  2   force =    -0.00836087   -0.00025424   -0.26915724
     atom    3 type  2   force =    -0.01627824   -0.00838784    0.27195141
     atom    4 type  1   force =    -0.00205627    0.00975196    0.00309824
     atom    5 type  2   force =     0.00545857   -0.03398299   -0.25413355
     atom    6 type  2   force =    -0.00139885    0.00881172    0.26295574
     atom    7 type  1   force =    -0.03007395   -0.00118367   -0.01057449
     atom    8 type  2   force =     0.01025005   -0.00600196   -0.25144462
     atom    9 type  2   force =     0.01031926   -0.01281755    0.27592687
     atom   10 type  1   force =     0.00720668    0.00415317   -0.00775413
     atom   11 type  2   force =    -0.16743059    0.13648877   -0.08780390
     atom   12 type  2   force =    -0.01410858   -0.01289746    0.26483304
     atom   13 type  1   force =    -0.00188478    0.02798573   -0.01020768
     atom   14 type  2   force =     0.01020321   -0.01526815   -0.23044201
     atom   15 type  2   force =    -0.01461706   -0.00768973    0.26419546
     atom   16 type  1   force =     0.00134262    0.03923077   -0.01795204
     atom   17 type  2   force =     0.00244039   -0.03019893   -0.25114084
     atom   18 type  2   force =    -0.00477991   -0.00626230    0.27332756
     atom   19 type  1   force =     0.01871819   -0.01076388   -0.00976219
     atom   20 type  2   force =     0.00211322   -0.01630940    0.26591019
     atom   21 type  1   force =    -0.00211586    0.01912986   -0.00801550
     atom   22 type  2   force =     0.01581979    0.02417689   -0.21498572
     atom   23 type  2   force =     0.00900577   -0.01044571    0.27055407
     atom   24 type  1   force =     0.00684065    0.02147442   -0.01025860
     atom   25 type  2   force =     0.00766235    0.00440583   -0.25820817
     atom   26 type  2   force =    -0.00118831   -0.01549956    0.26473746
     atom   27 type  1   force =    -0.00062415    0.01424479    0.00842552
     atom   28 type  2   force =    -0.00423225   -0.02652831   -0.27169836
     atom   29 type  2   force =     0.00558535    0.00192102    0.26196861
     atom   30 type  1   force =     0.00472425    0.01114476    0.01135236
     atom   31 type  2   force =    -0.00923659   -0.00044742   -0.25336286
     atom   32 type  2   force =    -0.00517216   -0.01301659    0.27128592
     atom   33 type  1   force =    -0.00574681    0.01066094    0.00262014
     atom   34 type  2   force =     0.00177630   -0.04079466   -0.27043441
     atom   35 type  2   force =    -0.00259751   -0.00856183    0.27274956
     atom   36 type  3   force =     0.01787584   -0.01213423   -0.01579150
     The ionic contribution  to forces
     atom    1 type  1   force =     0.51351218    0.52136513    5.53865613
     atom    2 type  2   force =    -0.51054799    0.53567146   39.26250815
     atom    3 type  2   force =    -0.12990070    0.05185219  -36.11713405
     atom    4 type  1   force =     0.14064636    0.56365600    0.68474619
     atom    5 type  2   force =    -0.94097738    1.53560025   38.75502815
     atom    6 type  2   force =     0.35587310   -0.48354664  -38.02787625
     atom    7 type  1   force =    -2.46105939   -3.10383496    2.31840978
     atom    8 type  2   force =    -0.91846955   -0.06503700   37.38726691
     atom    9 type  2   force =     0.36056609   -0.06536729  -38.01077748
     atom   10 type  1   force =    -0.76939067   -0.28669154    5.42514176
     atom   11 type  2   force =     0.38227666   -2.19908782   38.61450725
     atom   12 type  2   force =     0.48579146    0.66909931  -37.96010964
     atom   13 type  1   force =     0.33787435    1.23220381    2.72487985
     atom   14 type  2   force =    -0.02595890    0.62541024   38.30924967
     atom   15 type  2   force =     0.15210719   -0.00005013  -36.89086179
     atom   16 type  1   force =    -0.03207147    3.91810614    0.46539866
     atom   17 type  2   force =     0.77950990    1.53671374   37.94083434
     atom   18 type  2   force =    -0.17303979   -0.63144306  -38.56479460
     atom   19 type  1   force =     2.54562520   -2.70557955    0.46306528
     atom   20 type  2   force =     0.22534173   -0.24203717  -38.50824299
     atom   21 type  1   force =    -0.09243010    0.15788590   -0.07395710
     atom   22 type  2   force =    -0.16364175   -1.99157333   38.17947961
     atom   23 type  2   force =    -0.13360741    0.64625771  -38.37585007
     atom   24 type  1   force =    -0.53330322    1.24681829    5.82945430
     atom   25 type  2   force =     0.54753442    0.37874454   39.25997976
     atom   26 type  2   force =    -0.31451228    0.09550361  -37.35468839
     atom   27 type  1   force =    -0.01408048    0.39094861   -2.23139936
     atom   28 type  2   force =     0.05614018    1.02508018   38.22265039
     atom   29 type  2   force =    -0.26315839   -0.41782072  -37.25346165
     atom   30 type  1   force =    -0.31916327   -1.00712656   -0.06150109
     atom   31 type  2   force =     1.17583715   -0.12875997   37.33069719
     atom   32 type  2   force =    -0.49550505   -0.03125628  -38.63713648
     atom   33 type  1   force =     0.56794352   -0.82907434    1.91072436
     atom   34 type  2   force =     0.26615175   -1.46831443   39.34949878
     atom   35 type  2   force =    -0.29399645    0.46789524  -37.83744384
     atom   36 type  3   force =    -0.30791701    0.05778845    7.93305826
     The local contribution  to forces
     atom    1 type  1   force =    -0.49990541   -0.58969102   -5.52004596
     atom    2 type  2   force =     0.50828342   -0.51587294  -39.01280105
     atom    3 type  2   force =     0.13253583   -0.03578938   35.86305238
     atom    4 type  1   force =    -0.12783515   -0.58033746   -0.68647680
     atom    5 type  2   force =     0.93526952   -1.50850167  -38.52758670
     atom    6 type  2   force =    -0.35207882    0.48684525   37.78882313
     atom    7 type  1   force =     2.48229981    3.10170590   -2.31900546
     atom    8 type  2   force =     0.91209109    0.06454779  -37.13965713
     atom    9 type  2   force =    -0.35789755    0.07937438   37.76477293
     atom   10 type  1   force =     0.74982826    0.30106916   -5.43876100
     atom   11 type  2   force =    -0.24395410    2.07685137  -38.49330231
     atom   12 type  2   force =    -0.47426994   -0.65821740   37.72119158
     atom   13 type  1   force =    -0.33224761   -1.25733050   -2.72130093
     atom   14 type  2   force =     0.02288282   -0.59742102  -38.08303260
     atom   15 type  2   force =    -0.15032822    0.00889794   36.63652598
     atom   16 type  1   force =     0.02974905   -3.95763281   -0.45029183
     atom   17 type  2   force =    -0.77636680   -1.50595598  -37.70780359
     atom   18 type  2   force =     0.17414950    0.63180476   38.32861316
     atom   19 type  1   force =    -2.54775275    2.72018551   -0.46140693
     atom   20 type  2   force =    -0.22448793    0.25319253   38.26861993
     atom   21 type  1   force =     0.07796367   -0.15958357    0.03932269
     atom   22 type  2   force =     0.13998889    1.96123871  -37.97601766
     atom   23 type  2   force =     0.12511551   -0.63633608   38.13472471
     atom   24 type  1   force =     0.51784706   -1.26669202   -5.83690821
     atom   25 type  2   force =    -0.54147589   -0.36282611  -39.01448284
     atom   26 type  2   force =     0.30565499   -0.08204120   37.10708380
     atom   27 type  1   force =     0.00773895   -0.41383773    2.23260424
     atom   28 type  2   force =    -0.05158372   -1.00055138  -37.97682702
     atom   29 type  2   force =     0.26073189    0.41784991   37.00872928
     atom   30 type  1   force =     0.30915764    1.00985499    0.04828684
     atom   31 type  2   force =    -1.16680055    0.12802295  -37.08167155
     atom   32 type  2   force =     0.49082650    0.04709962   38.39368768
     atom   33 type  1   force =    -0.54871744    0.81493937   -1.91798669
     atom   34 type  2   force =    -0.26263090    1.46516293  -39.11139827
     atom   35 type  2   force =     0.28865376   -0.45291947   37.60045568
     atom   36 type  3   force =     0.33278405   -0.07471496   -7.92864018
     The core correction contribution to forces
     atom    1 type  1   force =     0.00000000    0.00000000    0.00000000
     atom    2 type  2   force =     0.00022519    0.00009652    0.02064161
     atom    3 type  2   force =     0.00073880    0.00035410   -0.02097562
     atom    4 type  1   force =     0.00000000    0.00000000    0.00000000
     atom    5 type  2   force =    -0.00059887    0.00195479    0.02036793
     atom    6 type  2   force =     0.00018328   -0.00092651   -0.02085571
     atom    7 type  1   force =     0.00000000    0.00000000    0.00000000
     atom    8 type  2   force =    -0.00033982    0.00042515    0.02023616
     atom    9 type  2   force =    -0.00030450    0.00070969   -0.02093546
     atom   10 type  1   force =     0.00000000    0.00000000    0.00000000
     atom   11 type  2   force =     0.01079270   -0.00850004    0.01036369
     atom   12 type  2   force =     0.00119925    0.00117261   -0.02092960
     atom   13 type  1   force =     0.00000000    0.00000000    0.00000000
     atom   14 type  2   force =    -0.00065161    0.00088582    0.01875918
     atom   15 type  2   force =     0.00077645    0.00047371   -0.02071942
     atom   16 type  1   force =     0.00000000    0.00000000    0.00000000
     atom   17 type  2   force =    -0.00000276    0.00164449    0.02025514
     atom   18 type  2   force =     0.00017080   -0.00027982   -0.02098368
     atom   19 type  1   force =     0.00000000    0.00000000    0.00000000
     atom   20 type  2   force =     0.00003016    0.00051352   -0.02118249
     atom   21 type  1   force =     0.00000000    0.00000000    0.00000000
     atom   22 type  2   force =    -0.00163130   -0.00176969    0.01794526
     atom   23 type  2   force =    -0.00062977    0.00101595   -0.02101910
     atom   24 type  1   force =     0.00000000    0.00000000    0.00000000
     atom   25 type  2   force =    -0.00003127   -0.00031019    0.02055572
     atom   26 type  2   force =    -0.00021626    0.00087199   -0.02093302
     atom   27 type  1   force =     0.00000000    0.00000000    0.00000000
     atom   28 type  2   force =     0.00028487    0.00189785    0.02078157
     atom   29 type  2   force =    -0.00051846   -0.00052842   -0.02050407
     atom   30 type  1   force =     0.00000000    0.00000000    0.00000000
     atom   31 type  2   force =     0.00051639    0.00005175    0.02050244
     atom   32 type  2   force =     0.00000811    0.00072959   -0.02091804
     atom   33 type  1   force =     0.00000000    0.00000000    0.00000000
     atom   34 type  2   force =     0.00032616    0.00129962    0.02096205
     atom   35 type  2   force =    -0.00005909    0.00083319   -0.02118429
     atom   36 type  3   force =     0.00000000    0.00000000    0.00000000
     The Hubbard contrib.    to forces
     atom    1 type  1   force =     0.00000000    0.00000000    0.00000000
     atom    2 type  2   force =     0.00000000    0.00000000    0.00000000
     atom    3 type  2   force =     0.00000000    0.00000000    0.00000000
     atom    4 type  1   force =     0.00000000    0.00000000    0.00000000
     atom    5 type  2   force =     0.00000000    0.00000000    0.00000000
     atom    6 type  2   force =     0.00000000    0.00000000    0.00000000
     atom    7 type  1   force =     0.00000000    0.00000000    0.00000000
     atom    8 type  2   force =     0.00000000    0.00000000    0.00000000
     atom    9 type  2   force =     0.00000000    0.00000000    0.00000000
     atom   10 type  1   force =     0.00000000    0.00000000    0.00000000
     atom   11 type  2   force =     0.00000000    0.00000000    0.00000000
     atom   12 type  2   force =     0.00000000    0.00000000    0.00000000
     atom   13 type  1   force =     0.00000000    0.00000000    0.00000000
     atom   14 type  2   force =     0.00000000    0.00000000    0.00000000
     atom   15 type  2   force =     0.00000000    0.00000000    0.00000000
     atom   16 type  1   force =     0.00000000    0.00000000    0.00000000
     atom   17 type  2   force =     0.00000000    0.00000000    0.00000000
     atom   18 type  2   force =     0.00000000    0.00000000    0.00000000
     atom   19 type  1   force =     0.00000000    0.00000000    0.00000000
     atom   20 type  2   force =     0.00000000    0.00000000    0.00000000
     atom   21 type  1   force =     0.00000000    0.00000000    0.00000000
     atom   22 type  2   force =     0.00000000    0.00000000    0.00000000
     atom   23 type  2   force =     0.00000000    0.00000000    0.00000000
     atom   24 type  1   force =     0.00000000    0.00000000    0.00000000
     atom   25 type  2   force =     0.00000000    0.00000000    0.00000000
     atom   26 type  2   force =     0.00000000    0.00000000    0.00000000
     atom   27 type  1   force =     0.00000000    0.00000000    0.00000000
     atom   28 type  2   force =     0.00000000    0.00000000    0.00000000
     atom   29 type  2   force =     0.00000000    0.00000000    0.00000000
     atom   30 type  1   force =     0.00000000    0.00000000    0.00000000
     atom   31 type  2   force =     0.00000000    0.00000000    0.00000000
     atom   32 type  2   force =     0.00000000    0.00000000    0.00000000
     atom   33 type  1   force =     0.00000000    0.00000000    0.00000000
     atom   34 type  2   force =     0.00000000    0.00000000    0.00000000
     atom   35 type  2   force =     0.00000000    0.00000000    0.00000000
     atom   36 type  3   force =     0.00000000    0.00000000    0.00000000
     The SCF correction term to forces
     atom    1 type  1   force =     0.00007285   -0.00011757   -0.00108963
     atom    2 type  2   force =    -0.00000462   -0.00008881   -0.00042804
     atom    3 type  2   force =     0.00001530   -0.00010959   -0.00030044
     atom    4 type  1   force =    -0.00009206    0.00002049   -0.00097484
     atom    5 type  2   force =    -0.00008211    0.00003981   -0.00043455
     atom    6 type  2   force =    -0.00002629   -0.00006266   -0.00020741
     atom    7 type  1   force =    -0.00022391    0.00006833   -0.00088606
     atom    8 type  2   force =    -0.00006588    0.00011664   -0.00041553
     atom    9 type  2   force =    -0.00001192    0.00012817   -0.00020457
     atom   10 type  1   force =     0.00004564   -0.00012665   -0.00123048
     atom   11 type  2   force =    -0.00007763    0.00001626   -0.00041552
     atom   12 type  2   force =     0.00004292    0.00006829   -0.00027775
     atom   13 type  1   force =    -0.00002782   -0.00021439   -0.00104917
     atom   14 type  2   force =     0.00000397   -0.00014610   -0.00039687
     atom   15 type  2   force =     0.00002209   -0.00008940   -0.00028813
     atom   16 type  1   force =     0.00004082    0.00047427   -0.00081361
     atom   17 type  2   force =     0.00008175    0.00004514   -0.00045095
     atom   18 type  2   force =     0.00004389   -0.00005866   -0.00019006
     atom   19 type  1   force =     0.00026150   -0.00003594   -0.00087455
     atom   20 type  2   force =     0.00000037    0.00006712   -0.00008647
     atom   21 type  1   force =    -0.00002784   -0.00006095   -0.00080438
     atom   22 type  2   force =     0.00006087    0.00003425   -0.00039876
     atom   23 type  2   force =    -0.00002234    0.00006455   -0.00025338
     atom   24 type  1   force =    -0.00001093   -0.00022704   -0.00120073
     atom   25 type  2   force =     0.00002289   -0.00012852   -0.00042875
     atom   26 type  2   force =    -0.00003536   -0.00011430   -0.00030397
     atom   27 type  1   force =     0.00006811    0.00005312   -0.00090055
     atom   28 type  2   force =    -0.00000204   -0.00001739   -0.00046538
     atom   29 type  2   force =    -0.00002101   -0.00012043   -0.00024481
     atom   30 type  1   force =    -0.00001706    0.00034253   -0.00093238
     atom   31 type  2   force =     0.00006146    0.00012413   -0.00043503
     atom   32 type  2   force =     0.00000255    0.00013632   -0.00019642
     atom   33 type  1   force =    -0.00004271   -0.00006473   -0.00109477
     atom   34 type  2   force =     0.00002917   -0.00001289   -0.00043987
     atom   35 type  2   force =    -0.00002366    0.00009271   -0.00024038
     atom   36 type  3   force =     0.00000195   -0.00001429   -0.00007227

     Total force =     0.133527     Total SCF correction =     0.003939

     BFGS Geometry Optimization
     Energy error            =      0.0E+00 Ry
     Gradient error          =      4.3E-02 Ry/Bohr

     number of scf cycles    =   1
     number of bfgs steps    =   0

     energy             new  =   -2205.5256177020 Ry

     new trust radius        =       0.0529510945 bohr
     new conv_thr            =       0.0000010000 Ry


ATOMIC_POSITIONS (angstrom)
Mo            6.5812648615        1.7731081426        2.8255835709
S             8.1712032737        0.8200521491        4.4349301941
S             8.1864124702        0.8154342190        1.2760687224
Mo            8.1008050694        4.4914025125        2.7180140961
S             6.4994169336        3.7198255772        4.3430719279
S             6.5547004306        3.5176242765        1.1227706754
Mo            6.4851886591        7.2167220817        2.6654924453
S             8.0835617452        6.3407243754        4.2509087196
S             8.0876230083        6.3057768290        1.0884982336
Mo            8.1541047854        9.9119211235        2.8314881614
S             6.4854344157        8.9459810494        4.4060327928
S             6.6172354683        9.0483029494        1.1423863201
Mo            3.4236250477        1.7483570022        2.7723960197
S             4.9785942403        0.8240660119        4.3580021181
S             5.0514626503        0.8470799613        1.2207470876
Mo            4.9792597474        4.5132740537        2.6309362337
S             3.4308380691        3.6727911819        4.2805938940
S             3.4360919560        3.5449287840        1.0667917431
Mo            3.4627794593        7.2183403255        2.6259135468
S             4.9848203752        6.3245138057        1.0398970842
Mo            5.0034741719        9.9107941712        2.7203937844
S             3.4659819550        8.9395760434        4.3287662435
S             3.4083559644        9.0652860887        1.1003722298
Mo            0.2915255249        1.7482380989        2.8394240959
S             1.8577185120        0.8032186427        4.4021215173
S             1.8553509293        0.8537505209        1.2072168921
Mo            1.8570412255        4.4911221439        2.6648048617
S             0.2725350333        3.6543374896        4.3346303521
S             0.2326172734        3.5279395349        1.1701469193
Mo            0.2683482897        7.2241703863        2.7002056080
S             1.9024381541        6.3122667881        4.2307560189
S             1.8570310336        6.3122995497        1.0481046056
Mo            1.8514569338        9.9382681814        2.7698982300
S             0.2989040110        9.0674250902        4.4076068226
S             0.2725257905        9.0474114526        1.1579753022
H             5.2763750991        9.6991935942        5.0921404793



     Writing config-only to output data dir ./MoS2-V-O.save/
     NEW-OLD atomic charge density approx. for the potential

     negative rho (up, down):  1.443E-04 0.000E+00

     total cpu time spent up to now is       77.5 secs

     Self-consistent Calculation

     iteration #  1     ecut=    80.00 Ry     beta= 0.70
     Davidson diagonalization with overlap
     c_bands:  1 eigenvalues not converged
     ethr =  1.00E-06,  avg # of iterations = 20.0

     negative rho (up, down):  1.264E-04 0.000E+00

     total cpu time spent up to now is       97.6 secs

     total energy              =   -2205.54039079 Ry
     estimated scf accuracy    <       0.00168306 Ry

     iteration #  2     ecut=    80.00 Ry     beta= 0.70
     Davidson diagonalization with overlap
     ethr =  5.48E-07,  avg # of iterations =  2.0

     negative rho (up, down):  1.237E-04 0.000E+00

     total cpu time spent up to now is      118.3 secs

     total energy              =   -2205.54042157 Ry
     estimated scf accuracy    <       0.00036636 Ry

     iteration #  3     ecut=    80.00 Ry     beta= 0.70
     Davidson diagonalization with overlap
     ethr =  1.19E-07,  avg # of iterations =  5.0

     negative rho (up, down):  1.229E-04 0.000E+00

     total cpu time spent up to now is      132.2 secs

     total energy              =   -2205.54045647 Ry
     estimated scf accuracy    <       0.00007383 Ry

     iteration #  4     ecut=    80.00 Ry     beta= 0.70
     Davidson diagonalization with overlap
     ethr =  2.40E-08,  avg # of iterations =  5.0

     negative rho (up, down):  1.192E-04 0.000E+00

     total cpu time spent up to now is      152.6 secs

     total energy              =   -2205.54047184 Ry
     estimated scf accuracy    <       0.00000624 Ry

     iteration #  5     ecut=    80.00 Ry     beta= 0.70
     Davidson diagonalization with overlap
     ethr =  2.03E-09,  avg # of iterations =  9.0

     negative rho (up, down):  1.128E-04 0.000E+00

     total cpu time spent up to now is      166.4 secs

     total energy              =   -2205.54047332 Ry
     estimated scf accuracy    <       0.00000171 Ry

     iteration #  6     ecut=    80.00 Ry     beta= 0.70
     Davidson diagonalization with overlap
     ethr =  5.58E-10,  avg # of iterations =  3.0

     negative rho (up, down):  1.380E-04 0.000E+00

     total cpu time spent up to now is      168.5 secs

     End of self-consistent calculation

          k = 0.0000 0.0000 0.0000 (105382 PWs)   bands (ev):

   -62.9015 -62.8887 -62.8553 -62.8376 -62.8232 -62.8103 -62.8055 -62.7915
   -62.7912 -62.7218 -62.7055 -62.5551 -37.2074 -37.1660 -37.1436 -37.1316
   -37.1211 -37.1136 -37.0932 -37.0901 -37.0583 -37.0481 -37.0463 -37.0274
   -37.0126 -37.0062 -37.0034 -37.0007 -36.9907 -36.9896 -36.9797 -36.9668
   -36.9508 -36.9287 -36.9200 -36.9101 -36.8944 -36.8895 -36.8807 -36.8710
   -36.8552 -36.8435 -36.8299 -36.8062 -36.7340 -36.7129 -36.6469 -36.5955
   -16.1112 -15.5099 -15.1109 -15.0511 -14.9529 -14.8708 -14.6267 -14.4758
   -14.4497 -14.4077 -14.3921 -14.3590 -14.3435 -14.2779 -14.1683 -14.1124
   -14.0949 -14.0860 -14.0156 -13.8713 -13.8213 -13.8081 -13.7928  -8.7385
    -7.6234  -7.4270  -7.2882  -7.2684  -7.2500  -7.2120  -7.1287  -7.0545
    -6.8207  -6.7529  -6.7080  -6.6776  -6.5632  -6.4939  -6.4792  -6.4023
    -6.2601  -6.2309  -6.1070  -5.9530  -5.9132  -5.8779  -5.8102  -5.7936
    -5.7527  -5.7420  -5.6783  -5.6342  -5.6059  -5.5807  -5.5150  -5.4501
    -5.4186  -5.3369  -5.2025  -5.1283  -5.0504  -4.9990  -4.9695  -4.9513
    -4.8926  -4.8293  -4.6812  -4.5308  -4.3862  -4.3085  -4.2984  -4.2007
    -4.1874  -4.0495  -4.0170  -3.8934  -3.7911  -3.7713  -3.7246  -3.6746
    -3.6266  -3.5708  -3.5370  -3.4964  -3.4692  -3.4419  -3.4285  -3.3917
    -3.3481  -3.2016  -3.1214  -2.9532  -2.8991  -2.8201  -2.7542  -2.7105
    -2.6886  -2.6576  -2.6419  -2.6113  -2.5287  -2.2253  -2.0170  -1.9738
    -1.9525  -0.9622  -0.6937  -0.4232  -0.1575  -0.1272  -0.0298  -0.0081
     0.1135   0.1325   0.1808   0.2226   0.2316   0.2851   0.3960   0.4674
     0.4847   0.5525   0.5686   0.6046   0.6819   0.7098   0.7237   0.7575
     0.7736   0.8125   0.8559   0.8768   0.9672   0.9952   1.0132   1.3494
     1.3911

     the Fermi energy is    -0.9628 ev

!    total energy              =   -2205.54047318 Ry
     estimated scf accuracy    <       0.00000072 Ry
     smearing contrib. (-TS)   =      -0.00575479 Ry
     internal energy E=F+TS    =   -2205.53471840 Ry

     The total energy is F=E-TS. E is the sum of the following terms:
     one-electron contribution =  -18052.88874484 Ry
     hartree contribution      =    9013.35289131 Ry
     xc contribution           =    -385.30344795 Ry
     ewald contribution        =    7219.30458308 Ry

     convergence has been achieved in   6 iterations

     negative rho (up, down):  1.380E-04 0.000E+00

     Forces acting on atoms (cartesian axes, Ry/au):

     atom    1 type  1   force =     0.00329476   -0.01481000   -0.00034638
     atom    2 type  2   force =    -0.00562907    0.01362065   -0.00044973
     atom    3 type  2   force =    -0.01052822    0.00666518   -0.00929809
     atom    4 type  1   force =     0.00757112   -0.00226282    0.00171507
     atom    5 type  2   force =     0.00041475   -0.00606013   -0.00676991
     atom    6 type  2   force =     0.00272955    0.00626594    0.00332119
     atom    7 type  1   force =    -0.00497860   -0.00412936    0.00085812
     atom    8 type  2   force =     0.00126367   -0.00408375    0.00892861
     atom    9 type  2   force =     0.01023160    0.00196468    0.00656067
     atom   10 type  1   force =    -0.00732507    0.01312542   -0.00424674
     atom   11 type  2   force =    -0.01880083    0.00684708    0.03011668
     atom   12 type  2   force =    -0.00153746   -0.00023509   -0.00122795
     atom   13 type  1   force =     0.00314808    0.00223719   -0.00251341
     atom   14 type  2   force =     0.00348224    0.00875771    0.00623175
     atom   15 type  2   force =    -0.00932091    0.00475450   -0.01427483
     atom   16 type  1   force =     0.00117954    0.00049088   -0.00085399
     atom   17 type  2   force =     0.00506518    0.00155592    0.00129089
     atom   18 type  2   force =    -0.00377708   -0.00459836    0.01157698
     atom   19 type  1   force =     0.01013184    0.00306933   -0.00196167
     atom   20 type  2   force =     0.00274358   -0.00514403   -0.00106366
     atom   21 type  1   force =    -0.01302151    0.01040439   -0.01394314
     atom   22 type  2   force =    -0.00479720   -0.00385831   -0.00146114
     atom   23 type  2   force =    -0.00207140   -0.00028609   -0.00050697
     atom   24 type  1   force =    -0.00550987    0.00023660   -0.00903174
     atom   25 type  2   force =     0.00969203    0.01517799    0.00097814
     atom   26 type  2   force =    -0.00721712   -0.00142823   -0.00496201
     atom   27 type  1   force =    -0.00420179   -0.00404474    0.00788137
     atom   28 type  2   force =     0.00009461   -0.00217102   -0.00404431
     atom   29 type  2   force =     0.00241818    0.00161307   -0.00556649
     atom   30 type  1   force =    -0.00382792    0.00513106    0.00394855
     atom   31 type  2   force =     0.00111273    0.00028366    0.00800158
     atom   32 type  2   force =    -0.00778666    0.00292989    0.00689818
     atom   33 type  1   force =     0.00558212   -0.00116983    0.00273836
     atom   34 type  2   force =     0.00159370   -0.03038021   -0.01595888
     atom   35 type  2   force =    -0.00662697    0.00861846    0.00812371
     atom   36 type  3   force =     0.04520838   -0.02908763   -0.01068881
     The non-local contrib.  to forces
     atom    1 type  1   force =     0.00082972    0.03603631   -0.01376343
     atom    2 type  2   force =    -0.00544125   -0.00344258   -0.26784929
     atom    3 type  2   force =    -0.01249260   -0.01015661    0.26710189
     atom    4 type  1   force =    -0.00024066    0.00994623    0.00243206
     atom    5 type  2   force =     0.00641014   -0.03579087   -0.25566795
     atom    6 type  2   force =    -0.00108014    0.00418627    0.26443645
     atom    7 type  1   force =    -0.03173382   -0.00231228   -0.01526186
     atom    8 type  2   force =     0.00927563   -0.00568444   -0.25644929
     atom    9 type  2   force =     0.00761197   -0.01343969    0.27530338
     atom   10 type  1   force =     0.00661059    0.00467318   -0.01068305
     atom   11 type  2   force =    -0.18351688    0.14621243   -0.09621034
     atom   12 type  2   force =    -0.01530228   -0.01188930    0.26276637
     atom   13 type  1   force =    -0.00127620    0.02887918   -0.01123337
     atom   14 type  2   force =     0.00708271   -0.01279498   -0.23512627
     atom   15 type  2   force =    -0.01241907   -0.00697263    0.26147602
     atom   16 type  1   force =    -0.00052501    0.04020809   -0.01976451
     atom   17 type  2   force =     0.00171647   -0.03025196   -0.25147381
     atom   18 type  2   force =    -0.00477034   -0.00504982    0.27091010
     atom   19 type  1   force =     0.02026288   -0.01194538   -0.01253517
     atom   20 type  2   force =     0.00249744   -0.01652829    0.26268507
     atom   21 type  1   force =    -0.00523158    0.01985138   -0.00959708
     atom   22 type  2   force =     0.01148312    0.02367768   -0.22166687
     atom   23 type  2   force =     0.00871824   -0.01062998    0.26536200
     atom   24 type  1   force =     0.00520918    0.02233025   -0.00974898
     atom   25 type  2   force =     0.00449392    0.00069211   -0.26224102
     atom   26 type  2   force =     0.00091741   -0.01503218    0.26441175
     atom   27 type  1   force =    -0.00168301    0.01267723    0.00743941
     atom   28 type  2   force =    -0.00431042   -0.02688535   -0.27073204
     atom   29 type  2   force =     0.00483206    0.00045550    0.26087895
     atom   30 type  1   force =     0.00534490    0.01193792    0.01072096
     atom   31 type  2   force =    -0.00805516   -0.00040290   -0.26008321
     atom   32 type  2   force =    -0.00274867   -0.01311990    0.27265295
     atom   33 type  1   force =    -0.00408383    0.00859383    0.00095854
     atom   34 type  2   force =    -0.00092541   -0.03069111   -0.27428688
     atom   35 type  2   force =    -0.00207560   -0.00694080    0.26954794
     atom   36 type  3   force =     0.02181258   -0.01440598   -0.01707497
     The ionic contribution  to forces
     atom    1 type  1   force =     0.26463374    0.85231365    5.66321158
     atom    2 type  2   force =    -0.34402190    0.39527656   39.36973657
     atom    3 type  2   force =    -0.07913088    0.07028980  -36.24645768
     atom    4 type  1   force =    -0.02373407    0.74478946    0.77981350
     atom    5 type  2   force =    -0.95548920    1.55846034   38.66593233
     atom    6 type  2   force =     0.33167456   -0.50071584  -37.92971263
     atom    7 type  1   force =    -2.20291457   -2.95219284    2.34861502
     atom    8 type  2   force =    -0.98056262   -0.00902321   37.40553775
     atom    9 type  2   force =     0.34773924   -0.08290827  -37.91131403
     atom   10 type  1   force =    -0.66363537   -0.57802424    5.32905866
     atom   11 type  2   force =     0.44710764   -2.22920988   38.62556286
     atom   12 type  2   force =     0.53710941    0.56774568  -37.90584045
     atom   13 type  1   force =     0.28900069    1.22373594    2.70391688
     atom   14 type  2   force =    -0.08725226    0.52439621   38.41088036
     atom   15 type  2   force =     0.18490998    0.17238327  -37.00509907
     atom   16 type  1   force =     0.03389811    3.86272513    0.46181750
     atom   17 type  2   force =     0.79561732    1.54625864   37.95993899
     atom   18 type  2   force =    -0.18065358   -0.55189488  -38.48877894
     atom   19 type  1   force =     2.29446328   -2.87581406    0.41253190
     atom   20 type  2   force =     0.20933552   -0.30407262  -38.53880057
     atom   21 type  1   force =     0.09985807   -0.02158374   -0.70273727
     atom   22 type  2   force =    -0.06203658   -1.94285656   38.22540471
     atom   23 type  2   force =    -0.23881563    0.54969475  -38.42212874
     atom   24 type  1   force =    -0.32358936    1.04556843    5.57048868
     atom   25 type  2   force =     0.44186870    0.30720553   39.25496412
     atom   26 type  2   force =    -0.31339182    0.08779460  -37.33467145
     atom   27 type  1   force =     0.08701185    0.65660849   -1.94753967
     atom   28 type  2   force =     0.05977792    0.98036861   38.26201926
     atom   29 type  2   force =    -0.23952641   -0.34654897  -37.32702152
     atom   30 type  1   force =    -0.30080266   -1.15221804   -0.02345470
     atom   31 type  2   force =     1.20158190   -0.09633025   37.31286497
     atom   32 type  2   force =    -0.47339870   -0.06706147  -38.50937512
     atom   33 type  1   force =     0.30937889   -0.69662676    2.11710101
     atom   34 type  2   force =     0.17086449   -1.28324781   39.23642887
     atom   35 type  2   force =    -0.26356541    0.45318403  -37.73779039
     atom   36 type  3   force =    -0.37331027    0.09153030    7.91489673
     The local contribution  to forces
     atom    1 type  1   force =    -0.26207733   -0.90338794   -5.65079839
     atom    2 type  2   force =     0.34358832   -0.37821348  -39.12346792
     atom    3 type  2   force =     0.08045442   -0.05393031   35.99066345
     atom    4 type  1   force =     0.03160754   -0.75724228   -0.78152055
     atom    5 type  2   force =     0.95013999   -1.53087497  -38.43779480
     atom    6 type  2   force =    -0.32806044    0.50343955   37.68912557
     atom    7 type  1   force =     2.22951601    2.95010939   -2.33387106
     atom    8 type  2   force =     0.97301149    0.01015417  -37.16090401
     atom    9 type  2   force =    -0.34486006    0.09766305   37.66313348
     atom   10 type  1   force =     0.65001330    0.58691041   -5.32414640
     atom   11 type  2   force =    -0.29439205    2.09912784  -38.50962218
     atom   12 type  2   force =    -0.52468042   -0.55700178   37.66225613
     atom   13 type  1   force =    -0.28462920   -1.25052392   -2.69627305
     atom   14 type  2   force =     0.08421451   -0.50342564  -38.18894607
     atom   15 type  2   force =    -0.18255343   -0.16137222   36.74967932
     atom   16 type  1   force =    -0.03224589   -3.90263140   -0.44393855
     atom   17 type  2   force =    -0.79233587   -1.51616175  -37.72784334
     atom   18 type  2   force =     0.18150367    0.55254140   38.25009788
     atom   19 type  1   force =    -2.30468655    2.89107026   -0.40310867
     atom   20 type  2   force =    -0.20913885    0.31500148   38.29585405
     atom   21 type  1   force =    -0.10804327    0.01255773    0.69682337
     atom   22 type  2   force =     0.04692887    1.91713835  -38.02389540
     atom   23 type  2   force =     0.22873396   -0.54018693   38.17687797
     atom   24 type  1   force =     0.31289196   -1.06774288   -5.57080853
     atom   25 type  2   force =    -0.43669135   -0.29251761  -39.01278023
     atom   26 type  2   force =     0.30555466   -0.07507665   37.08588144
     atom   27 type  1   force =    -0.08953122   -0.67352578    1.94696197
     atom   28 type  2   force =    -0.05561874   -0.95758033  -38.01653480
     atom   29 type  2   force =     0.23760651    0.34800939   37.08079421
     atom   30 type  1   force =     0.29180381    1.14556941    0.01561520
     atom   31 type  2   force =    -1.19294872    0.09691504  -37.06583843
     atom   32 type  2   force =     0.46842960    0.08249298   38.26422183
     atom   33 type  1   force =    -0.29962536    0.68693775   -2.11653622
     atom   34 type  2   force =    -0.16856712    1.28251879  -38.99960655
     atom   35 type  2   force =     0.25912215   -0.43836959   37.49710719
     atom   36 type  3   force =     0.39669014   -0.10619105   -7.90857629
     The core correction contribution to forces
     atom    1 type  1   force =     0.00000000    0.00000000    0.00000000
     atom    2 type  2   force =     0.00020768    0.00016053    0.02065070
     atom    3 type  2   force =     0.00058503    0.00047315   -0.02089758
     atom    4 type  1   force =     0.00000000    0.00000000    0.00000000
     atom    5 type  2   force =    -0.00066199    0.00201979    0.02037324
     atom    6 type  2   force =     0.00016603   -0.00074965   -0.02085273
     atom    7 type  1   force =     0.00000000    0.00000000    0.00000000
     atom    8 type  2   force =    -0.00032494    0.00041213    0.02037276
     atom    9 type  2   force =    -0.00016601    0.00069913   -0.02092367
     atom   10 type  1   force =     0.00000000    0.00000000    0.00000000
     atom   11 type  2   force =     0.01191909   -0.00916023    0.01020689
     atom   12 type  2   force =     0.00128755    0.00107323   -0.02088858
     atom   13 type  1   force =     0.00000000    0.00000000    0.00000000
     atom   14 type  2   force =    -0.00055750    0.00068654    0.01895505
     atom   15 type  2   force =     0.00071926    0.00061194   -0.02065297
     atom   16 type  1   force =     0.00000000    0.00000000    0.00000000
     atom   17 type  2   force =     0.00004881    0.00163005    0.02026897
     atom   18 type  2   force =     0.00014570   -0.00029478   -0.02093117
     atom   19 type  1   force =     0.00000000    0.00000000    0.00000000
     atom   20 type  2   force =     0.00000148    0.00047924   -0.02112360
     atom   21 type  1   force =     0.00000000    0.00000000    0.00000000
     atom   22 type  2   force =    -0.00132002   -0.00173579    0.01823321
     atom   23 type  2   force =    -0.00070654    0.00096220   -0.02092516
     atom   24 type  1   force =     0.00000000    0.00000000    0.00000000
     atom   25 type  2   force =     0.00006319   -0.00016382    0.02064706
     atom   26 type  2   force =    -0.00029945    0.00083932   -0.02090485
     atom   27 type  1   force =     0.00000000    0.00000000    0.00000000
     atom   28 type  2   force =     0.00028586    0.00184412    0.02080515
     atom   29 type  2   force =    -0.00045815   -0.00041388   -0.02051586
     atom   30 type  1   force =     0.00000000    0.00000000    0.00000000
     atom   31 type  2   force =     0.00048302    0.00009851    0.02066284
     atom   32 type  2   force =    -0.00009828    0.00069432   -0.02092106
     atom   33 type  1   force =     0.00000000    0.00000000    0.00000000
     atom   34 type  2   force =     0.00038793    0.00095547    0.02109520
     atom   35 type  2   force =    -0.00005389    0.00077893   -0.02108734
     atom   36 type  3   force =     0.00000000    0.00000000    0.00000000
     The Hubbard contrib.    to forces
     atom    1 type  1   force =     0.00000000    0.00000000    0.00000000
     atom    2 type  2   force =     0.00000000    0.00000000    0.00000000
     atom    3 type  2   force =     0.00000000    0.00000000    0.00000000
     atom    4 type  1   force =     0.00000000    0.00000000    0.00000000
     atom    5 type  2   force =     0.00000000    0.00000000    0.00000000
     atom    6 type  2   force =     0.00000000    0.00000000    0.00000000
     atom    7 type  1   force =     0.00000000    0.00000000    0.00000000
     atom    8 type  2   force =     0.00000000    0.00000000    0.00000000
     atom    9 type  2   force =     0.00000000    0.00000000    0.00000000
     atom   10 type  1   force =     0.00000000    0.00000000    0.00000000
     atom   11 type  2   force =     0.00000000    0.00000000    0.00000000
     atom   12 type  2   force =     0.00000000    0.00000000    0.00000000
     atom   13 type  1   force =     0.00000000    0.00000000    0.00000000
     atom   14 type  2   force =     0.00000000    0.00000000    0.00000000
     atom   15 type  2   force =     0.00000000    0.00000000    0.00000000
     atom   16 type  1   force =     0.00000000    0.00000000    0.00000000
     atom   17 type  2   force =     0.00000000    0.00000000    0.00000000
     atom   18 type  2   force =     0.00000000    0.00000000    0.00000000
     atom   19 type  1   force =     0.00000000    0.00000000    0.00000000
     atom   20 type  2   force =     0.00000000    0.00000000    0.00000000
     atom   21 type  1   force =     0.00000000    0.00000000    0.00000000
     atom   22 type  2   force =     0.00000000    0.00000000    0.00000000
     atom   23 type  2   force =     0.00000000    0.00000000    0.00000000
     atom   24 type  1   force =     0.00000000    0.00000000    0.00000000
     atom   25 type  2   force =     0.00000000    0.00000000    0.00000000
     atom   26 type  2   force =     0.00000000    0.00000000    0.00000000
     atom   27 type  1   force =     0.00000000    0.00000000    0.00000000
     atom   28 type  2   force =     0.00000000    0.00000000    0.00000000
     atom   29 type  2   force =     0.00000000    0.00000000    0.00000000
     atom   30 type  1   force =     0.00000000    0.00000000    0.00000000
     atom   31 type  2   force =     0.00000000    0.00000000    0.00000000
     atom   32 type  2   force =     0.00000000    0.00000000    0.00000000
     atom   33 type  1   force =     0.00000000    0.00000000    0.00000000
     atom   34 type  2   force =     0.00000000    0.00000000    0.00000000
     atom   35 type  2   force =     0.00000000    0.00000000    0.00000000
     atom   36 type  3   force =     0.00000000    0.00000000    0.00000000
     The SCF correction term to forces
     atom    1 type  1   force =    -0.00009102    0.00022509    0.00098234
     atom    2 type  2   force =     0.00003843   -0.00016327    0.00045869
     atom    3 type  2   force =     0.00005617   -0.00001373    0.00027032
     atom    4 type  1   force =    -0.00006134    0.00024087    0.00096854
     atom    5 type  2   force =     0.00001616    0.00012268    0.00036576
     atom    6 type  2   force =     0.00002989    0.00010272    0.00030303
     atom    7 type  1   force =     0.00015414    0.00026348    0.00135450
     atom    8 type  2   force =    -0.00013555    0.00005471    0.00034988
     atom    9 type  2   force =    -0.00009319   -0.00005243    0.00034000
     atom   10 type  1   force =    -0.00031324   -0.00043683    0.00150254
     atom   11 type  2   force =     0.00008173   -0.00012598    0.00015794
     atom   12 type  2   force =     0.00004863   -0.00016580    0.00045706
     atom   13 type  1   force =     0.00005315    0.00014310    0.00105462
     atom   14 type  2   force =    -0.00000487   -0.00010732    0.00044716
     atom   15 type  2   force =     0.00002269    0.00010125    0.00030036
     atom   16 type  1   force =     0.00005268    0.00018616    0.00101005
     atom   17 type  2   force =     0.00001881    0.00007806    0.00037856
     atom   18 type  2   force =    -0.00000218    0.00009683    0.00025760
     atom   19 type  1   force =     0.00009259   -0.00024439    0.00112875
     atom   20 type  2   force =     0.00004835   -0.00002673    0.00029987
     atom   21 type  1   force =     0.00039562   -0.00042386    0.00154633
     atom   22 type  2   force =     0.00014777   -0.00008489    0.00044168
     atom   23 type  2   force =    -0.00000108   -0.00012902    0.00028544
     atom   24 type  1   force =    -0.00002130    0.00007792    0.00101556
     atom   25 type  2   force =    -0.00004208   -0.00004111    0.00036669
     atom   26 type  2   force =     0.00000243    0.00004379    0.00029960
     atom   27 type  1   force =     0.00000094    0.00019242    0.00099815
     atom   28 type  2   force =    -0.00003966    0.00007905    0.00037661
     atom   29 type  2   force =    -0.00003548    0.00010813    0.00027622
     atom   30 type  1   force =    -0.00017362   -0.00016113    0.00104557
     atom   31 type  2   force =     0.00005205    0.00000037    0.00037390
     atom   32 type  2   force =     0.00002974   -0.00007894    0.00029807
     atom   33 type  1   force =    -0.00008722   -0.00007756    0.00119351
     atom   34 type  2   force =    -0.00016584    0.00008155    0.00038897
     atom   35 type  2   force =    -0.00005387   -0.00003699    0.00032480
     atom   36 type  3   force =     0.00001629   -0.00002379    0.00004420

     Total force =     0.096924     Total SCF correction =     0.004528
     Energy error            =      1.5E-02 Ry
     Gradient error          =      4.5E-02 Ry/Bohr

     number of scf cycles    =   2
     number of bfgs steps    =   1

     energy             old  =   -2205.5256177020 Ry
     energy             new  =   -2205.5404731839 Ry

     CASE: energy            _new < energy            _old

     new trust radius        =       0.0582462039 bohr
     new conv_thr            =       0.0000000452 Ry


ATOMIC_POSITIONS (angstrom)
Mo            6.5842066183        1.7632369687        2.8258469483
S             8.1674687901        0.8284447999        4.4348117910
S             8.1801801841        0.8193525853        1.2714753083
Mo            8.1054464676        4.4895894976        2.7188312896
S             6.4994977894        3.7165281750        4.3392368772
S             6.5562258446        3.5217288520        1.1245936375
Mo            6.4819023285        7.2144853706        2.6644971070
S             8.0845294777        6.3381985580        4.2567702515
S             8.0936963501        6.3068969404        1.0924651831
Mo            8.1493859291        9.9199586079        2.8269788378
S             6.4748344742        8.9497353171        4.4245998762
S             6.6163868679        9.0481084054        1.1423679222
Mo            3.4254725592        1.7496709047        2.7703787625
S             4.9809093468        0.8295642194        4.3624336042
S             5.0458730691        0.8494049454        1.2130188564
Mo            4.9796851304        4.5135166078        2.6301288571
S             3.4337747844        3.6737519313        4.2813684402
S             3.4339898608        3.5421373062        1.0738482420
Mo            3.4692864126        7.2201631624        2.6239966616
S             4.9864030921        6.3216665122        1.0399884686
Mo            4.9956893871        9.9174840641        2.7091164334
S             3.4627379571        8.9369295193        4.3287930666
S             3.4074042921        9.0652209032        1.1010744145
Mo            0.2880485189        1.7485026317        2.8331755272
S             1.8636672875        0.8123530715        4.4034098739
S             1.8509113084        0.8529591292        1.2045025744
Mo            1.8543531453        4.4883114680        2.6693624831
S             0.2726472685        3.6533433784        4.3321640856
S             0.2340096795        3.5288176595        1.1672272278
Mo            0.2660122138        7.2281165508        2.7016669548
S             1.9029841282        6.3122798239        4.2361694657
S             1.8523864458        6.3140463984        1.0519882175
Mo            1.8555173012        9.9373348474        2.7704758973
S             0.3002712052        9.0488156538        4.3990417520
S             0.2686131904        9.0521459214        1.1632843825
H             5.3016938614        9.6827235004        5.0859982711



     Writing config-only to output data dir ./MoS2-V-O.save/
     NEW-OLD atomic charge density approx. for the potential

     negative rho (up, down):  1.428E-04 0.000E+00

     total cpu time spent up to now is      171.7 secs

     Self-consistent Calculation

     iteration #  1     ecut=    80.00 Ry     beta= 0.70
     Davidson diagonalization with overlap
     c_bands:  1 eigenvalues not converged
     ethr =  1.00E-06,  avg # of iterations = 20.0

     negative rho (up, down):  1.203E-04 0.000E+00

     total cpu time spent up to now is      190.1 secs

     total energy              =   -2205.54977049 Ry
     estimated scf accuracy    <       0.00078220 Ry

     iteration #  2     ecut=    80.00 Ry     beta= 0.70
     Davidson diagonalization with overlap
     ethr =  2.55E-07,  avg # of iterations =  2.0

     negative rho (up, down):  1.080E-04 0.000E+00

     total cpu time spent up to now is      209.8 secs

     total energy              =   -2205.54981459 Ry
     estimated scf accuracy    <       0.00015131 Ry

     iteration #  3     ecut=    80.00 Ry     beta= 0.70
     Davidson diagonalization with overlap
     ethr =  4.93E-08,  avg # of iterations =  4.0

     negative rho (up, down):  9.997E-05 0.000E+00

     total cpu time spent up to now is      226.3 secs

     total energy              =   -2205.54983611 Ry
     estimated scf accuracy    <       0.00002893 Ry

     iteration #  4     ecut=    80.00 Ry     beta= 0.70
     Davidson diagonalization with overlap
     ethr =  9.42E-09,  avg # of iterations =  5.0

     negative rho (up, down):  9.929E-05 0.000E+00

     total cpu time spent up to now is      245.7 secs

     total energy              =   -2205.54984493 Ry
     estimated scf accuracy    <       0.00000295 Ry

     iteration #  5     ecut=    80.00 Ry     beta= 0.70
     Davidson diagonalization with overlap
     ethr =  9.61E-10,  avg # of iterations =  6.0

     negative rho (up, down):  1.013E-04 0.000E+00

     total cpu time spent up to now is      262.4 secs

     total energy              =   -2205.54984532 Ry
     estimated scf accuracy    <       0.00000070 Ry

     iteration #  6     ecut=    80.00 Ry     beta= 0.70
     Davidson diagonalization with overlap
     ethr =  2.29E-10,  avg # of iterations =  4.0

     negative rho (up, down):  1.047E-04 0.000E+00

     total cpu time spent up to now is      277.7 secs

     total energy              =   -2205.54984544 Ry
     estimated scf accuracy    <       0.00000009 Ry

     iteration #  7     ecut=    80.00 Ry     beta= 0.70
     Davidson diagonalization with overlap
     ethr =  2.91E-11,  avg # of iterations =  5.0

     negative rho (up, down):  1.384E-04 0.000E+00

     total cpu time spent up to now is      280.0 secs

     End of self-consistent calculation

          k = 0.0000 0.0000 0.0000 (105382 PWs)   bands (ev):

   -62.8996 -62.8870 -62.8502 -62.8339 -62.8185 -62.8076 -62.8036 -62.7906
   -62.7887 -62.7234 -62.7006 -62.5542 -37.2039 -37.1612 -37.1415 -37.1305
   -37.1162 -37.1091 -37.0874 -37.0848 -37.0528 -37.0462 -37.0412 -37.0246
   -37.0095 -37.0030 -36.9997 -36.9973 -36.9886 -36.9867 -36.9776 -36.9657
   -36.9503 -36.9261 -36.9211 -36.9059 -36.8922 -36.8860 -36.8795 -36.8657
   -36.8549 -36.8387 -36.8291 -36.8036 -36.7340 -36.7123 -36.6436 -36.5951
   -16.1241 -15.5446 -15.1057 -15.0550 -14.9471 -14.8644 -14.6270 -14.4709
   -14.4419 -14.4013 -14.3899 -14.3547 -14.3429 -14.2760 -14.1646 -14.1147
   -14.0958 -14.0784 -14.0136 -13.8703 -13.8149 -13.8044 -13.7948  -8.7761
    -7.6231  -7.4250  -7.2839  -7.2645  -7.2335  -7.2056  -7.1314  -7.0575
    -6.8151  -6.7471  -6.7018  -6.6704  -6.5679  -6.4896  -6.4749  -6.3900
    -6.2539  -6.2274  -6.1269  -5.9494  -5.9095  -5.8743  -5.7993  -5.7960
    -5.7501  -5.7423  -5.6727  -5.6333  -5.6037  -5.5833  -5.5175  -5.4409
    -5.4069  -5.3193  -5.1872  -5.1204  -5.0525  -4.9950  -4.9617  -4.9577
    -4.8920  -4.8286  -4.6752  -4.5306  -4.3913  -4.3001  -4.2983  -4.2064
    -4.1870  -4.0499  -4.0178  -3.8934  -3.7910  -3.7675  -3.7255  -3.6691
    -3.6271  -3.5708  -3.5316  -3.4920  -3.4715  -3.4386  -3.4195  -3.3913
    -3.3450  -3.2060  -3.1210  -2.9548  -2.8912  -2.8127  -2.7531  -2.7103
    -2.6819  -2.6576  -2.6397  -2.6084  -2.5287  -2.2196  -2.0161  -1.9721
    -1.9557  -0.9628  -0.6884  -0.4273  -0.1455  -0.1275  -0.0195   0.0055
     0.1039   0.1396   0.1749   0.2213   0.2405   0.2970   0.3976   0.4672
     0.4842   0.5545   0.5728   0.6113   0.6807   0.7145   0.7165   0.7575
     0.7776   0.8141   0.8655   0.8764   0.9648   1.0052   1.0188   1.3400
     1.3929

     the Fermi energy is    -0.9633 ev

!    total energy              =   -2205.54984528 Ry
     estimated scf accuracy    <       0.00000003 Ry
     smearing contrib. (-TS)   =      -0.00573708 Ry
     internal energy E=F+TS    =   -2205.54410820 Ry

     The total energy is F=E-TS. E is the sum of the following terms:
     one-electron contribution =  -18050.99293224 Ry
     hartree contribution      =    9012.42793987 Ry
     xc contribution           =    -385.30775958 Ry
     ewald contribution        =    7218.32864375 Ry

     convergence has been achieved in   7 iterations

     negative rho (up, down):  1.384E-04 0.000E+00

     Forces acting on atoms (cartesian axes, Ry/au):

     atom    1 type  1   force =    -0.00197959   -0.00645998   -0.00391173
     atom    2 type  2   force =    -0.00266729    0.00971416   -0.00031523
     atom    3 type  2   force =    -0.00839308    0.00501049   -0.01082421
     atom    4 type  1   force =     0.00532509    0.00008704    0.00146565
     atom    5 type  2   force =     0.00135552   -0.00640232   -0.00581432
     atom    6 type  2   force =     0.00273500    0.00351824    0.00324833
     atom    7 type  1   force =    -0.00324172   -0.00407246    0.00607714
     atom    8 type  2   force =    -0.00021879   -0.00316806    0.00583510
     atom    9 type  2   force =     0.00772959    0.00199029    0.00559734
     atom   10 type  1   force =    -0.00546648    0.00968861    0.00314311
     atom   11 type  2   force =    -0.01369235    0.00442748    0.02140332
     atom   12 type  2   force =    -0.00220471    0.00006330   -0.00156918
     atom   13 type  1   force =     0.00210265    0.00180458   -0.00094428
     atom   14 type  2   force =     0.00124414    0.00602061    0.00204559
     atom   15 type  2   force =    -0.00768917    0.00528797   -0.01388667
     atom   16 type  1   force =     0.00220767    0.00062713    0.00032638
     atom   17 type  2   force =     0.00458243    0.00127062    0.00145681
     atom   18 type  2   force =    -0.00377318   -0.00285344    0.00857255
     atom   19 type  1   force =     0.00601303    0.00266167   -0.00003983
     atom   20 type  2   force =     0.00267819   -0.00476172   -0.00331698
     atom   21 type  1   force =    -0.00988569    0.00678830   -0.00166990
     atom   22 type  2   force =    -0.00324420   -0.00146819   -0.00445303
     atom   23 type  2   force =    -0.00320945   -0.00067314   -0.00385483
     atom   24 type  1   force =    -0.00378859    0.00002450   -0.00478325
     atom   25 type  2   force =     0.00664411    0.01150999   -0.00178517
     atom   26 type  2   force =    -0.00472057   -0.00148561   -0.00398233
     atom   27 type  1   force =    -0.00230105   -0.00157825    0.00612405
     atom   28 type  2   force =    -0.00021538   -0.00325837   -0.00232850
     atom   29 type  2   force =     0.00231099    0.00181478   -0.00563573
     atom   30 type  1   force =    -0.00283557    0.00019955    0.00498248
     atom   31 type  2   force =     0.00179401    0.00075212    0.00427344
     atom   32 type  2   force =    -0.00594004    0.00233216    0.00733153
     atom   33 type  1   force =     0.00098766    0.00011112    0.00430530
     atom   34 type  2   force =    -0.00081729   -0.02093350   -0.01482295
     atom   35 type  2   force =    -0.00566037    0.00842597    0.00559917
     atom   36 type  3   force =     0.04423449   -0.02701563   -0.00784917
     The non-local contrib.  to forces
     atom    1 type  1   force =     0.00173174    0.03314228   -0.01313026
     atom    2 type  2   force =    -0.00369879   -0.00584663   -0.26618545
     atom    3 type  2   force =    -0.00943902   -0.01161151    0.26500296
     atom    4 type  1   force =     0.00100693    0.01014591    0.00216221
     atom    5 type  2   force =     0.00710084   -0.03649434   -0.25614328
     atom    6 type  2   force =    -0.00096956    0.00127815    0.26524649
     atom    7 type  1   force =    -0.03293451   -0.00306354   -0.01795278
     atom    8 type  2   force =     0.00881180   -0.00552817   -0.25827302
     atom    9 type  2   force =     0.00505974   -0.01399332    0.27507181
     atom   10 type  1   force =     0.00636442    0.00501982   -0.01201056
     atom   11 type  2   force =    -0.19308927    0.15168504   -0.10032428
     atom   12 type  2   force =    -0.01652465   -0.01119247    0.26356685
     atom   13 type  1   force =    -0.00094909    0.02962537   -0.01157552
     atom   14 type  2   force =     0.00450438   -0.01044528   -0.23804234
     atom   15 type  2   force =    -0.01105220   -0.00741773    0.26067224
     atom   16 type  1   force =    -0.00193837    0.04087814   -0.02070645
     atom   17 type  2   force =     0.00105772   -0.03008765   -0.25136658
     atom   18 type  2   force =    -0.00443846   -0.00381361    0.26926979
     atom   19 type  1   force =     0.02115329   -0.01297897   -0.01375256
     atom   20 type  2   force =     0.00285307   -0.01612247    0.26146000
     atom   21 type  1   force =    -0.00787300    0.02011740   -0.01033221
     atom   22 type  2   force =     0.00606449    0.02213213   -0.22573343
     atom   23 type  2   force =     0.00843911   -0.01051428    0.26309317
     atom   24 type  1   force =     0.00427689    0.02286254   -0.00901038
     atom   25 type  2   force =     0.00212502   -0.00237080   -0.26396714
     atom   26 type  2   force =     0.00258400   -0.01440581    0.26507736
     atom   27 type  1   force =    -0.00238868    0.01169606    0.00687478
     atom   28 type  2   force =    -0.00425593   -0.02690449   -0.26967221
     atom   29 type  2   force =     0.00421177   -0.00070798    0.26095706
     atom   30 type  1   force =     0.00596982    0.01221997    0.01073150
     atom   31 type  2   force =    -0.00720173   -0.00059995   -0.26350422
     atom   32 type  2   force =    -0.00065232   -0.01316730    0.27371950
     atom   33 type  1   force =    -0.00302695    0.00710424    0.00050184
     atom   34 type  2   force =    -0.00246563   -0.02268790   -0.27426411
     atom   35 type  2   force =    -0.00170637   -0.00679385    0.26856292
     atom   36 type  3   force =     0.02620323   -0.01697939   -0.01878959
     The ionic contribution  to forces
     atom    1 type  1   force =     0.12572156    1.03619521    5.64979561
     atom    2 type  2   force =    -0.23490876    0.31315124   39.43651207
     atom    3 type  2   force =    -0.03887013    0.06011785  -36.36477079
     atom    4 type  1   force =    -0.13719504    0.84381996    0.83150490
     atom    5 type  2   force =    -0.95869223    1.57020278   38.59186406
     atom    6 type  2   force =     0.32059923   -0.49993344  -37.86518920
     atom    7 type  1   force =    -2.04383001   -2.78494311    2.44459052
     atom    8 type  2   force =    -1.02520294    0.02695620   37.42979506
     atom    9 type  2   force =     0.32287478   -0.07108177  -37.84401406
     atom   10 type  1   force =    -0.63875519   -0.80124488    5.35549612
     atom   11 type  2   force =     0.54432680   -2.27467098   38.62517048
     atom   12 type  2   force =     0.56425771    0.49460052  -37.84835591
     atom   13 type  1   force =     0.23335648    1.20482688    2.67034874
     atom   14 type  2   force =    -0.12286258    0.46569532   38.47905347
     atom   15 type  2   force =     0.20637900    0.24527022  -37.12418892
     atom   16 type  1   force =     0.05489738    3.84963643    0.43560997
     atom   17 type  2   force =     0.80440323    1.55792627   37.97083479
     atom   18 type  2   force =    -0.18948277   -0.48405216  -38.42648306
     atom   19 type  1   force =     2.14180583   -2.99594819    0.34721239
     atom   20 type  2   force =     0.20021952   -0.32264129  -38.57457994
     atom   21 type  1   force =     0.27415031   -0.15086757   -1.05872841
     atom   22 type  2   force =    -0.01247924   -1.91408461   38.24721736
     atom   23 type  2   force =    -0.30169279    0.48570197  -38.46707473
     atom   24 type  1   force =    -0.19367281    0.90268531    5.35635758
     atom   25 type  2   force =     0.36331202    0.25786556   39.24171753
     atom   26 type  2   force =    -0.30930054    0.07259175  -37.32819924
     atom   27 type  1   force =     0.17137353    0.82657329   -1.72677445
     atom   28 type  2   force =     0.06150235    0.94530002   38.28425004
[...]
     atom   27 type  1   force =    -0.00025693    0.01162631    0.00397482
     atom   28 type  2   force =    -0.00261914   -0.01510800   -0.27004626
     atom   29 type  2   force =     0.00076254   -0.01068638    0.26422456
     atom   30 type  1   force =     0.00534951    0.01404473    0.00770475
     atom   31 type  2   force =    -0.01163906    0.00281818   -0.26504670
     atom   32 type  2   force =     0.00311103   -0.01630277    0.26772436
     atom   33 type  1   force =     0.00043868    0.00517318    0.00160412
     atom   34 type  2   force =    -0.00819028   -0.00489988   -0.26534337
     atom   35 type  2   force =    -0.00048766   -0.00957012    0.26615414
     atom   36 type  3   force =     0.00498255   -0.01589187   -0.05743272
     The ionic contribution  to forces
     atom    1 type  1   force =    -0.01450388    0.91412591    2.02908223
     atom    2 type  2   force =    -0.14407199    0.33659203   38.98406958
     atom    3 type  2   force =     0.09775557   -0.16840259  -37.53415815
     atom    4 type  1   force =    -0.71241057    1.05497252    0.96773579
     atom    5 type  2   force =    -0.87237048    1.49947436   38.04399715
     atom    6 type  2   force =     0.25198285   -0.08899060  -37.99800485
     atom    7 type  1   force =    -2.29713849   -2.77558204    2.57159612
     atom    8 type  2   force =    -1.33830713    0.03836613   37.96360503
     atom    9 type  2   force =     0.24124459    0.09234782  -37.53523889
     atom   10 type  1   force =    -0.10994098   -0.82705534    3.77786766
     atom   11 type  2   force =    -0.28306197   -2.07467980   36.56912247
     atom   12 type  2   force =     0.29272602    0.19074356  -37.70917518
     atom   13 type  1   force =     0.03616060    0.54337167    1.74185156
     atom   14 type  2   force =    -0.10454005    0.20650586   38.57910955
     atom   15 type  2   force =     0.01750933   -0.15783696  -37.90830868
     atom   16 type  1   force =     0.90558145    3.86264059    0.35678773
     atom   17 type  2   force =     0.91494406    1.25803583   38.42159999
     atom   18 type  2   force =    -0.26182644   -0.25289526  -38.50783131
     atom   19 type  1   force =     2.52332447   -1.48643997    3.36574171
     atom   20 type  2   force =     0.15201725    0.09931306  -38.55374593
     atom   21 type  1   force =    -0.46902478   -0.77379784    0.41545525
     atom   22 type  2   force =     0.35749251   -1.57032671   38.36888424
     atom   23 type  2   force =    -0.26050792    0.06380667  -37.60616022
     atom   24 type  1   force =     0.01899435    0.32925925    2.40186762
     atom   25 type  2   force =     0.21055865    0.06768274   38.89632804
     atom   26 type  2   force =    -0.13854333   -0.26651850  -37.54165404
     atom   27 type  1   force =    -0.01471935    0.82511061    0.23295085
     atom   28 type  2   force =    -0.06183018    0.63325234   38.38885711
     atom   29 type  2   force =    -0.08030132   -0.01192740  -37.81522519
     atom   30 type  1   force =    -0.07941695   -0.74382996    2.39671254
     atom   31 type  2   force =     1.11361457    0.17637277   38.25601601
     atom   32 type  2   force =    -0.36290091    0.25460340  -37.73386979
     atom   33 type  1   force =     0.60532931   -0.77028315    3.36173060
     atom   34 type  2   force =     0.06813410   -0.65519251   38.99281262
     atom   35 type  2   force =    -0.05323789    0.03120021  -37.26097966
     atom   36 type  3   force =    -0.14871510    0.14598130    8.62057043
     The local contribution  to forces
     atom    1 type  1   force =     0.01654334   -0.94167150   -2.02130369
     atom    2 type  2   force =     0.14601351   -0.31851413  -38.74675186
     atom    3 type  2   force =    -0.09525490    0.17928751   37.28679598
     atom    4 type  1   force =     0.70796740   -1.05981764   -0.96884089
     atom    5 type  2   force =     0.86401119   -1.47741306  -37.81203406
     atom    6 type  2   force =    -0.24840087    0.09570702   37.75260035
     atom    7 type  1   force =     2.33074153    2.77949326   -2.55757966
     atom    8 type  2   force =     1.33655583   -0.03838641  -37.72549970
     atom    9 type  2   force =    -0.23255112   -0.07948971   37.28219986
     atom   10 type  1   force =     0.09861755    0.82029165   -3.77322718
     atom   11 type  2   force =     0.30776955    1.96996142  -36.79496057
     atom   12 type  2   force =    -0.28597850   -0.18006311   37.45699043
     atom   13 type  1   force =    -0.03683084   -0.57287415   -1.73992548
     atom   14 type  2   force =     0.10168351   -0.19235000  -38.34467388
     atom   15 type  2   force =    -0.01718743    0.16633460   37.66718221
     atom   16 type  1   force =    -0.91402278   -3.90771588   -0.33835295
     atom   17 type  2   force =    -0.91118897   -1.23201569  -38.18633429
     atom   18 type  2   force =     0.26348311    0.25886522   38.26788570
     atom   19 type  1   force =    -2.55963360    1.49603841   -3.33959378
     atom   20 type  2   force =    -0.15378996   -0.08693802   38.31243452
     atom   21 type  1   force =     0.47482502    0.75600372   -0.41144594
     atom   22 type  2   force =    -0.35728144    1.57054830  -38.13317193
     atom   23 type  2   force =     0.24883834   -0.05552838   37.35916023
     atom   24 type  1   force =    -0.02143639   -0.35426413   -2.40079212
     atom   25 type  2   force =    -0.20959755   -0.05504983  -38.65322723
     atom   26 type  2   force =     0.13595434    0.27656131   37.29458538
     atom   27 type  1   force =     0.01503315   -0.83676515   -0.23680746
     atom   28 type  2   force =     0.06400248   -0.61868706  -38.14034019
     atom   29 type  2   force =     0.07982863    0.02208475   37.57178918
     atom   30 type  1   force =     0.07415771    0.73020920   -2.40459596
     atom   31 type  2   force =    -1.10296040   -0.17948236  -38.01198694
     atom   32 type  2   force =     0.35995781   -0.23942870   37.48738138
     atom   33 type  1   force =    -0.60582193    0.76534071   -3.36347319
     atom   34 type  2   force =    -0.06054654    0.66005276  -38.74873104
     atom   35 type  2   force =     0.05347644   -0.02145668   37.01491933
     atom   36 type  3   force =     0.14379172   -0.13087329   -8.56361645
     The core correction contribution to forces
     atom    1 type  1   force =     0.00000000    0.00000000    0.00000000
     atom    2 type  2   force =     0.00011710    0.00129915    0.02029005
     atom    3 type  2   force =     0.00011353    0.00061984   -0.02103494
     atom    4 type  1   force =     0.00000000    0.00000000    0.00000000
     atom    5 type  2   force =    -0.00076933    0.00124229    0.02012302
     atom    6 type  2   force =     0.00028433    0.00005952   -0.02077267
     atom    7 type  1   force =     0.00000000    0.00000000    0.00000000
     atom    8 type  2   force =    -0.00018289    0.00000197    0.02032311
     atom    9 type  2   force =     0.00063563    0.00070588   -0.02102568
     atom   10 type  1   force =     0.00000000    0.00000000    0.00000000
     atom   11 type  2   force =     0.00174281   -0.00718203   -0.00885206
     atom   12 type  2   force =     0.00073368    0.00076066   -0.02121792
     atom   13 type  1   force =     0.00000000    0.00000000    0.00000000
     atom   14 type  2   force =    -0.00031299    0.00083065    0.02018155
     atom   15 type  2   force =     0.00003984    0.00052526   -0.02070438
     atom   16 type  1   force =     0.00000000    0.00000000    0.00000000
     atom   17 type  2   force =     0.00049642    0.00127655    0.02037508
     atom   18 type  2   force =    -0.00021830   -0.00015312   -0.02069715
     atom   19 type  1   force =     0.00000000    0.00000000    0.00000000
     atom   20 type  2   force =     0.00000364    0.00054898   -0.02117460
     atom   21 type  1   force =     0.00000000    0.00000000    0.00000000
     atom   22 type  2   force =    -0.00032751   -0.00034499    0.02007474
     atom   23 type  2   force =    -0.00086621    0.00045157   -0.02085690
     atom   24 type  1   force =     0.00000000    0.00000000    0.00000000
     atom   25 type  2   force =     0.00010851    0.00073466    0.02065660
     atom   26 type  2   force =    -0.00019901    0.00035374   -0.02094896
     atom   27 type  1   force =     0.00000000    0.00000000    0.00000000
     atom   28 type  2   force =     0.00019233    0.00103844    0.02098530
     atom   29 type  2   force =    -0.00006619    0.00032472   -0.02071793
     atom   30 type  1   force =     0.00000000    0.00000000    0.00000000
     atom   31 type  2   force =     0.00058473    0.00008976    0.02069573
     atom   32 type  2   force =    -0.00042885    0.00088668   -0.02083320
     atom   33 type  1   force =     0.00000000    0.00000000    0.00000000
     atom   34 type  2   force =     0.00054543    0.00007721    0.02072385
     atom   35 type  2   force =    -0.00005235    0.00057501   -0.02099308
     atom   36 type  3   force =     0.00000000    0.00000000    0.00000000
     The Hubbard contrib.    to forces
     atom    1 type  1   force =     0.00000000    0.00000000    0.00000000
     atom    2 type  2   force =     0.00000000    0.00000000    0.00000000
     atom    3 type  2   force =     0.00000000    0.00000000    0.00000000
     atom    4 type  1   force =     0.00000000    0.00000000    0.00000000
     atom    5 type  2   force =     0.00000000    0.00000000    0.00000000
     atom    6 type  2   force =     0.00000000    0.00000000    0.00000000
     atom    7 type  1   force =     0.00000000    0.00000000    0.00000000
     atom    8 type  2   force =     0.00000000    0.00000000    0.00000000
     atom    9 type  2   force =     0.00000000    0.00000000    0.00000000
     atom   10 type  1   force =     0.00000000    0.00000000    0.00000000
     atom   11 type  2   force =     0.00000000    0.00000000    0.00000000
     atom   12 type  2   force =     0.00000000    0.00000000    0.00000000
     atom   13 type  1   force =     0.00000000    0.00000000    0.00000000
     atom   14 type  2   force =     0.00000000    0.00000000    0.00000000
     atom   15 type  2   force =     0.00000000    0.00000000    0.00000000
     atom   16 type  1   force =     0.00000000    0.00000000    0.00000000
     atom   17 type  2   force =     0.00000000    0.00000000    0.00000000
     atom   18 type  2   force =     0.00000000    0.00000000    0.00000000
     atom   19 type  1   force =     0.00000000    0.00000000    0.00000000
     atom   20 type  2   force =     0.00000000    0.00000000    0.00000000
     atom   21 type  1   force =     0.00000000    0.00000000    0.00000000
     atom   22 type  2   force =     0.00000000    0.00000000    0.00000000
     atom   23 type  2   force =     0.00000000    0.00000000    0.00000000
     atom   24 type  1   force =     0.00000000    0.00000000    0.00000000
     atom   25 type  2   force =     0.00000000    0.00000000    0.00000000
     atom   26 type  2   force =     0.00000000    0.00000000    0.00000000
     atom   27 type  1   force =     0.00000000    0.00000000    0.00000000
     atom   28 type  2   force =     0.00000000    0.00000000    0.00000000
     atom   29 type  2   force =     0.00000000    0.00000000    0.00000000
     atom   30 type  1   force =     0.00000000    0.00000000    0.00000000
     atom   31 type  2   force =     0.00000000    0.00000000    0.00000000
     atom   32 type  2   force =     0.00000000    0.00000000    0.00000000
     atom   33 type  1   force =     0.00000000    0.00000000    0.00000000
     atom   34 type  2   force =     0.00000000    0.00000000    0.00000000
     atom   35 type  2   force =     0.00000000    0.00000000    0.00000000
     atom   36 type  3   force =     0.00000000    0.00000000    0.00000000
     The SCF correction term to forces
     atom    1 type  1   force =     0.00001347    0.00001262   -0.00005960
     atom    2 type  2   force =     0.00001078   -0.00000577   -0.00001354
     atom    3 type  2   force =     0.00000040    0.00000529   -0.00001178
     atom    4 type  1   force =     0.00000454    0.00000625   -0.00000187
     atom    5 type  2   force =     0.00002266    0.00001608   -0.00001038
     atom    6 type  2   force =     0.00000629   -0.00000263   -0.00001239
     atom    7 type  1   force =     0.00001343   -0.00000490    0.00001091
     atom    8 type  2   force =     0.00000607    0.00000055    0.00000769
     atom    9 type  2   force =     0.00000064   -0.00001186    0.00000814
     atom   10 type  1   force =     0.00001080   -0.00000975   -0.00001206
     atom   11 type  2   force =     0.00000545   -0.00001480   -0.00000831
     atom   12 type  2   force =    -0.00000458    0.00000956    0.00000170
     atom   13 type  1   force =    -0.00001106   -0.00000039   -0.00007185
     atom   14 type  2   force =     0.00000483   -0.00000839   -0.00002285
     atom   15 type  2   force =    -0.00000073   -0.00000458   -0.00001946
     atom   16 type  1   force =     0.00000231    0.00000838   -0.00004137
     atom   17 type  2   force =    -0.00000826    0.00001714   -0.00001390
     atom   18 type  2   force =    -0.00000264   -0.00000274   -0.00001882
     atom   19 type  1   force =    -0.00001532    0.00000330   -0.00000216
     atom   20 type  2   force =    -0.00000492   -0.00000187   -0.00000232
     atom   21 type  1   force =     0.00000170   -0.00001290   -0.00004212
     atom   22 type  2   force =    -0.00000700   -0.00001487   -0.00002140
     atom   23 type  2   force =     0.00000170    0.00000449    0.00000276
     atom   24 type  1   force =    -0.00000555    0.00001391   -0.00004209
     atom   25 type  2   force =    -0.00001412   -0.00000667   -0.00001620
     atom   26 type  2   force =    -0.00000165    0.00000218   -0.00001428
     atom   27 type  1   force =    -0.00002524    0.00001657   -0.00001901
     atom   28 type  2   force =    -0.00000732    0.00001872   -0.00001339
     atom   29 type  2   force =    -0.00000034   -0.00000343   -0.00000187
     atom   30 type  1   force =    -0.00000024   -0.00000564    0.00003239
     atom   31 type  2   force =    -0.00000872    0.00000375   -0.00000433
     atom   32 type  2   force =     0.00000703   -0.00000504    0.00000959
     atom   33 type  1   force =    -0.00000533   -0.00001843   -0.00002106
     atom   34 type  2   force =    -0.00000598   -0.00001693   -0.00000287
     atom   35 type  2   force =     0.00000193    0.00000723    0.00000539
     atom   36 type  3   force =     0.00000104   -0.00000338   -0.00000119

     Total force =     0.005219     Total SCF correction =     0.000162
     Energy error            =      6.8E-05 Ry
     Gradient error          =      1.4E-03 Ry/Bohr

     bfgs converged in  38 scf cycles and  37 bfgs steps
     (criteria: energy <  1.0E-04 Ry, force <  1.0E-02 Ry/Bohr)

     End of BFGS Geometry Optimization

     Final energy             =   -2205.5973582931 Ry

     File ./MoS2-V-O.bfgs deleted, as requested
Begin final coordinates

ATOMIC_POSITIONS (angstrom)
Mo            6.5262297431        1.7654893262        2.7422933770
S             8.1049838016        0.8906850211        4.3713744989
S             8.1150261096        0.8550687891        1.1704975510
Mo            8.0984550755        4.4887829749        2.7098291759
S             6.4680820152        3.6753731593        4.2808850812
S             6.5376122212        3.5709961650        1.0977551987
Mo            6.4777559918        7.2216850594        2.6644445555
S             8.0564720676        6.3052047966        4.2908798357
S             8.1108027158        6.3309525200        1.1176558426
Mo            8.1240794455        9.9715577250        2.7876512830
S             6.4829440163        9.0016547326        4.2824265175
S             6.5738450025        9.0650141899        1.1372271660
Mo            3.3892146716        1.7685558067        2.7360214317
S             4.9500394332        0.8516400141        4.3333136682
S             4.9610370823        0.8549272796        1.1382555919
Mo            4.9271396126        4.5189825029        2.6201154652
S             3.4200253658        3.6675085826        4.2941860931
S             3.3786804521        3.5621744827        1.0756106749
Mo            3.4645408163        7.1625785077        2.6762662513
S             4.9854616964        6.3205825034        1.0385201354
Mo            4.9572607797        9.9500655199        2.7210896398
S             3.4394156762        8.9512557923        4.3262933564
S             3.3734319882        9.0303191967        1.1319875040
Mo            0.2391172571        1.7601724498        2.7616183381
S             1.8295698907        0.8661760479        4.3623359384
S             1.8092480264        0.8397543214        1.1651043456
Mo            1.8242182922        4.4963892304        2.6983561004
S             0.2400784115        3.6166444780        4.3146552818
S             0.2289655913        3.5690675158        1.1302798859
Mo            0.2384092574        7.2278830322        2.7415317100
S             1.8843492051        6.2996313850        4.3024511008
S             1.8232916753        6.3380048789        1.1130478131
Mo            1.8240871787        9.9416311870        2.7744898952
S             0.2536687995        9.0348399652        4.3710505106
S             0.2381124028        9.0589807300        1.1838649355
H             6.3704507996        9.3652943191        5.6117217993
End final coordinates



     Writing all to output data dir ./MoS2-V-O.save/
 
     init_run     :      2.42s CPU      2.59s WALL (       1 calls)
     electrons    :   3463.94s CPU   3793.92s WALL (      38 calls)
     update_pot   :     51.62s CPU     53.74s WALL (      37 calls)
     forces       :     51.41s CPU     55.15s WALL (      38 calls)

     Called by init_run:
     wfcinit      :      0.39s CPU      0.43s WALL (       1 calls)
     potinit      :      1.34s CPU      1.41s WALL (       1 calls)
     hinit0       :      0.18s CPU      0.20s WALL (       1 calls)

     Called by electrons:
     c_bands      :    388.95s CPU    393.25s WALL (     315 calls)
     sum_band     :    101.02s CPU    110.38s WALL (     315 calls)
     v_of_rho     :    129.96s CPU    150.05s WALL (     335 calls)
     newd         :     53.47s CPU     60.15s WALL (     335 calls)
     mix_rho      :   2806.79s CPU   3094.72s WALL (     315 calls)

     Called by c_bands:
     init_us_2    :      6.91s CPU      7.17s WALL (     631 calls)
     init_us_2:cp :      6.90s CPU      7.16s WALL (     631 calls)
     regterg      :    366.01s CPU    370.04s WALL (     315 calls)

     Called by *egterg:
     rdiaghg      :     30.47s CPU     30.69s WALL (    1728 calls)
     h_psi        :    212.07s CPU    213.92s WALL (    1784 calls)
     s_psi        :     26.54s CPU     26.63s WALL (    1784 calls)
     g_psi        :      1.46s CPU      1.48s WALL (    1468 calls)

     Called by h_psi:
     h_psi:calbec :     28.77s CPU     28.88s WALL (    1784 calls)
     vloc_psi     :    153.98s CPU    155.56s WALL (    1784 calls)
     add_vuspsi   :     26.02s CPU     26.16s WALL (    1784 calls)

     General routines
     calbec       :     41.16s CPU     41.31s WALL (    2251 calls)
     fft          :     86.84s CPU    101.52s WALL (   22656 calls)
     ffts         :   1248.37s CPU   1525.64s WALL (  680577 calls)
     fftw         :    136.06s CPU    137.24s WALL (  194267 calls)
     interpolate  :      2.39s CPU      2.75s WALL (     335 calls)
 
     Parallel routines
 
     PWSCF        :  59m36.91s CPU      1h 5m WALL

 
   This run was terminated on:  10:56:46   4Nov2023            

=------------------------------------------------------------------------------=
   JOB DONE.
=------------------------------------------------------------------------------=
