
     Program PWSCF v.7.2 starts on  4Nov2023 at 11:52: 5 

     This program is part of the open-source Quantum ESPRESSO suite
     for quantum simulation of materials; please cite
         "P. Giannozzi et al., J. Phys.:Condens. Matter 21 395502 (2009);
         "P. Giannozzi et al., J. Phys.:Condens. Matter 29 465901 (2017);
         "P. Giannozzi et al., J. Chem. Phys. 152 154105 (2020);
          URL http://www.quantum-espresso.org", 
     in publications or presentations arising from this work. More details at
     http://www.quantum-espresso.org/quote

     Parallel version (MPI & OpenMP), running on      48 processor cores
     Number of MPI processes:                48
     Threads/MPI process:                     1

     MPI processes distributed on     1 nodes
     512 MiB available memory on the printing compute node when the environment starts
 
     Waiting for input...
     Reading input from standard input
Warning: card &CELL ignored
Warning: card CELL_DYNAMICS = 'BFGS', ignored
Warning: card CELL_DOFREE = '2DXY' ignored
Warning: card / ignored

     Current dimensions of program PWSCF are:
     Max number of different atomic species (ntypx) = 10
     Max number of k-points (npk) =  40000
     Max angular momentum in pseudopotentials (lmaxx) =  4

     IMPORTANT: XC functional enforced from input :
     Exchange-correlation= RVV10
                           (   1   4  13   4  26   0   0)
     Any further DFT definition will be discarded
     Please, verify this is what you really want


     gamma-point specific algorithms are used
     signal trapping enabled: kill the code with -SIGUSR1 to stop cleanly the simulation 
 
     R & G space division:  proc/nbgrp/npool/nimage =      48
     Subspace diagonalization in iterative solution of the eigenvalue problem:
     one sub-group per band group will be used
     scalapack distributed-memory algorithm (size of sub-group:  2*  2 procs)

 
     Parallelization info
     --------------------
     sticks:   dense  smooth     PW     G-vecs:    dense   smooth      PW
     Min         243     194     47                49060    35090    4376
     Max         246     196     50                49086    35128    4410
     Sum       11735    9389   2349              2355467  1685513  210763
 
     Using Slab Decomposition
 


     bravais-lattice index     =            0
     lattice parameter (alat)  =      17.8707  a.u.
     unit-cell volume          =   17436.2743 (a.u.)^3
     number of atoms/cell      =           36
     number of atomic types    =            3
     number of electrons       =       307.00
     number of Kohn-Sham states=          185
     kinetic-energy cutoff     =      80.0000  Ry
     charge density cutoff     =     400.0000  Ry
     scf convergence threshold =      1.0E-06
     mixing beta               =       0.7000
     number of iterations used =            8  local-TF  mixing
     energy convergence thresh.=      1.0E-04
     force convergence thresh. =      1.0E-02
     Exchange-correlation= RVV10
                           (   1   4  13   4  26   0   0)
     nstep                     =          200


     celldm(1)=  17.870686  celldm(2)=   0.000000  celldm(3)=   0.000000
     celldm(4)=   0.000000  celldm(5)=   0.000000  celldm(6)=   0.000000

     crystal axes: (cart. coord. in units of alat)
               a(1) = (   1.000000   0.000000   0.000000 )  
               a(2) = (   0.000000   1.155671   0.000000 )  
               a(3) = (   0.000000   0.000000   2.643601 )  

     reciprocal axes: (cart. coord. in units 2 pi/alat)
               b(1) = (  1.000000  0.000000  0.000000 )  
               b(2) = (  0.000000  0.865298  0.000000 )  
               b(3) = (  0.000000  0.000000  0.378272 )  


     PseudoPot. # 1 for Mo read from file:
     ../pseudo/Mo_ONCV_PBE-1.0.oncvpsp.upf
     MD5 check sum: 1b5d28e075c9ccadda658a603575cd1f
     Pseudo is Norm-conserving, Zval = 14.0
     Generated using ONCVPSP code by D. R. Hamann
     Using radial grid of 1526 points,  6 beta functions with: 
                l(1) =   0
                l(2) =   0
                l(3) =   1
                l(4) =   1
                l(5) =   2
                l(6) =   2

     PseudoPot. # 2 for S  read from file:
     ../pseudo/s_pbe_v1.4.uspp.F.UPF
     MD5 check sum: 88d86576ff6df21479756cfb9bdac1df
     Pseudo is Ultrasoft + core correction, Zval =  6.0
     Generated by new atomic code, or converted to UPF format
     Using radial grid of  907 points,  6 beta functions with: 
                l(1) =   0
                l(2) =   0
                l(3) =   1
                l(4) =   1
                l(5) =   2
                l(6) =   2
     Q(r) pseudized with  8 coefficients,  rinner =    1.300   1.300   1.300
                                                       1.300   1.300

     PseudoPot. # 3 for H  read from file:
     ../pseudo/H_ONCV_PBE-1.0.oncvpsp.upf
     MD5 check sum: 1790becc920ee074925cf490c71280fe
     Pseudo is Norm-conserving, Zval =  1.0
     Generated using ONCVPSP code by D. R. Hamann
     Using radial grid of 1166 points,  2 beta functions with: 
                l(1) =   0
                l(2) =   0

     atomic species   valence    mass     pseudopotential
        Mo            14.00    95.94000     Mo( 1.00)
        S              6.00    32.06500     S ( 1.00)
        H              1.00     1.00794     H ( 1.00)

     No symmetry found



   Cartesian axes

     site n.     atom                  positions (alat units)
         1           Mo  tau(   1) = (   0.6952221   0.1890506   0.2985846  )
         2           S   tau(   2) = (   0.8646417   0.0856217   0.4689279  )
         3           S   tau(   3) = (   0.8663890   0.0857843   0.1351291  )
         4           Mo  tau(   4) = (   0.8560186   0.4753274   0.2873942  )
         5           S   tau(   5) = (   0.6873294   0.3936244   0.4596353  )
         6           S   tau(   6) = (   0.6929804   0.3713468   0.1185692  )
         7           Mo  tau(   7) = (   0.6862796   0.7633098   0.2825370  )
         8           S   tau(   8) = (   0.8545980   0.6708292   0.4486168  )
         9           S   tau(   9) = (   0.8545123   0.6666874   0.1146125  )
        10           Mo  tau(  10) = (   0.8629403   1.0471007   0.3006803  )
        11           S   tau(  11) = (   0.6868280   0.9456650   0.4634891  )
        12           S   tau(  12) = (   0.6998113   0.9568511   0.1205389  )
        13           Mo  tau(  13) = (   0.3618216   0.1847309   0.2935964  )
        14           S   tau(  14) = (   0.5260962   0.0863870   0.4600448  )
        15           S   tau(  15) = (   0.5348379   0.0894875   0.1297123  )
        16           Mo  tau(  16) = (   0.5265817   0.4772436   0.2784130  )
        17           S   tau(  17) = (   0.3624753   0.3882513   0.4525556  )
        18           S   tau(  18) = (   0.3635411   0.3752055   0.1119148  )
        19           Mo  tau(  19) = (   0.3652268   0.7630864   0.2781795  )
        20           S   tau(  20) = (   0.5269494   0.6690381   0.1096838  )
        21           Mo  tau(  21) = (   0.5300192   1.0470394   0.2900995  )
        22           S   tau(  22) = (   0.3670346   0.9457522   0.4574073  )
        23           S   tau(  23) = (   0.3604225   0.9585725   0.1159032  )
        24           Mo  tau(  24) = (   0.0313099   0.1847895   0.3013130  )
        25           S   tau(  25) = (   0.1956761   0.0838230   0.4650863  )
        26           S   tau(  26) = (   0.1967693   0.0903508   0.1278874  )
        27           Mo  tau(  27) = (   0.1967578   0.4753919   0.2813011  )
        28           S   tau(  28) = (   0.0287851   0.3864324   0.4586755  )
        29           S   tau(  29) = (   0.0244514   0.3729871   0.1239344  )
        30           Mo  tau(  30) = (   0.0286728   0.7631204   0.2856894  )
        31           S   tau(  31) = (   0.2011512   0.6675435   0.4465001  )
        32           S   tau(  32) = (   0.1969214   0.6672839   0.1104564  )
        33           Mo  tau(  33) = (   0.1950294   1.0511147   0.2932237  )
        34           S   tau(  34) = (   0.0312912   0.9612169   0.4667423  )
        35           S   tau(  35) = (   0.0292670   0.9563028   0.1216485  )
        36           H   tau(  36) = (   1.0000000   0.0000000   0.5407634  )

     number of k points=     1  Gaussian smearing, width (Ry)=  0.0100
                       cart. coord. in units 2pi/alat
        k(    1) = (   0.0000000   0.0000000   0.0000000), wk =   2.0000000

     Dense  grid:  1177734 G-vectors     FFT dimensions: ( 120, 135, 320)

     Smooth grid:   842757 G-vectors     FFT dimensions: ( 108, 120, 270)

     Estimated max dynamical RAM per process >     146.59 MB

     Estimated total dynamical RAM >       6.87 GB

     Initial potential from superposition of free atoms

     starting charge     306.9873, renormalised to     307.0000

     negative rho (up, down):  1.419E-04 0.000E+00


---------------------------------------------------------------------------------
Carrying out rVV10 run using the following parameters:
Nqs =      20    Nr_points =    1024   r_max =   100.000
b_value =  6.30000    beta =  0.00901
     q_mesh =  0.00010000  0.00030000  0.00058939  0.00100810
               0.00161396  0.00249058  0.00375900  0.00559430
               0.00824984  0.01209221  0.01765183  0.02569619
               0.03733578  0.05417739  0.07854596  0.11380545
               0.16482331  0.23864234  0.34545298  0.50000000

Gradients computed in Reciprocal space

---------------------------------------------------------------------------------


     Starting wfcs are  213 randomized atomic wfcs

     total cpu time spent up to now is        4.1 secs

     Self-consistent Calculation

     iteration #  1     ecut=    80.00 Ry     beta= 0.70
     Davidson diagonalization with overlap
     ethr =  1.00E-02,  avg # of iterations =  2.0

     Threshold (ethr) on eigenvalues was too large:
     Diagonalizing with lowered threshold

     Davidson diagonalization with overlap
     ethr =  3.48E-04,  avg # of iterations =  4.0

     negative rho (up, down):  1.178E-08 0.000E+00

     total cpu time spent up to now is       25.3 secs

     total energy              =   -2205.60208390 Ry
     estimated scf accuracy    <       1.36037042 Ry

     iteration #  2     ecut=    80.00 Ry     beta= 0.70
     Davidson diagonalization with overlap
     ethr =  4.43E-04,  avg # of iterations =  1.0

     total cpu time spent up to now is       27.6 secs

     total energy              =   -2205.42634815 Ry
     estimated scf accuracy    <       0.56278099 Ry

     iteration #  3     ecut=    80.00 Ry     beta= 0.70
     Davidson diagonalization with overlap
     ethr =  1.83E-04,  avg # of iterations =  4.0

     total cpu time spent up to now is       30.2 secs

     total energy              =   -2205.52993191 Ry
     estimated scf accuracy    <       0.05441144 Ry

     iteration #  4     ecut=    80.00 Ry     beta= 0.70
     Davidson diagonalization with overlap
     c_bands:  1 eigenvalues not converged
     ethr =  1.77E-05,  avg # of iterations = 20.0

     total cpu time spent up to now is       33.6 secs

     total energy              =   -2205.53023104 Ry
     estimated scf accuracy    <       0.02608478 Ry

     iteration #  5     ecut=    80.00 Ry     beta= 0.70
     Davidson diagonalization with overlap
     ethr =  8.50E-06,  avg # of iterations =  3.0

     total cpu time spent up to now is       36.0 secs

     total energy              =   -2205.53084688 Ry
     estimated scf accuracy    <       0.02072860 Ry

     iteration #  6     ecut=    80.00 Ry     beta= 0.70
     Davidson diagonalization with overlap
     ethr =  6.75E-06,  avg # of iterations =  2.0

     total cpu time spent up to now is       38.3 secs

     total energy              =   -2205.52928054 Ry
     estimated scf accuracy    <       0.01280789 Ry

     iteration #  7     ecut=    80.00 Ry     beta= 0.70
     Davidson diagonalization with overlap
     ethr =  4.17E-06,  avg # of iterations =  2.0

     negative rho (up, down):  1.384E-05 0.000E+00

     total cpu time spent up to now is       43.7 secs

     total energy              =   -2205.52784037 Ry
     estimated scf accuracy    <       0.00657834 Ry

     iteration #  8     ecut=    80.00 Ry     beta= 0.70
     Davidson diagonalization with overlap
     ethr =  2.14E-06,  avg # of iterations =  2.0

     negative rho (up, down):  1.447E-02 0.000E+00

     total cpu time spent up to now is       48.3 secs

     total energy              =   -2205.52756747 Ry
     estimated scf accuracy    <       0.00327996 Ry

     iteration #  9     ecut=    80.00 Ry     beta= 0.70
     Davidson diagonalization with overlap
     ethr =  1.07E-06,  avg # of iterations =  2.0

     negative rho (up, down):  3.340E-02 0.000E+00

     total cpu time spent up to now is       52.6 secs

     total energy              =   -2205.52760106 Ry
     estimated scf accuracy    <       0.00182235 Ry

     iteration # 10     ecut=    80.00 Ry     beta= 0.70
     Davidson diagonalization with overlap
     ethr =  5.94E-07,  avg # of iterations =  2.0

     negative rho (up, down):  2.763E-02 0.000E+00

     total cpu time spent up to now is       58.1 secs

     total energy              =   -2205.52765453 Ry
     estimated scf accuracy    <       0.00054536 Ry

     iteration # 11     ecut=    80.00 Ry     beta= 0.70
     Davidson diagonalization with overlap
     ethr =  1.78E-07,  avg # of iterations =  4.0

     negative rho (up, down):  1.104E-02 0.000E+00

     total cpu time spent up to now is       64.7 secs

     total energy              =   -2205.52768668 Ry
     estimated scf accuracy    <       0.00013218 Ry

     iteration # 12     ecut=    80.00 Ry     beta= 0.70
     Davidson diagonalization with overlap
     ethr =  4.31E-08,  avg # of iterations =  4.0

     negative rho (up, down):  2.962E-03 0.000E+00

     total cpu time spent up to now is       70.7 secs

     total energy              =   -2205.52773901 Ry
     estimated scf accuracy    <       0.00001669 Ry

     iteration # 13     ecut=    80.00 Ry     beta= 0.70
     Davidson diagonalization with overlap
     c_bands:  2 eigenvalues not converged
     ethr =  5.44E-09,  avg # of iterations = 20.0

     negative rho (up, down):  4.429E-04 0.000E+00

     total cpu time spent up to now is       79.6 secs

     total energy              =   -2205.52774645 Ry
     estimated scf accuracy    <       0.00000241 Ry

     iteration # 14     ecut=    80.00 Ry     beta= 0.70
     Davidson diagonalization with overlap
     ethr =  7.86E-10,  avg # of iterations = 11.0

     negative rho (up, down):  1.382E-04 0.000E+00

     total cpu time spent up to now is       82.2 secs

     End of self-consistent calculation

          k = 0.0000 0.0000 0.0000 (105382 PWs)   bands (ev):

   -62.8866 -62.8635 -62.8523 -62.8278 -62.8089 -62.7982 -62.7929 -62.7836
   -62.7766 -62.7556 -62.7511 -62.7352 -37.2220 -37.1544 -37.1282 -37.1254
   -37.1190 -37.0904 -37.0758 -37.0648 -37.0539 -37.0514 -37.0400 -37.0291
   -37.0220 -37.0168 -37.0038 -36.9926 -36.9873 -36.9832 -36.9730 -36.9652
   -36.9538 -36.9424 -36.9252 -36.9235 -36.9145 -36.9109 -36.9021 -36.8905
   -36.8858 -36.8645 -36.8470 -36.8344 -36.8122 -36.7845 -36.7237 -36.6998
   -16.0670 -15.3445 -15.1700 -15.0499 -14.9772 -14.8129 -14.6148 -14.5214
   -14.4779 -14.4367 -14.4053 -14.3729 -14.3365 -14.2773 -14.1692 -14.1473
   -14.1199 -14.0905 -14.0184 -13.9586 -13.8405 -13.8228 -13.7939  -8.4652
    -7.6058  -7.4706  -7.2777  -7.2557  -7.2087  -7.1826  -7.1291  -6.8938
    -6.8387  -6.8012  -6.7586  -6.7338  -6.5624  -6.4953  -6.4620  -6.4407
    -6.3712  -6.2492  -6.0169  -5.9981  -5.9191  -5.8531  -5.8296  -5.8036
    -5.7752  -5.7420  -5.6610  -5.6473  -5.6047  -5.5661  -5.5273  -5.4598
    -5.4214  -5.3637  -5.1830  -5.1748  -5.0614  -5.0593  -4.9781  -4.9441
    -4.9303  -4.8205  -4.6451  -4.5054  -4.3623  -4.3208  -4.2725  -4.2550
    -4.2187  -4.0709  -4.0255  -3.9607  -3.8143  -3.7555  -3.7320  -3.6966
    -3.6611  -3.5771  -3.5472  -3.5302  -3.5025  -3.4799  -3.4422  -3.3767
    -3.3689  -3.2065  -3.1287  -2.9029  -2.8809  -2.7915  -2.7679  -2.7291
    -2.7101  -2.6773  -2.6442  -2.6183  -2.5601  -2.2782  -2.0310  -1.9848
    -1.9700  -1.0353  -0.7545  -0.7017  -0.1673  -0.1290  -0.0495  -0.0319
     0.1209   0.1439   0.1975   0.2377   0.2566   0.2811   0.3820   0.4171
     0.4670   0.5380   0.5513   0.5793   0.6251   0.6840   0.7172   0.7509
     0.7814   0.7959   0.8717   0.8923   0.9483   1.0060   1.0471   1.3614
     1.3949

     the Fermi energy is    -1.0357 ev

!    total energy              =   -2205.52774984 Ry
     estimated scf accuracy    <       0.00000050 Ry
     smearing contrib. (-TS)   =      -0.00573407 Ry
     internal energy E=F+TS    =   -2205.52201577 Ry

     The total energy is F=E-TS. E is the sum of the following terms:
     one-electron contribution =  -18055.62440976 Ry
     hartree contribution      =    9014.63846329 Ry
     xc contribution           =    -385.29757876 Ry
     ewald contribution        =    7220.76150946 Ry

     convergence has been achieved in  14 iterations

     negative rho (up, down):  1.382E-04 0.000E+00

     Forces acting on atoms (cartesian axes, Ry/au):

     atom    1 type  1   force =    -0.00820257   -0.00504826   -0.02211313
     atom    2 type  2   force =     0.03796325   -0.01814592    0.04155694
     atom    3 type  2   force =    -0.01270784    0.00958076   -0.00324863
     atom    4 type  1   force =     0.00610175   -0.00519405   -0.00136648
     atom    5 type  2   force =    -0.00269800   -0.00377599   -0.00679580
     atom    6 type  2   force =    -0.00032265    0.00798340    0.00301460
     atom    7 type  1   force =     0.00114694   -0.00676742   -0.00993898
     atom    8 type  2   force =     0.00113785   -0.00555821    0.01826824
     atom    9 type  2   force =     0.01433029    0.00735640    0.01321552
     atom   10 type  1   force =    -0.01776471    0.00064750   -0.04413683
     atom   11 type  2   force =     0.00380065   -0.00222233   -0.00643030
     atom   12 type  2   force =    -0.00271541   -0.00044312    0.00729783
     atom   13 type  1   force =     0.01080979    0.00970864   -0.00903640
     atom   14 type  2   force =     0.00782841   -0.00082353    0.01069200
     atom   15 type  2   force =    -0.01079975   -0.00001241   -0.00958694
     atom   16 type  1   force =    -0.00052144    0.01000271    0.00545489
     atom   17 type  2   force =     0.00653391    0.00177033   -0.00049528
     atom   18 type  2   force =    -0.00294713   -0.00659759    0.01481300
     atom   19 type  1   force =     0.00937612   -0.00873121   -0.00388223
     atom   20 type  2   force =     0.00320278   -0.00451881    0.00142437
     atom   21 type  1   force =    -0.00341276    0.00799076   -0.00135049
     atom   22 type  2   force =    -0.00222538   -0.00197544   -0.00255526
     atom   23 type  2   force =     0.00076432   -0.00030077    0.00851755
     atom   24 type  1   force =    -0.00692342    0.00624326   -0.03653986
     atom   25 type  2   force =     0.00897053    0.01316619    0.01003476
     atom   26 type  2   force =    -0.01181315   -0.00042237   -0.00465633
     atom   27 type  1   force =    -0.00192478   -0.00565752    0.00621998
     atom   28 type  2   force =     0.00164853    0.00042354   -0.00511739
     atom   29 type  2   force =     0.00297143    0.00062798   -0.00088948
     atom   30 type  1   force =    -0.00506972    0.00314443   -0.02153017
     atom   31 type  2   force =     0.00142368   -0.00061396    0.01652079
     atom   32 type  2   force =    -0.01108425    0.00730805    0.00933288
     atom   33 type  1   force =     0.01419583   -0.00549704   -0.01113413
     atom   34 type  2   force =     0.00259899   -0.02121961    0.00605283
     atom   35 type  2   force =    -0.00831255    0.00686164    0.01333977
     atom   36 type  3   force =    -0.02535953    0.01070996    0.01504816
     The non-local contrib.  to forces
     atom    1 type  1   force =     0.00572088    0.02388620   -0.00778714
     atom    2 type  2   force =     0.14814804   -0.08730858   -0.13224151
     atom    3 type  2   force =    -0.01353754   -0.00306627    0.27312709
     atom    4 type  1   force =    -0.00009189    0.00922305    0.00501405
     atom    5 type  2   force =     0.00403812   -0.02691572   -0.24727143
     atom    6 type  2   force =    -0.00406818    0.00813612    0.26448664
     atom    7 type  1   force =    -0.02163347   -0.00639633   -0.02016164
     atom    8 type  2   force =     0.00201968   -0.00421128   -0.25242249
     atom    9 type  2   force =     0.00782328   -0.00982998    0.27676514
     atom   10 type  1   force =     0.00596939    0.00347783    0.00525062
     atom   11 type  2   force =     0.01448901    0.00797128   -0.25672180
     atom   12 type  2   force =    -0.01434199   -0.01671810    0.26202136
     atom   13 type  1   force =    -0.00292996    0.01866643   -0.00753905
     atom   14 type  2   force =     0.00646528   -0.01147729   -0.25034325
     atom   15 type  2   force =    -0.01310718   -0.00289304    0.26338974
     atom   16 type  1   force =     0.00016625    0.02918019   -0.03165231
     atom   17 type  2   force =     0.00230836   -0.02735842   -0.24782540
     atom   18 type  2   force =    -0.00371072   -0.00438455    0.27381410
     atom   19 type  1   force =     0.01687374   -0.00666949   -0.01644394
     atom   20 type  2   force =    -0.00037379   -0.02204717    0.26595993
     atom   21 type  1   force =     0.00120301    0.02105211    0.00749467
     atom   22 type  2   force =    -0.00607233    0.00596529   -0.25770921
     atom   23 type  2   force =     0.00876938   -0.01461980    0.26750896
     atom   24 type  1   force =     0.00004539    0.01514236   -0.00422883
     atom   25 type  2   force =    -0.00662172   -0.00606193   -0.22369888
     atom   26 type  2   force =    -0.00287648   -0.01242004    0.26356660
     atom   27 type  1   force =    -0.00150072    0.01116838    0.00963654
     atom   28 type  2   force =    -0.00327075   -0.02659847   -0.27066149
     atom   29 type  2   force =     0.00703665    0.00224968    0.26392228
     atom   30 type  1   force =     0.00292229    0.01859488    0.00309879
     atom   31 type  2   force =    -0.00597984    0.00058810   -0.25165794
     atom   32 type  2   force =    -0.00343048   -0.01053680    0.27313948
     atom   33 type  1   force =    -0.00707198    0.00542781    0.00850133
     atom   34 type  2   force =     0.00147892    0.02149453   -0.21850175
     atom   35 type  2   force =    -0.00301322   -0.00979925    0.27181572
     atom   36 type  3   force =    -0.01403434    0.00684173   -0.01088735
     The ionic contribution  to forces
     atom    1 type  1   force =     0.16839501    0.40659384    5.54691753
     atom    2 type  2   force =    -1.57974463    0.99083407   38.81342831
     atom    3 type  2   force =    -0.20850441    0.04813028  -36.20183193
     atom    4 type  1   force =     0.04031349    0.68917824    0.64337486
     atom    5 type  2   force =    -1.01874099    1.57344331   38.75282877
     atom    6 type  2   force =     0.32758668   -0.47134403  -38.03082734
     atom    7 type  1   force =    -2.69263068   -2.89239015    2.54875505
     atom    8 type  2   force =    -1.01661485   -0.03311271   37.39159393
     atom    9 type  2   force =     0.33097641   -0.05350317  -38.00621503
     atom   10 type  1   force =    -1.50929221   -0.65636201    4.99431531
     atom   11 type  2   force =    -0.71312910   -1.73192309   39.11759195
     atom   12 type  2   force =     0.40945343    0.65983378  -37.88761431
     atom   13 type  1   force =     0.63878317    1.11944091    2.75291977
     atom   14 type  2   force =     0.03123726    0.02774246   38.51081231
     atom   15 type  2   force =     0.14874321   -0.05044318  -36.82791314
     atom   16 type  1   force =    -0.03160261    3.99963008    0.50514822
     atom   17 type  2   force =     0.85307627    1.56534430   37.93952376
     atom   18 type  2   force =    -0.14738932   -0.62089784  -38.56580816
     atom   19 type  1   force =     2.77874725   -2.54094289    0.64611447
     atom   20 type  2   force =     0.22707004   -0.20721922  -38.46659423
     atom   21 type  1   force =    -0.00166533   -0.01725516    1.09472180
     atom   22 type  2   force =     0.56084444   -1.80712770   38.41948620
     atom   23 type  2   force =    -0.06151220    0.63844457  -38.31278027
     atom   24 type  1   force =    -0.46358512    1.67065455    5.22397535
     atom   25 type  2   force =     1.25871532    0.54772755   39.05357531
     atom   26 type  2   force =    -0.23930390    0.09180680  -37.42043278
     atom   27 type  1   force =     0.08362096    0.50010310   -2.27002988
     atom   28 type  2   force =     0.06552966    1.18823872   38.18743855
     atom   29 type  2   force =    -0.26236477   -0.38104469  -37.29409304
     atom   30 type  1   force =    -0.32349437   -1.12405327   -0.13348977
     atom   31 type  2   force =     1.26208718   -0.10617699   37.33234212
     atom   32 type  2   force =    -0.46835170   -0.02174522  -38.63499641
     atom   33 type  1   force =     1.18936184   -1.08543253    1.60290703
     atom   34 type  2   force =     0.35979452   -2.20378391   39.08754858
     atom   35 type  2   force =    -0.29280571    0.41990783  -37.90290419
     atom   36 type  3   force =     0.29639575   -0.13229664    7.79021130
     The local contribution  to forces
     atom    1 type  1   force =    -0.18255875   -0.43535174   -5.56091719
     atom    2 type  2   force =     1.47938371   -0.92744569  -38.65217416
     atom    3 type  2   force =     0.20868920   -0.03550925   35.94698091
     atom    4 type  1   force =    -0.03414912   -0.70359862   -0.64925265
     atom    5 type  2   force =     1.01258722   -1.55196656  -38.53254251
     atom    6 type  2   force =    -0.32426581    0.47220012   37.79077295
     atom    7 type  1   force =     2.71573149    2.89233444   -2.53820024
     atom    8 type  2   force =     1.01590985    0.03127743  -37.14126525
     atom    9 type  2   force =    -0.32422922    0.07011141   37.76405121
     atom   10 type  1   force =     1.48569723    0.65333389   -5.04309872
     atom   11 type  2   force =     0.70318606    1.72252216  -38.88782036
     atom   12 type  2   force =    -0.39909265   -0.64500075   37.65414914
     atom   13 type  1   force =    -0.62496031   -1.12843949   -2.75386566
     atom   14 type  2   force =    -0.02942771   -0.01718551  -38.26992841
     atom   15 type  2   force =    -0.14713651    0.05308888   36.57610501
     atom   16 type  1   force =     0.03091738   -4.01931363   -0.46774679
     atom   17 type  2   force =    -0.84885123   -1.53767472  -37.71244719
     atom   18 type  2   force =     0.14814197    0.61920968   38.32826485
     atom   19 type  1   force =    -2.78669587    2.53913693   -0.63323732
     atom   20 type  2   force =    -0.22371102    0.22391621   38.22357568
     atom   21 type  1   force =    -0.00302015    0.00409661   -1.10297645
     atom   22 type  2   force =    -0.55717833    1.79978203  -38.18491871
     atom   23 type  2   force =     0.05415074   -0.62551002   38.07519711
     atom   24 type  1   force =     0.45663676   -1.67953584   -5.25569700
     atom   25 type  2   force =    -1.24426382   -0.52883717  -38.83859991
     atom   26 type  2   force =     0.23054227   -0.08049885   37.17355121
     atom   27 type  1   force =    -0.08402548   -0.51674382    2.26707920
     atom   28 type  2   force =    -0.06088183   -1.16314880  -37.94265883
     atom   29 type  2   force =     0.25888859    0.38012707   37.05033196
     atom   30 type  1   force =     0.31563791    1.10867014    0.10930052
     atom   31 type  2   force =    -1.25513340    0.10498425  -37.08474320
     atom   32 type  2   force =     0.46081406    0.03902094   38.39267649
     atom   33 type  1   force =    -1.16813225    1.07427474   -1.62195048
     atom   34 type  2   force =    -0.35912098    2.16359681  -38.88107219
     atom   35 type  2   force =     0.28758110   -0.40432586   37.66605270
     atom   36 type  3   force =    -0.30771837    0.13614563   -7.76425469
     The core correction contribution to forces
     atom    1 type  1   force =     0.00000000    0.00000000    0.00000000
     atom    2 type  2   force =    -0.00980751    0.00572742    0.01254573
     atom    3 type  2   force =     0.00062189    0.00003938   -0.02103906
     atom    4 type  1   force =     0.00000000    0.00000000    0.00000000
     atom    5 type  2   force =    -0.00053400    0.00161403    0.02006201
     atom    6 type  2   force =     0.00038011   -0.00098522   -0.02092979
     atom    7 type  1   force =     0.00000000    0.00000000    0.00000000
     atom    8 type  2   force =    -0.00003967    0.00049895    0.02029783
     atom    9 type  2   force =    -0.00016032    0.00058527   -0.02098720
     atom   10 type  1   force =     0.00000000    0.00000000    0.00000000
     atom   11 type  2   force =    -0.00071656   -0.00070583    0.02045727
     atom   12 type  2   force =     0.00125436    0.00139821   -0.02078460
     atom   13 type  1   force =     0.00000000    0.00000000    0.00000000
     atom   14 type  2   force =    -0.00042507    0.00005937    0.02004548
     atom   15 type  2   force =     0.00073694    0.00025798   -0.02064593
     atom   16 type  1   force =     0.00000000    0.00000000    0.00000000
     atom   17 type  2   force =    -0.00001095    0.00147254    0.02014336
     atom   18 type  2   force =     0.00005206   -0.00042192   -0.02102956
     atom   19 type  1   force =     0.00000000    0.00000000    0.00000000
     atom   20 type  2   force =     0.00013220    0.00083055   -0.02118922
     atom   21 type  1   force =     0.00000000    0.00000000    0.00000000
     atom   22 type  2   force =     0.00015056   -0.00059359    0.02046132
     atom   23 type  2   force =    -0.00066117    0.00125496   -0.02088159
     atom   24 type  1   force =     0.00000000    0.00000000    0.00000000
     atom   25 type  2   force =     0.00113399    0.00030014    0.01869139
     atom   26 type  2   force =    -0.00015989    0.00067041   -0.02085455
     atom   27 type  1   force =     0.00000000    0.00000000    0.00000000
     atom   28 type  2   force =     0.00024765    0.00192889    0.02072519
     atom   29 type  2   force =    -0.00058353   -0.00061669   -0.02060013
     atom   30 type  1   force =     0.00000000    0.00000000    0.00000000
     atom   31 type  2   force =     0.00038326    0.00005120    0.02042690
     atom   32 type  2   force =    -0.00010648    0.00063081   -0.02100924
     atom   33 type  1   force =     0.00000000    0.00000000    0.00000000
     atom   34 type  2   force =     0.00043239   -0.00255635    0.01799517
     atom   35 type  2   force =    -0.00004461    0.00093198   -0.02109391
     atom   36 type  3   force =     0.00000000    0.00000000    0.00000000
     The Hubbard contrib.    to forces
     atom    1 type  1   force =     0.00000000    0.00000000    0.00000000
     atom    2 type  2   force =     0.00000000    0.00000000    0.00000000
     atom    3 type  2   force =     0.00000000    0.00000000    0.00000000
     atom    4 type  1   force =     0.00000000    0.00000000    0.00000000
     atom    5 type  2   force =     0.00000000    0.00000000    0.00000000
     atom    6 type  2   force =     0.00000000    0.00000000    0.00000000
     atom    7 type  1   force =     0.00000000    0.00000000    0.00000000
     atom    8 type  2   force =     0.00000000    0.00000000    0.00000000
     atom    9 type  2   force =     0.00000000    0.00000000    0.00000000
     atom   10 type  1   force =     0.00000000    0.00000000    0.00000000
     atom   11 type  2   force =     0.00000000    0.00000000    0.00000000
     atom   12 type  2   force =     0.00000000    0.00000000    0.00000000
     atom   13 type  1   force =     0.00000000    0.00000000    0.00000000
     atom   14 type  2   force =     0.00000000    0.00000000    0.00000000
     atom   15 type  2   force =     0.00000000    0.00000000    0.00000000
     atom   16 type  1   force =     0.00000000    0.00000000    0.00000000
     atom   17 type  2   force =     0.00000000    0.00000000    0.00000000
     atom   18 type  2   force =     0.00000000    0.00000000    0.00000000
     atom   19 type  1   force =     0.00000000    0.00000000    0.00000000
     atom   20 type  2   force =     0.00000000    0.00000000    0.00000000
     atom   21 type  1   force =     0.00000000    0.00000000    0.00000000
     atom   22 type  2   force =     0.00000000    0.00000000    0.00000000
     atom   23 type  2   force =     0.00000000    0.00000000    0.00000000
     atom   24 type  1   force =     0.00000000    0.00000000    0.00000000
     atom   25 type  2   force =     0.00000000    0.00000000    0.00000000
     atom   26 type  2   force =     0.00000000    0.00000000    0.00000000
     atom   27 type  1   force =     0.00000000    0.00000000    0.00000000
     atom   28 type  2   force =     0.00000000    0.00000000    0.00000000
     atom   29 type  2   force =     0.00000000    0.00000000    0.00000000
     atom   30 type  1   force =     0.00000000    0.00000000    0.00000000
     atom   31 type  2   force =     0.00000000    0.00000000    0.00000000
     atom   32 type  2   force =     0.00000000    0.00000000    0.00000000
     atom   33 type  1   force =     0.00000000    0.00000000    0.00000000
     atom   34 type  2   force =     0.00000000    0.00000000    0.00000000
     atom   35 type  2   force =     0.00000000    0.00000000    0.00000000
     atom   36 type  3   force =     0.00000000    0.00000000    0.00000000
     The SCF correction term to forces
     atom    1 type  1   force =     0.00024103   -0.00018052   -0.00031430
     atom    2 type  2   force =    -0.00001561    0.00004291    0.00001060
     atom    3 type  2   force =     0.00002378   -0.00001733   -0.00047361
     atom    4 type  1   force =     0.00003001   -0.00000068   -0.00049070
     atom    5 type  2   force =    -0.00004762    0.00004501    0.00013940
     atom    6 type  2   force =     0.00004529   -0.00002756   -0.00047583
     atom    7 type  1   force =    -0.00031966   -0.00031933   -0.00032013
     atom    8 type  2   force =    -0.00013641   -0.00001455    0.00007625
     atom    9 type  2   force =    -0.00007912   -0.00001109   -0.00038657
     atom   10 type  1   force =    -0.00013836    0.00019384   -0.00059201
     atom   11 type  2   force =    -0.00002801   -0.00009080    0.00007468
     atom   12 type  2   force =     0.00001219    0.00003978   -0.00046174
     atom   13 type  1   force =    -0.00008236    0.00003684   -0.00053944
     atom   14 type  2   force =    -0.00002060    0.00003348    0.00011790
     atom   15 type  2   force =    -0.00003546   -0.00002701   -0.00051060
     atom   16 type  1   force =    -0.00000171    0.00050212   -0.00028220
     atom   17 type  2   force =     0.00001221   -0.00001732    0.00012222
     atom   18 type  2   force =    -0.00004037   -0.00010690   -0.00041619
     atom   19 type  1   force =     0.00045174   -0.00025972   -0.00030341
     atom   20 type  2   force =     0.00008609   -0.00000314   -0.00031576
     atom   21 type  1   force =     0.00007045    0.00009326   -0.00057848
     atom   22 type  2   force =     0.00003103   -0.00000542    0.00013718
     atom   23 type  2   force =     0.00001831    0.00012556   -0.00051464
     atom   24 type  1   force =    -0.00001969   -0.00002177   -0.00057734
     atom   25 type  2   force =     0.00000751    0.00003364    0.00007887
     atom   26 type  2   force =    -0.00001441    0.00001535   -0.00047476
     atom   27 type  1   force =    -0.00001879   -0.00018914   -0.00045385
     atom   28 type  2   force =     0.00002454   -0.00000075    0.00005122
     atom   29 type  2   force =    -0.00000476   -0.00009134   -0.00043853
     atom   30 type  1   force =    -0.00013480   -0.00007127   -0.00042767
     atom   31 type  2   force =     0.00006723   -0.00006447    0.00016494
     atom   32 type  2   force =    -0.00000890   -0.00006564   -0.00046540
     atom   33 type  1   force =     0.00003897    0.00022899   -0.00057998
     atom   34 type  2   force =     0.00001489    0.00002537    0.00009506
     atom   35 type  2   force =    -0.00002936    0.00014299   -0.00051852
     atom   36 type  3   force =    -0.00000183    0.00001529   -0.00000906

     Total force =     0.120837     Total SCF correction =     0.002536

     BFGS Geometry Optimization
     Energy error            =      0.0E+00 Ry
     Gradient error          =      4.4E-02 Ry/Bohr

     number of scf cycles    =   1
     number of bfgs steps    =   0

     energy             new  =   -2205.5277498405 Ry

     new trust radius        =       0.0591393470 bohr
     new conv_thr            =       0.0000010000 Ry


ATOMIC_POSITIONS (angstrom)
Mo            6.5702077965        1.7851348063        2.8119412663
S             8.1967986248        0.8001016155        4.4565293403
S             8.1865083891        0.8163116664        1.2761643273
Mo            8.0983914695        4.4923083700        2.7170952824
S             6.4984815346        3.7204133221        4.3430644683
S             6.5531790586        3.5159621865        1.1228754862
Mo            6.4905886314        7.2148561183        2.6666250016
S             8.0823298537        6.3409297151        4.2521287014
S             8.0885009105        6.3085951552        1.0908563501
Mo            8.1512183705        9.9025230569        2.8201055574
S             6.4971788131        8.9417508085        4.3797027651
S             6.6165102655        9.0484767237        1.1437691454
Mo            3.4273799576        1.7520934434        2.7716893052
S             4.9793081065        0.8165054166        4.3561910557
S             5.0521187721        0.8462555397        1.2215852703
Mo            4.9794807497        4.5184712090        2.6357711516
S             3.4312992594        3.6725365034        4.2794474912
S             3.4363610249        3.5447374055        1.0661903851
Mo            3.4588233670        7.2117041800        2.6286224732
S             4.9849290299        6.3245410338        1.0380074739
Mo            5.0104579631        9.9058285797        2.7426863095
S             3.4697804944        8.9427059117        4.3242391277
S             3.4088336263        9.0648308251        1.1005755899
Mo            0.2924267725        1.7508133220        2.8301086502
S             1.8552092113        0.7996612543        4.4035196030
S             1.8545487842        0.8542024110        1.2069368318
Mo            1.8596727598        4.4926729285        2.6634888518
S             0.2730862144        3.6546229526        4.3348760935
S             0.2328036201        3.5275815399        1.1715471908
Mo            0.2684693693        7.2183100547        2.6903031541
S             1.9029916273        6.3124739422        4.2311865463
S             1.8563726821        6.3142110642        1.0494980303
Mo            1.8518587743        9.9372302458        2.7670543224
S             0.2972882245        9.0787688932        4.4170724873
S             0.2723725902        9.0471567404        1.1574598818
H             9.4433403133        0.0056674692        5.1218326084



     Writing config-only to output data dir ./MoS2-V-O.save/
     NEW-OLD atomic charge density approx. for the potential

     negative rho (up, down):  1.442E-04 0.000E+00

     total cpu time spent up to now is       85.6 secs

     Self-consistent Calculation

     iteration #  1     ecut=    80.00 Ry     beta= 0.70
     Davidson diagonalization with overlap
     ethr =  1.00E-06,  avg # of iterations =  8.0

     negative rho (up, down):  1.293E-04 0.000E+00

     total cpu time spent up to now is       97.9 secs

     total energy              =   -2205.53945321 Ry
     estimated scf accuracy    <       0.00186123 Ry

     iteration #  2     ecut=    80.00 Ry     beta= 0.70
     Davidson diagonalization with overlap
     ethr =  6.06E-07,  avg # of iterations =  2.0

     negative rho (up, down):  1.347E-04 0.000E+00

     total cpu time spent up to now is      114.4 secs

     total energy              =   -2205.53950536 Ry
     estimated scf accuracy    <       0.00037406 Ry

     iteration #  3     ecut=    80.00 Ry     beta= 0.70
     Davidson diagonalization with overlap
     ethr =  1.22E-07,  avg # of iterations =  5.0

     negative rho (up, down):  1.414E-04 0.000E+00

     total cpu time spent up to now is      132.5 secs

     total energy              =   -2205.53953711 Ry
     estimated scf accuracy    <       0.00008534 Ry

     iteration #  4     ecut=    80.00 Ry     beta= 0.70
     Davidson diagonalization with overlap
     ethr =  2.78E-08,  avg # of iterations = 13.0

     negative rho (up, down):  1.391E-04 0.000E+00

     total cpu time spent up to now is      151.5 secs

     total energy              =   -2205.53955413 Ry
     estimated scf accuracy    <       0.00000756 Ry

     iteration #  5     ecut=    80.00 Ry     beta= 0.70
     Davidson diagonalization with overlap
     ethr =  2.46E-09,  avg # of iterations =  5.0

     negative rho (up, down):  1.321E-04 0.000E+00

     total cpu time spent up to now is      163.6 secs

     total energy              =   -2205.53955581 Ry
     estimated scf accuracy    <       0.00000206 Ry

     iteration #  6     ecut=    80.00 Ry     beta= 0.70
     Davidson diagonalization with overlap
     ethr =  6.72E-10,  avg # of iterations =  3.0

     negative rho (up, down):  1.284E-04 0.000E+00

     total cpu time spent up to now is      177.3 secs

     total energy              =   -2205.53955624 Ry
     estimated scf accuracy    <       0.00000111 Ry

     iteration #  7     ecut=    80.00 Ry     beta= 0.70
     Davidson diagonalization with overlap
     ethr =  3.60E-10,  avg # of iterations =  2.0

     negative rho (up, down):  1.384E-04 0.000E+00

     total cpu time spent up to now is      179.1 secs

     End of self-consistent calculation

          k = 0.0000 0.0000 0.0000 (105382 PWs)   bands (ev):

   -62.8810 -62.8606 -62.8482 -62.8285 -62.8129 -62.8032 -62.7972 -62.7744
   -62.7737 -62.7532 -62.7474 -62.7244 -37.2188 -37.1510 -37.1279 -37.1215
   -37.1155 -37.0864 -37.0707 -37.0623 -37.0523 -37.0484 -37.0361 -37.0260
   -37.0197 -37.0169 -37.0057 -36.9952 -36.9914 -36.9808 -36.9679 -36.9585
   -36.9509 -36.9404 -36.9262 -36.9165 -36.9105 -36.9017 -36.8979 -36.8873
   -36.8839 -36.8639 -36.8462 -36.8344 -36.8126 -36.7792 -36.7157 -36.6963
   -16.0623 -15.3483 -15.1736 -15.0489 -14.9675 -14.8180 -14.6121 -14.5066
   -14.4669 -14.4272 -14.4048 -14.3714 -14.3435 -14.2830 -14.1643 -14.1464
   -14.1161 -14.0969 -14.0187 -13.9377 -13.8497 -13.8182 -13.8004  -8.4495
    -7.6052  -7.4645  -7.2730  -7.2604  -7.2084  -7.1902  -7.1253  -6.9012
    -6.8404  -6.7959  -6.7596  -6.7298  -6.5542  -6.4899  -6.4634  -6.4444
    -6.3733  -6.2313  -6.0125  -5.9911  -5.9106  -5.8463  -5.8199  -5.8055
    -5.7757  -5.7352  -5.6675  -5.6535  -5.6129  -5.5743  -5.5233  -5.4570
    -5.4082  -5.3358  -5.1776  -5.1581  -5.0703  -5.0450  -4.9774  -4.9536
    -4.9234  -4.8238  -4.6323  -4.5033  -4.3600  -4.3075  -4.2828  -4.2548
    -4.2300  -4.0811  -4.0251  -3.9653  -3.8062  -3.7545  -3.7231  -3.6929
    -3.6693  -3.5616  -3.5439  -3.5355  -3.4936  -3.4855  -3.4450  -3.3695
    -3.3608  -3.2016  -3.1358  -2.8994  -2.8843  -2.7813  -2.7625  -2.7243
    -2.7047  -2.6815  -2.6503  -2.6136  -2.5581  -2.2693  -2.0378  -1.9914
    -1.9762  -1.0400  -0.7430  -0.6971  -0.1562  -0.1175  -0.0525  -0.0300
     0.1077   0.1339   0.2011   0.2499   0.2716   0.2927   0.3710   0.4361
     0.4828   0.5411   0.5559   0.5889   0.6247   0.6843   0.6969   0.7665
     0.7839   0.7941   0.8850   0.8907   0.9694   1.0142   1.0343   1.3553
     1.3884

     the Fermi energy is    -1.0403 ev

!    total energy              =   -2205.53955600 Ry
     estimated scf accuracy    <       0.00000053 Ry
     smearing contrib. (-TS)   =      -0.00569935 Ry
     internal energy E=F+TS    =   -2205.53385666 Ry

     The total energy is F=E-TS. E is the sum of the following terms:
     one-electron contribution =  -18054.08966432 Ry
     hartree contribution      =    9013.88064972 Ry
     xc contribution           =    -385.29559171 Ry
     ewald contribution        =    7219.97074965 Ry

     convergence has been achieved in   7 iterations

     negative rho (up, down):  1.384E-04 0.000E+00

     Forces acting on atoms (cartesian axes, Ry/au):

     atom    1 type  1   force =    -0.00522784   -0.00404717   -0.01174407
     atom    2 type  2   force =     0.03415998   -0.01794231    0.02919075
     atom    3 type  2   force =    -0.01336113    0.00892925   -0.01048957
     atom    4 type  1   force =     0.00422895   -0.00272175    0.00221002
     atom    5 type  2   force =    -0.00134261   -0.00513898   -0.00690378
     atom    6 type  2   force =    -0.00153399    0.00767920    0.00098189
     atom    7 type  1   force =     0.00184941   -0.00493778   -0.00170214
     atom    8 type  2   force =     0.00167784   -0.00468106    0.01051093
     atom    9 type  2   force =     0.01165143    0.00482309    0.00745303
     atom   10 type  1   force =    -0.00523220    0.00268482   -0.01333729
     atom   11 type  2   force =     0.00344259   -0.00177314   -0.00973454
     atom   12 type  2   force =    -0.00596629   -0.00134448   -0.00068572
     atom   13 type  1   force =     0.00576284    0.00333889   -0.00170201
     atom   14 type  2   force =     0.00731745    0.00105285    0.00538183
     atom   15 type  2   force =    -0.00971381    0.00007075   -0.01175756
     atom   16 type  1   force =     0.00001672    0.00824826    0.00397241
     atom   17 type  2   force =     0.00572532    0.00140483    0.00056256
     atom   18 type  2   force =    -0.00165522   -0.00355266    0.01101686
     atom   19 type  1   force =     0.00570864   -0.00705611    0.00173054
     atom   20 type  2   force =     0.00301809   -0.00445244   -0.00274332
     atom   21 type  1   force =    -0.00182455    0.00567290    0.00275132
     atom   22 type  2   force =    -0.00089064   -0.00190575   -0.00361968
     atom   23 type  2   force =     0.00166756   -0.00143489    0.00402722
     atom   24 type  1   force =    -0.00320179    0.00133172   -0.01283907
     atom   25 type  2   force =     0.00851472    0.01292813   -0.00227392
     atom   26 type  2   force =    -0.00673902   -0.00048747   -0.00649358
     atom   27 type  1   force =    -0.00138258   -0.00213062    0.00676848
     atom   28 type  2   force =     0.00100926   -0.00215452   -0.00615541
     atom   29 type  2   force =     0.00271203    0.00266725   -0.00550133
     atom   30 type  1   force =    -0.00276477    0.00046788   -0.00247322
     atom   31 type  2   force =     0.00023227   -0.00006883    0.00899828
     atom   32 type  2   force =    -0.00794311    0.00481816    0.00641658
     atom   33 type  1   force =     0.00577949   -0.00128173    0.00042882
     atom   34 type  2   force =    -0.00035143   -0.02050343   -0.00807471
     atom   35 type  2   force =    -0.00564823    0.00714227    0.00432593
     atom   36 type  3   force =    -0.02969541    0.01435484    0.01150350
     The non-local contrib.  to forces
     atom    1 type  1   force =     0.00476758    0.02272167   -0.00813590
     atom    2 type  2   force =     0.15953534   -0.09724330   -0.13569602
     atom    3 type  2   force =    -0.01295291   -0.00471966    0.26908772
     atom    4 type  1   force =     0.00068012    0.00924132    0.00332905
     atom    5 type  2   force =     0.00520122   -0.02640010   -0.24731115
     atom    6 type  2   force =    -0.00517503    0.00668050    0.26409540
     atom    7 type  1   force =    -0.02178649   -0.00677365   -0.02146113
     atom    8 type  2   force =     0.00196987   -0.00433615   -0.25765052
     atom    9 type  2   force =     0.00580166   -0.01145115    0.27373717
     atom   10 type  1   force =     0.00360751    0.00321076    0.00217292
     atom   11 type  2   force =     0.01255464    0.00767577   -0.25849371
     atom   12 type  2   force =    -0.01634675   -0.01722294    0.25810789
     atom   13 type  1   force =    -0.00070103    0.02077997   -0.00794108
     atom   14 type  2   force =     0.00429516   -0.01015811   -0.25242247
     atom   15 type  2   force =    -0.01163786   -0.00243821    0.26171791
     atom   16 type  1   force =     0.00007090    0.03012111   -0.03250210
     atom   17 type  2   force =     0.00151212   -0.02679549   -0.24741572
     atom   18 type  2   force =    -0.00250799   -0.00263350    0.27185489
     atom   19 type  1   force =     0.01852818   -0.00646428   -0.01807791
     atom   20 type  2   force =    -0.00045410   -0.02101509    0.26307049
     atom   21 type  1   force =     0.00067027    0.02153038    0.00548599
     atom   22 type  2   force =    -0.00412817    0.00558622   -0.25877627
     atom   23 type  2   force =     0.00951368   -0.01580591    0.26557600
     atom   24 type  1   force =    -0.00158331    0.01601222   -0.00509090
     atom   25 type  2   force =    -0.00386317   -0.00630098   -0.23421864
     atom   26 type  2   force =     0.00078252   -0.01141307    0.26393099
     atom   27 type  1   force =    -0.00153515    0.01000629    0.00825359
     atom   28 type  2   force =    -0.00334145   -0.02689146   -0.27077819
     atom   29 type  2   force =     0.00654716    0.00239117    0.26157552
     atom   30 type  1   force =     0.00259453    0.01770228    0.00151783
     atom   31 type  2   force =    -0.00620462    0.00039262   -0.25736919
     atom   32 type  2   force =    -0.00106842   -0.01202264    0.27211689
     atom   33 type  1   force =    -0.00490903    0.00389966    0.00519953
     atom   34 type  2   force =     0.00046323    0.01739504   -0.23189397
     atom   35 type  2   force =    -0.00194866   -0.00988787    0.26786422
     atom   36 type  3   force =    -0.01715174    0.00916688   -0.01213598
     The ionic contribution  to forces
     atom    1 type  1   force =     0.36695949    0.35866255    5.39137460
     atom    2 type  2   force =    -1.61816335    1.00022590   38.87263662
     atom    3 type  2   force =    -0.18592625    0.05730099  -36.20748292
     atom    4 type  1   force =    -0.02409243    0.71414632    0.80706252
     atom    5 type  2   force =    -0.96211299    1.48787429   38.72676882
     atom    6 type  2   force =     0.30577482   -0.41492628  -37.99389313
     atom    7 type  1   force =    -2.63232726   -2.83319025    2.52443200
     atom    8 type  2   force =    -0.99131076    0.01253866   37.49036099
     atom    9 type  2   force =     0.28104395   -0.12043789  -37.95459618
     atom   10 type  1   force =    -1.19598673   -0.47054330    4.40441596
     atom   11 type  2   force =    -0.65069179   -1.70292401   39.08658421
     atom   12 type  2   force =     0.29555082    0.60002857  -37.88890287
     atom   13 type  1   force =     0.45275931    0.93186151    2.76452289
     atom   14 type  2   force =     0.05544757    0.03889193   38.60779438
     atom   15 type  2   force =     0.11422982   -0.07943422  -36.91208083
     atom   16 type  1   force =     0.01623040    3.94873700    0.75666009
     atom   17 type  2   force =     0.83129334    1.52676717   37.99608754
     atom   18 type  2   force =    -0.14235807   -0.54544487  -38.50697207
     atom   19 type  1   force =     2.62756483   -2.47645223    0.70340098
     atom   20 type  2   force =     0.20423939   -0.21708413  -38.52117491
     atom   21 type  1   force =    -0.02197593   -0.06029071    1.31837435
     atom   22 type  2   force =     0.54279839   -1.80082599   38.43033780
     atom   23 type  2   force =    -0.05309256    0.59387526  -38.27178861
     atom   24 type  1   force =    -0.44212874    1.34730144    4.70196365
     atom   25 type  2   force =     1.13950955    0.51200054   38.99043579
     atom   26 type  2   force =    -0.17789576    0.05214310  -37.36572858
     atom   27 type  1   force =     0.09424392    0.63514554   -1.97460875
     atom   28 type  2   force =     0.04314331    1.08033820   38.20921237
     atom   29 type  2   force =    -0.24339650   -0.29000026  -37.34315876
     atom   30 type  1   force =    -0.21534622   -1.09880650   -0.33542258
     atom   31 type  2   force =     1.20663218   -0.03843897   37.38162666
     atom   32 type  2   force =    -0.39911261   -0.06283292  -38.55988864
     atom   33 type  1   force =     0.93620782   -0.90789427    1.70506202
     atom   34 type  2   force =     0.28765778   -2.05525122   38.99601143
     atom   35 type  2   force =    -0.19326981    0.45334923  -37.81336452
     atom   36 type  3   force =     0.34790108   -0.17641019    7.78393769
     The local contribution  to forces
     atom    1 type  1   force =    -0.37703357   -0.38525268   -5.39613324
     atom    2 type  2   force =     1.50353828   -0.92735374  -38.72025435
     atom    3 type  2   force =     0.18490293   -0.04376745   35.94842303
     atom    4 type  1   force =     0.02753707   -0.72604856   -0.80913957
     atom    5 type  2   force =     0.95610849   -1.46806501  -38.50670424
     atom    6 type  2   force =    -0.30255125    0.41677350   37.75133052
     atom    7 type  1   force =     2.65593513    2.83488532   -2.50568809
     atom    8 type  2   force =     0.99098879   -0.01347399  -37.24302215
     atom    9 type  2   force =    -0.27512093    0.13612111   37.70889409
     atom   10 type  1   force =     1.18714703    0.46992850   -4.42108567
     atom   11 type  2   force =     0.64209074    1.69409317  -38.85869214
     atom   12 type  2   force =    -0.28637858   -0.58553532   37.65040166
     atom   13 type  1   force =    -0.44633038   -0.94925636   -2.75925797
     atom   14 type  2   force =    -0.05213250   -0.02766209  -38.37048805
     atom   15 type  2   force =    -0.11293252    0.08176698   36.65883658
     atom   16 type  1   force =    -0.01624203   -3.97058191   -0.72112310
     atom   17 type  2   force =    -0.82709703   -1.49994643  -37.76855947
     atom   18 type  2   force =     0.14321285    0.54498645   38.26677292
     atom   19 type  1   force =    -2.64035293    2.47571028   -0.68457679
     atom   20 type  2   force =    -0.20087176    0.23286523   38.27613842
     atom   21 type  1   force =     0.01952232    0.04440948   -1.32218849
     atom   22 type  2   force =    -0.53959895    1.79391141  -38.19602333
     atom   23 type  2   force =     0.04592318   -0.58077045   38.03068477
     atom   24 type  1   force =     0.44064041   -1.36184609   -4.71078296
     atom   25 type  2   force =    -1.12799926   -0.49303262  -38.77787226
     atom   26 type  2   force =     0.17062912   -0.04179393   37.11576201
     atom   27 type  1   force =    -0.09404342   -0.64724505    1.97214116
     atom   28 type  2   force =    -0.03902591   -1.05737925  -37.96568845
     atom   29 type  2   force =     0.24009510    0.29078232   37.09629294
     atom   30 type  1   force =     0.20995103    1.08140766    0.33045421
     atom   31 type  2   force =    -1.20051619    0.03777047  -37.13616791
     atom   32 type  2   force =     0.39241872    0.07900150   38.31480108
     atom   33 type  1   force =    -0.92552198    0.90275779   -1.71089139
     atom   34 type  2   force =    -0.28881256    2.01950881  -38.79101157
     atom   35 type  2   force =     0.18955205   -0.43730423   37.57040279
     atom   36 type  3   force =    -0.36043755    0.18159763   -7.76035860
     The core correction contribution to forces
     atom    1 type  1   force =     0.00000000    0.00000000    0.00000000
     atom    2 type  2   force =    -0.01072084    0.00646580    0.01221298
     atom    3 type  2   force =     0.00058985    0.00013258   -0.02095591
     atom    4 type  1   force =     0.00000000    0.00000000    0.00000000
     atom    5 type  2   force =    -0.00057221    0.00153574    0.02003689
     atom    6 type  2   force =     0.00040580   -0.00084974   -0.02091365
     atom    7 type  1   force =     0.00000000    0.00000000    0.00000000
     atom    8 type  2   force =    -0.00001461    0.00052600    0.02045744
     atom    9 type  2   force =    -0.00010566    0.00058795   -0.02093409
     atom   10 type  1   force =     0.00000000    0.00000000    0.00000000
     atom   11 type  2   force =    -0.00056853   -0.00069719    0.02050507
     atom   12 type  2   force =     0.00121410    0.00136020   -0.02069502
     atom   13 type  1   force =     0.00000000    0.00000000    0.00000000
     atom   14 type  2   force =    -0.00032421    0.00002349    0.02014119
     atom   15 type  2   force =     0.00064782    0.00019414   -0.02062651
     atom   16 type  1   force =     0.00000000    0.00000000    0.00000000
     atom   17 type  2   force =     0.00002854    0.00142801    0.02014052
     atom   18 type  2   force =     0.00000717   -0.00043734   -0.02099495
     atom   19 type  1   force =     0.00000000    0.00000000    0.00000000
     atom   20 type  2   force =     0.00013184    0.00076773   -0.02112431
     atom   21 type  1   force =     0.00000000    0.00000000    0.00000000
     atom   22 type  2   force =     0.00006009   -0.00061200    0.02051264
     atom   23 type  2   force =    -0.00065140    0.00127205   -0.02085386
     atom   24 type  1   force =     0.00000000    0.00000000    0.00000000
     atom   25 type  2   force =     0.00092453    0.00031954    0.01902805
     atom   26 type  2   force =    -0.00025731    0.00060237   -0.02085708
     atom   27 type  1   force =     0.00000000    0.00000000    0.00000000
     atom   28 type  2   force =     0.00024416    0.00185568    0.02076250
     atom   29 type  2   force =    -0.00054194   -0.00051114   -0.02057465
     atom   30 type  1   force =     0.00000000    0.00000000    0.00000000
     atom   31 type  2   force =     0.00033837    0.00012712    0.02057534
     atom   32 type  2   force =    -0.00017303    0.00063752   -0.02097517
     atom   33 type  1   force =     0.00000000    0.00000000    0.00000000
     atom   34 type  2   force =     0.00037879   -0.00224289    0.01848403
     atom   35 type  2   force =    -0.00002024    0.00096503   -0.02099666
     atom   36 type  3   force =     0.00000000    0.00000000    0.00000000
     The Hubbard contrib.    to forces
     atom    1 type  1   force =     0.00000000    0.00000000    0.00000000
     atom    2 type  2   force =     0.00000000    0.00000000    0.00000000
     atom    3 type  2   force =     0.00000000    0.00000000    0.00000000
     atom    4 type  1   force =     0.00000000    0.00000000    0.00000000
     atom    5 type  2   force =     0.00000000    0.00000000    0.00000000
     atom    6 type  2   force =     0.00000000    0.00000000    0.00000000
     atom    7 type  1   force =     0.00000000    0.00000000    0.00000000
     atom    8 type  2   force =     0.00000000    0.00000000    0.00000000
     atom    9 type  2   force =     0.00000000    0.00000000    0.00000000
     atom   10 type  1   force =     0.00000000    0.00000000    0.00000000
     atom   11 type  2   force =     0.00000000    0.00000000    0.00000000
     atom   12 type  2   force =     0.00000000    0.00000000    0.00000000
     atom   13 type  1   force =     0.00000000    0.00000000    0.00000000
     atom   14 type  2   force =     0.00000000    0.00000000    0.00000000
     atom   15 type  2   force =     0.00000000    0.00000000    0.00000000
     atom   16 type  1   force =     0.00000000    0.00000000    0.00000000
     atom   17 type  2   force =     0.00000000    0.00000000    0.00000000
     atom   18 type  2   force =     0.00000000    0.00000000    0.00000000
     atom   19 type  1   force =     0.00000000    0.00000000    0.00000000
     atom   20 type  2   force =     0.00000000    0.00000000    0.00000000
     atom   21 type  1   force =     0.00000000    0.00000000    0.00000000
     atom   22 type  2   force =     0.00000000    0.00000000    0.00000000
     atom   23 type  2   force =     0.00000000    0.00000000    0.00000000
     atom   24 type  1   force =     0.00000000    0.00000000    0.00000000
     atom   25 type  2   force =     0.00000000    0.00000000    0.00000000
     atom   26 type  2   force =     0.00000000    0.00000000    0.00000000
     atom   27 type  1   force =     0.00000000    0.00000000    0.00000000
     atom   28 type  2   force =     0.00000000    0.00000000    0.00000000
     atom   29 type  2   force =     0.00000000    0.00000000    0.00000000
     atom   30 type  1   force =     0.00000000    0.00000000    0.00000000
     atom   31 type  2   force =     0.00000000    0.00000000    0.00000000
     atom   32 type  2   force =     0.00000000    0.00000000    0.00000000
     atom   33 type  1   force =     0.00000000    0.00000000    0.00000000
     atom   34 type  2   force =     0.00000000    0.00000000    0.00000000
     atom   35 type  2   force =     0.00000000    0.00000000    0.00000000
     atom   36 type  3   force =     0.00000000    0.00000000    0.00000000
     The SCF correction term to forces
     atom    1 type  1   force =     0.00007784   -0.00018138    0.00112098
     atom    2 type  2   force =    -0.00003027   -0.00003965    0.00026203
     atom    3 type  2   force =     0.00002443   -0.00001989    0.00040903
     atom    4 type  1   force =     0.00010335   -0.00006349    0.00092855
     atom    5 type  2   force =     0.00003205   -0.00008657    0.00027643
     atom    6 type  2   force =     0.00001083   -0.00000144    0.00033329
     atom    7 type  1   force =     0.00002721    0.00013814    0.00098560
     atom    8 type  2   force =     0.00004372    0.00006175    0.00033568
     atom    9 type  2   force =     0.00003158    0.00000040    0.00032256
     atom   10 type  1   force =    -0.00000083    0.00008620    0.00113003
     atom   11 type  2   force =     0.00005670    0.00007645    0.00033255
     atom   12 type  2   force =    -0.00000671    0.00002235    0.00037315
     atom   13 type  1   force =     0.00003410   -0.00004889    0.00094467
     atom   14 type  2   force =     0.00003059   -0.00004503    0.00032730
     atom   15 type  2   force =    -0.00002189   -0.00002061    0.00036582
     atom   16 type  1   force =    -0.00004338   -0.00003060    0.00090804
     atom   17 type  2   force =    -0.00001248   -0.00005109    0.00028021
     atom   18 type  2   force =    -0.00001001   -0.00002607    0.00032659
     atom   19 type  1   force =    -0.00003228    0.00014746    0.00095479
     atom   20 type  2   force =    -0.00002811    0.00001115    0.00031752
     atom   21 type  1   force =    -0.00004204    0.00002108    0.00104999
     atom   22 type  2   force =    -0.00002283    0.00003194    0.00030002
     atom   23 type  2   force =    -0.00002616   -0.00000851    0.00037946
     atom   24 type  1   force =    -0.00013097   -0.00013853    0.00104166
     atom   25 type  2   force =    -0.00005776   -0.00006101    0.00032366
     atom   26 type  2   force =     0.00000158   -0.00002862    0.00036959
     atom   27 type  1   force =    -0.00004876   -0.00004007    0.00095300
     atom   28 type  2   force =    -0.00001168   -0.00008034    0.00030689
     atom   29 type  2   force =     0.00000739    0.00000250    0.00033414
     atom   30 type  1   force =     0.00003506    0.00016177    0.00094784
     atom   31 type  2   force =    -0.00001830    0.00007726    0.00030390
     atom   32 type  2   force =    -0.00000860    0.00003205    0.00033295
     atom   33 type  1   force =     0.00000184   -0.00004758    0.00102919
     atom   34 type  2   force =    -0.00003950    0.00008416    0.00030590
     atom   35 type  2   force =     0.00003760    0.00001744    0.00039062
     atom   36 type  3   force =    -0.00000803   -0.00000214    0.00003091

     Total force =     0.085660     Total SCF correction =     0.003854
     Energy error            =      1.2E-02 Ry
     Gradient error          =      3.4E-02 Ry/Bohr

     number of scf cycles    =   2
     number of bfgs steps    =   1

     energy             old  =   -2205.5277498405 Ry
     energy             new  =   -2205.5395560048 Ry

     CASE: energy            _new < energy            _old

     new trust radius        =       0.0650532816 bohr
     new conv_thr            =       0.0000000342 Ry


ATOMIC_POSITIONS (angstrom)
Mo            6.5661865556        1.7822334993        2.8023080721
S             8.2205311600        0.7879280894        4.4782924508
S             8.1775740464        0.8224594934        1.2702445954
Mo            8.1015575740        4.4900645670        2.7180088700
S             6.4973525950        3.7171578245        4.3384106922
S             6.5523381552        3.5212076881        1.1238705298
Mo            6.4917257390        7.2112174152        2.6641333858
S             8.0833773020        6.3376196570        4.2605026525
S             8.0968204507        6.3122707229        1.0968367203
Mo            8.1456394137        9.9040082921        2.8060709083
S             6.4995664390        8.9404779712        4.3736535322
S             6.6130020829        9.0477136265        1.1446038478
Mo            3.4321002859        1.7553888264        2.7693445772
S             4.9843424726        0.8169125833        4.3606963993
S             5.0453694148        0.8462898859        1.2139827806
Mo            4.9794045232        4.5243376730        2.6387001781
S             3.4353047485        3.6735465181        4.2796560592
S             3.4350308897        3.5418382304        1.0742623004
Mo            3.4632826235        7.2066572777        2.6288803877
S             4.9870012214        6.3215175577        1.0368292052
Mo            5.0089650526        9.9100441122        2.7438807064
S             3.4689607305        8.9414050789        4.3219630746
S             3.4098150261        9.0640444171        1.1040309935
Mo            0.2896549325        1.7525133698        2.8175658685
S             1.8610447185        0.8084476119        4.4039832428
S             1.8491635167        0.8538831619        1.2028419093
Mo            1.8586490570        4.4906575547        2.6679794209
S             0.2738731058        3.6535845014        4.3308799795
S             0.2346808743        3.5290545701        1.1685750055
Mo            0.2662236788        7.2190620341        2.6855296873
S             1.9033425970        6.3123386923        4.2384987899
S             1.8504871222        6.3178762338        1.0543141118
Mo            1.8571384703        9.9356772769        2.7654635267
S             0.2975303789        9.0647790458        4.4139069807
S             0.2681173930        9.0519438021        1.1618532403
H             9.4239526645        0.0147875484        5.1301928941



     Writing config-only to output data dir ./MoS2-V-O.save/
     NEW-OLD atomic charge density approx. for the potential

     negative rho (up, down):  1.449E-04 0.000E+00

     total cpu time spent up to now is      182.6 secs

     Self-consistent Calculation

     iteration #  1     ecut=    80.00 Ry     beta= 0.70
     Davidson diagonalization with overlap
     ethr =  1.00E-06,  avg # of iterations =  9.0

     negative rho (up, down):  1.090E-04 0.000E+00

     total cpu time spent up to now is      194.3 secs

     total energy              =   -2205.54821903 Ry
     estimated scf accuracy    <       0.00109508 Ry

     iteration #  2     ecut=    80.00 Ry     beta= 0.70
     Davidson diagonalization with overlap
     ethr =  3.57E-07,  avg # of iterations =  2.0

     negative rho (up, down):  9.301E-05 0.000E+00

     total cpu time spent up to now is      208.1 secs

     total energy              =   -2205.54826249 Ry
     estimated scf accuracy    <       0.00019182 Ry

     iteration #  3     ecut=    80.00 Ry     beta= 0.70
     Davidson diagonalization with overlap
     ethr =  6.25E-08,  avg # of iterations =  3.0

     negative rho (up, down):  8.262E-05 0.000E+00

     total cpu time spent up to now is      220.3 secs

     total energy              =   -2205.54828380 Ry
     estimated scf accuracy    <       0.00004323 Ry

     iteration #  4     ecut=    80.00 Ry     beta= 0.70
     Davidson diagonalization with overlap
     ethr =  1.41E-08,  avg # of iterations =  6.0

     negative rho (up, down):  8.196E-05 0.000E+00

     total cpu time spent up to now is      237.4 secs

     total energy              =   -2205.54829274 Ry
     estimated scf accuracy    <       0.00000360 Ry

     iteration #  5     ecut=    80.00 Ry     beta= 0.70
     Davidson diagonalization with overlap
     ethr =  1.17E-09,  avg # of iterations =  5.0

     negative rho (up, down):  8.558E-05 0.000E+00

     total cpu time spent up to now is      251.6 secs

     total energy              =   -2205.54829367 Ry
     estimated scf accuracy    <       0.00000108 Ry

     iteration #  6     ecut=    80.00 Ry     beta= 0.70
     Davidson diagonalization with overlap
     ethr =  3.52E-10,  avg # of iterations =  3.0

     negative rho (up, down):  9.063E-05 0.000E+00

     total cpu time spent up to now is      263.3 secs

     total energy              =   -2205.54829383 Ry
     estimated scf accuracy    <       0.00000020 Ry

     iteration #  7     ecut=    80.00 Ry     beta= 0.70
     Davidson diagonalization with overlap
     ethr =  6.52E-11,  avg # of iterations =  5.0

     negative rho (up, down):  1.001E-04 0.000E+00

     total cpu time spent up to now is      276.2 secs

     total energy              =   -2205.54829380 Ry
     estimated scf accuracy    <       0.00000006 Ry

     iteration #  8     ecut=    80.00 Ry     beta= 0.70
     Davidson diagonalization with overlap
     ethr =  1.83E-11,  avg # of iterations =  5.0

     negative rho (up, down):  1.385E-04 0.000E+00

     total cpu time spent up to now is      278.4 secs

     End of self-consistent calculation

          k = 0.0000 0.0000 0.0000 (105382 PWs)   bands (ev):

   -62.8760 -62.8578 -62.8440 -62.8284 -62.8155 -62.8066 -62.7996 -62.7717
   -62.7617 -62.7553 -62.7382 -62.7124 -37.2148 -37.1465 -37.1281 -37.1164
   -37.1124 -37.0819 -37.0666 -37.0597 -37.0502 -37.0449 -37.0320 -37.0234
   -37.0172 -37.0153 -37.0061 -36.9971 -36.9942 -36.9777 -36.9639 -36.9524
   -36.9443 -36.9378 -36.9271 -36.9097 -36.9063 -36.8935 -36.8920 -36.8820
   -36.8781 -36.8629 -36.8440 -36.8324 -36.8125 -36.7725 -36.7062 -36.6914
   -16.0635 -15.3709 -15.1762 -15.0494 -14.9574 -14.8173 -14.6154 -14.4996
   -14.4545 -14.4235 -14.4007 -14.3687 -14.3423 -14.2837 -14.1572 -14.1453
   -14.1109 -14.0976 -14.0163 -13.9269 -13.8504 -13.8245 -13.7893  -8.4650
    -7.6033  -7.4584  -7.2693  -7.2599  -7.2044  -7.1935  -7.1155  -6.9117
    -6.8402  -6.7925  -6.7581  -6.7246  -6.5467  -6.4830  -6.4627  -6.4469
    -6.3721  -6.2169  -6.0134  -5.9866  -5.9044  -5.8452  -5.8131  -5.8037
    -5.7745  -5.7274  -5.6635  -5.6497  -5.6191  -5.5771  -5.5190  -5.4542
    -5.4004  -5.3175  -5.1733  -5.1448  -5.0746  -5.0339  -4.9751  -4.9609
    -4.9172  -4.8256  -4.6199  -4.5001  -4.3728  -4.3032  -4.2905  -4.2476
    -4.2332  -4.0821  -4.0251  -3.9620  -3.7978  -3.7543  -3.7165  -3.6925
    -3.6691  -3.5484  -3.5483  -3.5343  -3.4890  -3.4855  -3.4403  -3.3628
    -3.3497  -3.1986  -3.1400  -2.8940  -2.8872  -2.7709  -2.7569  -2.7189
    -2.6988  -2.6830  -2.6569  -2.6050  -2.5524  -2.2630  -2.0396  -1.9920
    -1.9775  -1.0396  -0.7337  -0.6826  -0.1474  -0.1120  -0.0562  -0.0300
     0.0981   0.1249   0.2001   0.2529   0.2858   0.3025   0.3586   0.4483
     0.4992   0.5446   0.5581   0.6000   0.6257   0.6843   0.6962   0.7735
     0.7830   0.8038   0.8918   0.8968   0.9782   1.0186   1.0290   1.3454
     1.3881

     the Fermi energy is    -1.0398 ev

!    total energy              =   -2205.54829366 Ry
     estimated scf accuracy    <       0.00000002 Ry
     smearing contrib. (-TS)   =      -0.00568335 Ry
     internal energy E=F+TS    =   -2205.54261031 Ry

     The total energy is F=E-TS. E is the sum of the following terms:
     one-electron contribution =  -18052.27700289 Ry
     hartree contribution      =    9013.01383333 Ry
     xc contribution           =    -385.29912489 Ry
     ewald contribution        =    7219.01968414 Ry

     convergence has been achieved in   8 iterations

     negative rho (up, down):  1.385E-04 0.000E+00

     Forces acting on atoms (cartesian axes, Ry/au):

     atom    1 type  1   force =    -0.00389990   -0.00233738   -0.00708757
     atom    2 type  2   force =     0.02902063   -0.01645100    0.02169590
     atom    3 type  2   force =    -0.01194084    0.00731413   -0.01224466
     atom    4 type  1   force =     0.00283184   -0.00109455    0.00256915
     atom    5 type  2   force =    -0.00017829   -0.00599082   -0.00579774
     atom    6 type  2   force =    -0.00222529    0.00690397    0.00027398
     atom    7 type  1   force =     0.00225559   -0.00315111    0.00159127
     atom    8 type  2   force =     0.00164291   -0.00420698    0.00570494
     atom    9 type  2   force =     0.00849668    0.00257602    0.00377342
     atom   10 type  1   force =     0.00157216    0.00402852    0.00288966
     atom   11 type  2   force =     0.00302366   -0.00133669   -0.00981306
     atom   12 type  2   force =    -0.00731905   -0.00179369   -0.00414323
     atom   13 type  1   force =     0.00202533   -0.00134527    0.00193232
     atom   14 type  2   force =     0.00675088    0.00219866    0.00200401
     atom   15 type  2   force =    -0.00804525    0.00002628   -0.01103005
     atom   16 type  1   force =     0.00033147    0.00588361    0.00210337
     atom   17 type  2   force =     0.00476935    0.00121159    0.00192525
     atom   18 type  2   force =    -0.00075355   -0.00073648    0.00810413
     atom   19 type  1   force =     0.00288765   -0.00536549    0.00369254
     atom   20 type  2   force =     0.00267185   -0.00357004   -0.00445081
     atom   21 type  1   force =    -0.00043728    0.00385528    0.00269035
     atom   22 type  2   force =     0.00020054   -0.00165460   -0.00283950
     atom   23 type  2   force =     0.00184567   -0.00229384    0.00220219
     atom   24 type  1   force =    -0.00110532   -0.00173327   -0.00035915
     atom   25 type  2   force =     0.00874265    0.01186010   -0.00901123
     atom   26 type  2   force =    -0.00275325   -0.00068103   -0.00583272
     atom   27 type  1   force =    -0.00100317    0.00031111    0.00518073
     atom   28 type  2   force =     0.00053249   -0.00368912   -0.00514961
     atom   29 type  2   force =     0.00244932    0.00367132   -0.00681519
     atom   30 type  1   force =    -0.00079115    0.00034389    0.00894080
     atom   31 type  2   force =    -0.00013492   -0.00019351    0.00460498
     atom   32 type  2   force =    -0.00475899    0.00272590    0.00494810
     atom   33 type  1   force =     0.00005806    0.00134430    0.00423948
     atom   34 type  2   force =    -0.00121804   -0.02070889   -0.01575239
     atom   35 type  2   force =    -0.00306052    0.00629261   -0.00048448
     atom   36 type  3   force =    -0.03248393    0.01778646    0.00974484
     The non-local contrib.  to forces
     atom    1 type  1   force =     0.00428733    0.02131338   -0.00794249
     atom    2 type  2   force =     0.17242069   -0.10782817   -0.13364919
     atom    3 type  2   force =    -0.01084895   -0.00667113    0.26775351
     atom    4 type  1   force =     0.00126316    0.00933627    0.00238028
     atom    5 type  2   force =     0.00630876   -0.02561328   -0.24654361
     atom    6 type  2   force =    -0.00595560    0.00485514    0.26436535
     atom    7 type  1   force =    -0.02185563   -0.00708688   -0.02201928
     atom    8 type  2   force =     0.00194214   -0.00446807   -0.26066952
     atom    9 type  2   force =     0.00328995   -0.01297021    0.27160627
     atom   10 type  1   force =     0.00196062    0.00326538    0.00044355
     atom   11 type  2   force =     0.01121621    0.00755649   -0.25824477
     atom   12 type  2   force =    -0.01701618   -0.01742655    0.25668024
     atom   13 type  1   force =     0.00105066    0.02229349   -0.00785132
     atom   14 type  2   force =     0.00193821   -0.00943096   -0.25330490
     atom   15 type  2   force =    -0.00962037   -0.00181822    0.26147823
     atom   16 type  1   force =     0.00012271    0.03129325   -0.03310955
     atom   17 type  2   force =     0.00053797   -0.02644458   -0.24694379
     atom   18 type  2   force =    -0.00158002   -0.00096275    0.27026479
     atom   19 type  1   force =     0.01991439   -0.00621956   -0.01921192
     atom   20 type  2   force =    -0.00063931   -0.01933655    0.26131548
     atom   21 type  1   force =     0.00011629    0.02177170    0.00443502
     atom   22 type  2   force =    -0.00269766    0.00541894   -0.25860737
     atom   23 type  2   force =     0.00968601   -0.01662462    0.26518749
     atom   24 type  1   force =    -0.00304307    0.01653416   -0.00521390
     atom   25 type  2   force =     0.00010334   -0.00721446   -0.24120402
     atom   26 type  2   force =     0.00375017   -0.01035272    0.26516500
     atom   27 type  1   force =    -0.00138963    0.00913956    0.00745638
     atom   28 type  2   force =    -0.00329955   -0.02679084   -0.26973522
     atom   29 type  2   force =     0.00603372    0.00201926    0.26102971
     atom   30 type  1   force =     0.00230352    0.01679558    0.00093735
     atom   31 type  2   force =    -0.00624015   -0.00010461   -0.26067323
     atom   32 type  2   force =     0.00144882   -0.01323209    0.27172086
     atom   33 type  1   force =    -0.00322201    0.00279444    0.00331909
     atom   34 type  2   force =     0.00154142    0.01011908   -0.24131343
     atom   35 type  2   force =    -0.00076272   -0.01095689    0.26613953
     atom   36 type  3   force =    -0.02140055    0.01236021   -0.01396894
     The ionic contribution  to forces
     atom    1 type  1   force =     0.55832931    0.31005139    5.20943607
     atom    2 type  2   force =    -1.71744124    1.05655927   38.92815332
     atom    3 type  2   force =    -0.14740231    0.04726695  -36.24724823
     atom    4 type  1   force =    -0.08891326    0.69573481    0.94028672
     atom    5 type  2   force =    -0.91586302    1.40577841   38.67928222
     atom    6 type  2   force =     0.29575816   -0.37530419  -37.95817886
     atom    7 type  1   force =    -2.59623676   -2.75253876    2.49850503
     atom    8 type  2   force =    -0.99269617    0.03809709   37.58204291
     atom    9 type  2   force =     0.23880894   -0.16306799  -37.91261059
     atom   10 type  1   force =    -1.03273754   -0.30286779    3.99803215
     atom   11 type  2   force =    -0.61757196   -1.67657562   39.02403927
     atom   12 type  2   force =     0.22709434    0.55798106  -37.88467513
     atom   13 type  1   force =     0.33100187    0.80246899    2.77078049
     atom   14 type  2   force =     0.08595181    0.04886146   38.68516249
     atom   15 type  2   force =     0.09041368   -0.10777335  -37.01666500
     atom   16 type  1   force =     0.05816022    3.87692665    0.95187073
     atom   17 type  2   force =     0.82099594    1.49277091   38.03546908
     atom   18 type  2   force =    -0.14374265   -0.48591490  -38.43689494
     atom   19 type  1   force =     2.52258683   -2.38682224    0.75950465
     atom   20 type  2   force =     0.18393025   -0.20313476  -38.58992221
[...]
     atom   27 type  1   force =     0.00040777    0.00955440    0.00416116
     atom   28 type  2   force =     0.00130643   -0.02332428   -0.26644644
     atom   29 type  2   force =    -0.00041385   -0.00610507    0.26629105
     atom   30 type  1   force =     0.00335291    0.01416824    0.00187678
     atom   31 type  2   force =    -0.00810036    0.00044961   -0.26487668
     atom   32 type  2   force =     0.00731263   -0.01530397    0.26864651
     atom   33 type  1   force =    -0.00097194    0.00224674    0.00269619
     atom   34 type  2   force =     0.00106895   -0.00040186   -0.25753183
     atom   35 type  2   force =    -0.00049216   -0.01663545    0.26877019
     atom   36 type  3   force =    -0.03326816    0.01862616   -0.03957974
     The ionic contribution  to forces
     atom    1 type  1   force =     1.12272987    0.00984454    0.32478928
     atom    2 type  2   force =    -1.99323526    1.15763012   38.51410863
     atom    3 type  2   force =     0.21217493   -0.14771146  -36.77857104
     atom    4 type  1   force =    -0.09548460    0.61742354    0.50326664
     atom    5 type  2   force =    -0.84037379    1.11487044   38.12597146
     atom    6 type  2   force =     0.41114313   -0.07788550  -38.47216187
     atom    7 type  1   force =    -2.48353904   -2.43319286    2.27747115
     atom    8 type  2   force =    -1.28797477    0.00913522   38.00163792
     atom    9 type  2   force =     0.35812648   -0.04835948  -37.67352986
     atom   10 type  1   force =    -0.97105522   -0.04270850    4.41706183
     atom   11 type  2   force =    -0.71450335   -1.57415256   38.57072366
     atom   12 type  2   force =     0.36721932    0.37051017  -37.88231437
     atom   13 type  1   force =     0.07822959    0.79657765    1.75612550
     atom   14 type  2   force =     0.20496561    0.04295580   38.23860420
     atom   15 type  2   force =    -0.07317612   -0.26559961  -38.12487216
     atom   16 type  1   force =     0.01317959    3.80834191    0.90952176
     atom   17 type  2   force =     0.96490431    1.25397684   38.19473432
     atom   18 type  2   force =    -0.35863750   -0.23842639  -38.08400092
     atom   19 type  1   force =     2.49530320   -2.10843311    2.88832436
     atom   20 type  2   force =     0.00463515    0.01072643  -38.68894312
     atom   21 type  1   force =     0.01495424   -0.33755995    0.23222909
     atom   22 type  2   force =     0.56774604   -1.50724940   38.42788542
     atom   23 type  2   force =    -0.25669988    0.23697366  -37.85451914
     atom   24 type  1   force =    -0.73337236    0.84496281    4.09070381
     atom   25 type  2   force =     0.79154892    0.19071689   38.70418697
     atom   26 type  2   force =    -0.20812429   -0.00976148  -37.44347021
     atom   27 type  1   force =     0.08458918    0.64989496    0.85360929
     atom   28 type  2   force =    -0.10793998    0.79643831   38.21868277
     atom   29 type  2   force =    -0.03788494   -0.13943672  -37.33420216
     atom   30 type  1   force =    -0.01987255   -1.03145095    2.03175056
     atom   31 type  2   force =     1.26316676    0.09791953   38.17768011
     atom   32 type  2   force =    -0.31420613   -0.00413088  -37.68873087
     atom   33 type  1   force =     0.70484723   -0.76985386    2.80378702
     atom   34 type  2   force =     0.23629442   -1.03657798   38.78657624
     atom   35 type  2   force =    -0.05796431    0.13807221  -37.38207043
     atom   36 type  3   force =     0.65828616   -0.37448032    8.35795415
     The local contribution  to forces
     atom    1 type  1   force =    -1.12366136   -0.02628649   -0.31886157
     atom    2 type  2   force =     1.76787290   -1.03385455  -38.51389602
     atom    3 type  2   force =    -0.20743258    0.15767076   36.52604692
     atom    4 type  1   force =     0.09353137   -0.62564807   -0.50655770
     atom    5 type  2   force =     0.83470919   -1.10393501  -37.90229535
     atom    6 type  2   force =    -0.40716538    0.08527021   38.22835862
     atom    7 type  1   force =     2.50559958    2.44036903   -2.25818990
     atom    8 type  2   force =     1.28169740   -0.00902519  -37.75890252
     atom    9 type  2   force =    -0.35175411    0.06376214   37.42625571
     atom   10 type  1   force =     0.97233388    0.03669484   -4.41098256
     atom   11 type  2   force =     0.70404387    1.56872874  -38.33686638
     atom   12 type  2   force =    -0.35616113   -0.35739025   37.64070830
     atom   13 type  1   force =    -0.08237147   -0.81813608   -1.75145777
     atom   14 type  2   force =    -0.19165706   -0.02951590  -38.00695342
     atom   15 type  2   force =     0.07121183    0.26492163   37.88110028
     atom   16 type  1   force =    -0.01410656   -3.84282179   -0.87714951
     atom   17 type  2   force =    -0.95791388   -1.23125299  -37.96238128
     atom   18 type  2   force =     0.35677899    0.24475382   37.83906231
     atom   19 type  1   force =    -2.51736946    2.11380933   -2.86282496
     atom   20 type  2   force =    -0.00514182    0.00289125   38.44787209
     atom   21 type  1   force =    -0.01413520    0.31611002   -0.23731057
     atom   22 type  2   force =    -0.56365253    1.50582777  -38.18913489
     atom   23 type  2   force =     0.24815285   -0.22764258   37.60815003
     atom   24 type  1   force =     0.73852249   -0.85987917   -4.08526337
     atom   25 type  2   force =    -0.78964691   -0.17889147  -38.47567503
     atom   26 type  2   force =     0.20077991    0.01700691   37.19635603
     atom   27 type  1   force =    -0.08493835   -0.65983545   -0.85841678
     atom   28 type  2   force =     0.10703303   -0.77460569  -37.97366604
     atom   29 type  2   force =     0.03760563    0.14557429   37.08828355
     atom   30 type  1   force =     0.01659066    1.01794583   -2.03329255
     atom   31 type  2   force =    -1.25514290   -0.09850473  -37.93427597
     atom   32 type  2   force =     0.30847280    0.01783560   37.44037167
     atom   33 type  1   force =    -0.70386707    0.76730004   -2.80659041
     atom   34 type  2   force =    -0.23785888    1.03811258  -38.54837995
     atom   35 type  2   force =     0.05799898   -0.12382044   37.13513483
     atom   36 type  3   force =    -0.62525988    0.35729384   -8.31884575
     The core correction contribution to forces
     atom    1 type  1   force =     0.00000000    0.00000000    0.00000000
     atom    2 type  2   force =    -0.01576586    0.00867086    0.00240475
     atom    3 type  2   force =     0.00051344    0.00017280   -0.02120531
     atom    4 type  1   force =     0.00000000    0.00000000    0.00000000
     atom    5 type  2   force =    -0.00053483    0.00039931    0.01990861
     atom    6 type  2   force =     0.00038890    0.00018030   -0.02089393
     atom    7 type  1   force =     0.00000000    0.00000000    0.00000000
     atom    8 type  2   force =    -0.00042801    0.00026902    0.02064231
     atom    9 type  2   force =     0.00061692    0.00084879   -0.02082704
     atom   10 type  1   force =     0.00000000    0.00000000    0.00000000
     atom   11 type  2   force =    -0.00061940   -0.00059264    0.02027031
     atom   12 type  2   force =     0.00101357    0.00111025   -0.02078602
     atom   13 type  1   force =     0.00000000    0.00000000    0.00000000
     atom   14 type  2   force =     0.00080846    0.00031700    0.02024644
     atom   15 type  2   force =    -0.00028326   -0.00020347   -0.02082550
     atom   16 type  1   force =     0.00000000    0.00000000    0.00000000
     atom   17 type  2   force =     0.00062699    0.00105952    0.02027055
     atom   18 type  2   force =    -0.00036901   -0.00011553   -0.02081484
     atom   19 type  1   force =     0.00000000    0.00000000    0.00000000
     atom   20 type  2   force =    -0.00002474    0.00062623   -0.02116295
     atom   21 type  1   force =     0.00000000    0.00000000    0.00000000
     atom   22 type  2   force =     0.00016775   -0.00020942    0.02047844
     atom   23 type  2   force =    -0.00076316    0.00078475   -0.02091189
     atom   24 type  1   force =     0.00000000    0.00000000    0.00000000
     atom   25 type  2   force =     0.00062108    0.00052577    0.01985349
     atom   26 type  2   force =    -0.00058591    0.00024472   -0.02094477
     atom   27 type  1   force =     0.00000000    0.00000000    0.00000000
     atom   28 type  2   force =    -0.00010339    0.00159502    0.02065660
     atom   29 type  2   force =     0.00001685    0.00002116   -0.02075477
     atom   30 type  1   force =     0.00000000    0.00000000    0.00000000
     atom   31 type  2   force =     0.00045461    0.00028528    0.02073734
     atom   32 type  2   force =    -0.00054260    0.00077472   -0.02090889
     atom   33 type  1   force =     0.00000000    0.00000000    0.00000000
     atom   34 type  2   force =     0.00021053   -0.00042501    0.02028516
     atom   35 type  2   force =    -0.00005076    0.00101860   -0.02100407
     atom   36 type  3   force =     0.00000000    0.00000000    0.00000000
     The Hubbard contrib.    to forces
     atom    1 type  1   force =     0.00000000    0.00000000    0.00000000
     atom    2 type  2   force =     0.00000000    0.00000000    0.00000000
     atom    3 type  2   force =     0.00000000    0.00000000    0.00000000
     atom    4 type  1   force =     0.00000000    0.00000000    0.00000000
     atom    5 type  2   force =     0.00000000    0.00000000    0.00000000
     atom    6 type  2   force =     0.00000000    0.00000000    0.00000000
     atom    7 type  1   force =     0.00000000    0.00000000    0.00000000
     atom    8 type  2   force =     0.00000000    0.00000000    0.00000000
     atom    9 type  2   force =     0.00000000    0.00000000    0.00000000
     atom   10 type  1   force =     0.00000000    0.00000000    0.00000000
     atom   11 type  2   force =     0.00000000    0.00000000    0.00000000
     atom   12 type  2   force =     0.00000000    0.00000000    0.00000000
     atom   13 type  1   force =     0.00000000    0.00000000    0.00000000
     atom   14 type  2   force =     0.00000000    0.00000000    0.00000000
     atom   15 type  2   force =     0.00000000    0.00000000    0.00000000
     atom   16 type  1   force =     0.00000000    0.00000000    0.00000000
     atom   17 type  2   force =     0.00000000    0.00000000    0.00000000
     atom   18 type  2   force =     0.00000000    0.00000000    0.00000000
     atom   19 type  1   force =     0.00000000    0.00000000    0.00000000
     atom   20 type  2   force =     0.00000000    0.00000000    0.00000000
     atom   21 type  1   force =     0.00000000    0.00000000    0.00000000
     atom   22 type  2   force =     0.00000000    0.00000000    0.00000000
     atom   23 type  2   force =     0.00000000    0.00000000    0.00000000
     atom   24 type  1   force =     0.00000000    0.00000000    0.00000000
     atom   25 type  2   force =     0.00000000    0.00000000    0.00000000
     atom   26 type  2   force =     0.00000000    0.00000000    0.00000000
     atom   27 type  1   force =     0.00000000    0.00000000    0.00000000
     atom   28 type  2   force =     0.00000000    0.00000000    0.00000000
     atom   29 type  2   force =     0.00000000    0.00000000    0.00000000
     atom   30 type  1   force =     0.00000000    0.00000000    0.00000000
     atom   31 type  2   force =     0.00000000    0.00000000    0.00000000
     atom   32 type  2   force =     0.00000000    0.00000000    0.00000000
     atom   33 type  1   force =     0.00000000    0.00000000    0.00000000
     atom   34 type  2   force =     0.00000000    0.00000000    0.00000000
     atom   35 type  2   force =     0.00000000    0.00000000    0.00000000
     atom   36 type  3   force =     0.00000000    0.00000000    0.00000000
     The SCF correction term to forces
     atom    1 type  1   force =    -0.00001240   -0.00000717    0.00004644
     atom    2 type  2   force =    -0.00000426    0.00000264    0.00005511
     atom    3 type  2   force =     0.00000031   -0.00000344    0.00000933
     atom    4 type  1   force =     0.00000658   -0.00001287    0.00005409
     atom    5 type  2   force =     0.00000001   -0.00000893    0.00003457
     atom    6 type  2   force =     0.00000244   -0.00000804    0.00001459
     atom    7 type  1   force =    -0.00000350    0.00001448    0.00004041
     atom    8 type  2   force =    -0.00000179   -0.00000370    0.00002469
     atom    9 type  2   force =     0.00000106    0.00000225    0.00001164
     atom   10 type  1   force =    -0.00000921    0.00000299    0.00003407
     atom   11 type  2   force =    -0.00000064    0.00001018    0.00002615
     atom   12 type  2   force =     0.00000042    0.00000649    0.00001091
     atom   13 type  1   force =     0.00000759   -0.00000408    0.00005484
     atom   14 type  2   force =     0.00000314    0.00000397    0.00003316
     atom   15 type  2   force =    -0.00000071   -0.00000024    0.00001461
     atom   16 type  1   force =    -0.00000217   -0.00001759    0.00006437
     atom   17 type  2   force =     0.00000327   -0.00000771    0.00002923
     atom   18 type  2   force =     0.00000134   -0.00000890    0.00001745
     atom   19 type  1   force =     0.00001767    0.00000971    0.00004519
     atom   20 type  2   force =     0.00000379    0.00000719    0.00001556
     atom   21 type  1   force =     0.00000497    0.00000718    0.00004554
     atom   22 type  2   force =     0.00000221    0.00000739    0.00002403
     atom   23 type  2   force =     0.00000325    0.00000722    0.00001199
     atom   24 type  1   force =     0.00000895    0.00000363    0.00004412
     atom   25 type  2   force =     0.00000135    0.00000675    0.00002787
     atom   26 type  2   force =    -0.00000260   -0.00000171    0.00001231
     atom   27 type  1   force =    -0.00000178   -0.00002337    0.00005824
     atom   28 type  2   force =    -0.00000421   -0.00001062    0.00003343
     atom   29 type  2   force =    -0.00000242   -0.00000732    0.00001407
     atom   30 type  1   force =    -0.00000748    0.00000687    0.00003325
     atom   31 type  2   force =    -0.00000077   -0.00000226    0.00002644
     atom   32 type  2   force =    -0.00000453    0.00000281    0.00001197
     atom   33 type  1   force =     0.00000990    0.00001247    0.00004213
     atom   34 type  2   force =    -0.00000434    0.00000823    0.00002343
     atom   35 type  2   force =    -0.00000465    0.00000754    0.00000687
     atom   36 type  3   force =    -0.00000284    0.00000288    0.00000535

     Total force =     0.005829     Total SCF correction =     0.000211
     Energy error            =      9.0E-05 Ry
     Gradient error          =      1.4E-03 Ry/Bohr

     bfgs converged in  21 scf cycles and  20 bfgs steps
     (criteria: energy <  1.0E-04 Ry, force <  1.0E-02 Ry/Bohr)

     End of BFGS Geometry Optimization

     Final energy             =   -2205.5826630412 Ry

     File ./MoS2-V-O.bfgs deleted, as requested
Begin final coordinates

ATOMIC_POSITIONS (angstrom)
Mo            6.5444336232        1.7783128191        2.6926356153
S             8.2253721665        0.7760664720        4.5136792715
S             8.1630337432        0.8278509616        1.2082640714
Mo            8.1199126005        4.4727116002        2.7035684389
S             6.5110477907        3.6582105863        4.2801161133
S             6.5503408033        3.5670312614        1.0734882735
Mo            6.5193292221        7.1981981591        2.6545893518
S             8.0821153278        6.2931777374        4.2888086388
S             8.1531612371        6.3194549124        1.1135907285
Mo            8.1569913766        9.9212979489        2.8019070805
S             6.5121821854        8.9418508927        4.3265203184
S             6.6208609810        9.0370942631        1.1227996307
Mo            3.4408955288        1.7461462242        2.7377371265
S             5.0257151111        0.8264857662        4.3056482168
S             4.9969448756        0.8341799735        1.1161699507
Mo            4.9938998752        4.5329231050        2.6263994031
S             3.4763364655        3.6555582903        4.2878552782
S             3.4211794236        3.5575081127        1.0970076093
Mo            3.4927843472        7.1850745398        2.6643998458
S             5.0032789437        6.3237233578        1.0262830719
Mo            5.0176503663        9.9189734189        2.7071396065
S             3.4984290982        8.9579802685        4.3149468134
S             3.4052679323        9.0272765571        1.1198343027
Mo            0.2816976086        1.7288147181        2.8022376537
S             1.8974063628        0.8424016179        4.3630797051
S             1.8346682981        0.8305813829        1.1763908407
Mo            1.8664997795        4.4828384419        2.7116933692
S             0.2677133274        3.6161549628        4.3241432224
S             0.2719386445        3.5316724413        1.1592370359
Mo            0.2771586077        7.2056846185        2.7349954340
S             1.9277700314        6.2970015227        4.2978747163
S             1.8545198098        6.3193902789        1.1166031123
Mo            1.8645111038        9.9297681843        2.7679052105
S             0.2961847633        8.9945878734        4.3683956810
S             0.2708214732        9.0485431542        1.1765039164
H             9.0870541771        0.2964199853        5.5082989216
End final coordinates



     Writing all to output data dir ./MoS2-V-O.save/
 
     init_run     :      2.47s CPU      3.29s WALL (       1 calls)
     electrons    :   1818.21s CPU   2026.40s WALL (      21 calls)
     update_pot   :     27.94s CPU     29.42s WALL (      20 calls)
     forces       :     27.56s CPU     31.30s WALL (      21 calls)

     Called by init_run:
     wfcinit      :      0.40s CPU      0.55s WALL (       1 calls)
     potinit      :      1.42s CPU      1.69s WALL (       1 calls)
     hinit0       :      0.13s CPU      0.39s WALL (       1 calls)

     Called by electrons:
     c_bands      :    218.06s CPU    221.71s WALL (     179 calls)
     sum_band     :     51.16s CPU     63.30s WALL (     179 calls)
     v_of_rho     :     71.33s CPU     86.29s WALL (     186 calls)
     newd         :     24.08s CPU     35.08s WALL (     186 calls)
     mix_rho      :   1462.19s CPU   1628.76s WALL (     179 calls)

     Called by c_bands:
     init_us_2    :      3.79s CPU      4.08s WALL (     359 calls)
     init_us_2:cp :      3.79s CPU      4.08s WALL (     359 calls)
     regterg      :    204.66s CPU    207.87s WALL (     179 calls)

     Called by *egterg:
     rdiaghg      :     17.18s CPU     17.42s WALL (     970 calls)
     h_psi        :    117.84s CPU    119.00s WALL (    1005 calls)
     s_psi        :     14.88s CPU     14.93s WALL (    1005 calls)
     g_psi        :      0.76s CPU      0.77s WALL (     825 calls)

     Called by h_psi:
     h_psi:calbec :     17.13s CPU     17.25s WALL (    1005 calls)
     vloc_psi     :     84.42s CPU     85.34s WALL (    1005 calls)
     add_vuspsi   :     14.57s CPU     14.67s WALL (    1005 calls)

     General routines
     calbec       :     24.22s CPU     24.38s WALL (    1268 calls)
     fft          :     46.33s CPU     55.15s WALL (   12577 calls)
     ffts         :    655.42s CPU    816.77s WALL (  358337 calls)
     fftw         :     72.26s CPU     72.97s WALL (  108555 calls)
     interpolate  :      1.35s CPU      1.61s WALL (     186 calls)
 
     Parallel routines
 
     PWSCF        :  31m19.90s CPU  34m57.18s WALL

 
   This run was terminated on:  12:27: 2   4Nov2023            

=------------------------------------------------------------------------------=
   JOB DONE.
=------------------------------------------------------------------------------=
