
     Program PWSCF v.7.2 starts on  3Nov2023 at 23:18: 0 

     This program is part of the open-source Quantum ESPRESSO suite
     for quantum simulation of materials; please cite
         "P. Giannozzi et al., J. Phys.:Condens. Matter 21 395502 (2009);
         "P. Giannozzi et al., J. Phys.:Condens. Matter 29 465901 (2017);
         "P. Giannozzi et al., J. Chem. Phys. 152 154105 (2020);
          URL http://www.quantum-espresso.org", 
     in publications or presentations arising from this work. More details at
     http://www.quantum-espresso.org/quote

     Parallel version (MPI & OpenMP), running on      48 processor cores
     Number of MPI processes:                48
     Threads/MPI process:                     1

     MPI processes distributed on     1 nodes
     91784 MiB available memory on the printing compute node when the environment starts
 
     Waiting for input...
     Reading input from standard input
Warning: card &CELL ignored
Warning: card CELL_DYNAMICS = 'BFGS', ignored
Warning: card CELL_DOFREE = '2DXY' ignored
Warning: card / ignored

     Current dimensions of program PWSCF are:
     Max number of different atomic species (ntypx) = 10
     Max number of k-points (npk) =  40000
     Max angular momentum in pseudopotentials (lmaxx) =  4

     IMPORTANT: XC functional enforced from input :
     Exchange-correlation= RVV10
                           (   1   4  13   4  26   0   0)
     Any further DFT definition will be discarded
     Please, verify this is what you really want


     gamma-point specific algorithms are used
     signal trapping enabled: kill the code with -SIGUSR1 to stop cleanly the simulation 
 
     R & G space division:  proc/nbgrp/npool/nimage =      48
     Subspace diagonalization in iterative solution of the eigenvalue problem:
     one sub-group per band group will be used
     scalapack distributed-memory algorithm (size of sub-group:  2*  2 procs)

 
     Parallelization info
     --------------------
     sticks:   dense  smooth     PW     G-vecs:    dense   smooth      PW
     Min         243     194     47                49060    35090    4376
     Max         246     196     50                49086    35128    4410
     Sum       11735    9389   2349              2355467  1685513  210763
 
     Using Slab Decomposition
 


     bravais-lattice index     =            0
     lattice parameter (alat)  =      17.8707  a.u.
     unit-cell volume          =   17436.2743 (a.u.)^3
     number of atoms/cell      =           36
     number of atomic types    =            3
     number of electrons       =       307.00
     number of Kohn-Sham states=          185
     kinetic-energy cutoff     =      80.0000  Ry
     charge density cutoff     =     400.0000  Ry
     scf convergence threshold =      1.0E-06
     mixing beta               =       0.7000
     number of iterations used =            8  local-TF  mixing
     energy convergence thresh.=      1.0E-04
     force convergence thresh. =      1.0E-02
     Exchange-correlation= RVV10
                           (   1   4  13   4  26   0   0)
     nstep                     =          200


     celldm(1)=  17.870686  celldm(2)=   0.000000  celldm(3)=   0.000000
     celldm(4)=   0.000000  celldm(5)=   0.000000  celldm(6)=   0.000000

     crystal axes: (cart. coord. in units of alat)
               a(1) = (   1.000000   0.000000   0.000000 )  
               a(2) = (   0.000000   1.155671   0.000000 )  
               a(3) = (   0.000000   0.000000   2.643601 )  

     reciprocal axes: (cart. coord. in units 2 pi/alat)
               b(1) = (  1.000000  0.000000  0.000000 )  
               b(2) = (  0.000000  0.865298  0.000000 )  
               b(3) = (  0.000000  0.000000  0.378272 )  


     PseudoPot. # 1 for Mo read from file:
     ../pseudo/Mo_ONCV_PBE-1.0.oncvpsp.upf
     MD5 check sum: 1b5d28e075c9ccadda658a603575cd1f
     Pseudo is Norm-conserving, Zval = 14.0
     Generated using ONCVPSP code by D. R. Hamann
     Using radial grid of 1526 points,  6 beta functions with: 
                l(1) =   0
                l(2) =   0
                l(3) =   1
                l(4) =   1
                l(5) =   2
                l(6) =   2

     PseudoPot. # 2 for S  read from file:
     ../pseudo/s_pbe_v1.4.uspp.F.UPF
     MD5 check sum: 88d86576ff6df21479756cfb9bdac1df
     Pseudo is Ultrasoft + core correction, Zval =  6.0
     Generated by new atomic code, or converted to UPF format
     Using radial grid of  907 points,  6 beta functions with: 
                l(1) =   0
                l(2) =   0
                l(3) =   1
                l(4) =   1
                l(5) =   2
                l(6) =   2
     Q(r) pseudized with  8 coefficients,  rinner =    1.300   1.300   1.300
                                                       1.300   1.300

     PseudoPot. # 3 for H  read from file:
     ../pseudo/H_ONCV_PBE-1.0.oncvpsp.upf
     MD5 check sum: 1790becc920ee074925cf490c71280fe
     Pseudo is Norm-conserving, Zval =  1.0
     Generated using ONCVPSP code by D. R. Hamann
     Using radial grid of 1166 points,  2 beta functions with: 
                l(1) =   0
                l(2) =   0

     atomic species   valence    mass     pseudopotential
        Mo            14.00    95.94000     Mo( 1.00)
        S              6.00    32.06500     S ( 1.00)
        H              1.00     1.00794     H ( 1.00)

     No symmetry found



   Cartesian axes

     site n.     atom                  positions (alat units)
         1           Mo  tau(   1) = (   0.6952221   0.1890506   0.2985846  )
         2           S   tau(   2) = (   0.8646417   0.0856217   0.4689279  )
         3           S   tau(   3) = (   0.8663890   0.0857843   0.1351291  )
         4           Mo  tau(   4) = (   0.8560186   0.4753274   0.2873942  )
         5           S   tau(   5) = (   0.6873294   0.3936244   0.4596353  )
         6           S   tau(   6) = (   0.6929804   0.3713468   0.1185692  )
         7           Mo  tau(   7) = (   0.6862796   0.7633098   0.2825370  )
         8           S   tau(   8) = (   0.8545980   0.6708292   0.4486168  )
         9           S   tau(   9) = (   0.8545123   0.6666874   0.1146125  )
        10           Mo  tau(  10) = (   0.8629403   1.0471007   0.3006803  )
        11           S   tau(  11) = (   0.6868280   0.9456650   0.4634891  )
        12           S   tau(  12) = (   0.6998113   0.9568511   0.1205389  )
        13           Mo  tau(  13) = (   0.3618216   0.1847309   0.2935964  )
        14           S   tau(  14) = (   0.5260962   0.0863870   0.4600448  )
        15           S   tau(  15) = (   0.5348379   0.0894875   0.1297123  )
        16           Mo  tau(  16) = (   0.5265817   0.4772436   0.2784130  )
        17           S   tau(  17) = (   0.3624753   0.3882513   0.4525556  )
        18           S   tau(  18) = (   0.3635411   0.3752055   0.1119148  )
        19           Mo  tau(  19) = (   0.3652268   0.7630864   0.2781795  )
        20           S   tau(  20) = (   0.5269494   0.6690381   0.1096838  )
        21           Mo  tau(  21) = (   0.5300192   1.0470394   0.2900995  )
        22           S   tau(  22) = (   0.3670346   0.9457522   0.4574073  )
        23           S   tau(  23) = (   0.3604225   0.9585725   0.1159032  )
        24           Mo  tau(  24) = (   0.0313099   0.1847895   0.3013130  )
        25           S   tau(  25) = (   0.1956761   0.0838230   0.4650863  )
        26           S   tau(  26) = (   0.1967693   0.0903508   0.1278874  )
        27           Mo  tau(  27) = (   0.1967578   0.4753919   0.2813011  )
        28           S   tau(  28) = (   0.0287851   0.3864324   0.4586755  )
        29           S   tau(  29) = (   0.0244514   0.3729871   0.1239344  )
        30           Mo  tau(  30) = (   0.0286728   0.7631204   0.2856894  )
        31           S   tau(  31) = (   0.2011512   0.6675435   0.4465001  )
        32           S   tau(  32) = (   0.1969214   0.6672839   0.1104564  )
        33           Mo  tau(  33) = (   0.1950294   1.0511147   0.2932237  )
        34           S   tau(  34) = (   0.0312912   0.9612169   0.4667423  )
        35           S   tau(  35) = (   0.0292670   0.9563028   0.1216485  )
        36           H   tau(  36) = (   0.5555556   0.2568157   0.5407634  )

     number of k points=     1  Gaussian smearing, width (Ry)=  0.0100
                       cart. coord. in units 2pi/alat
        k(    1) = (   0.0000000   0.0000000   0.0000000), wk =   2.0000000

     Dense  grid:  1177734 G-vectors     FFT dimensions: ( 120, 135, 320)

     Smooth grid:   842757 G-vectors     FFT dimensions: ( 108, 120, 270)

     Estimated max dynamical RAM per process >     146.59 MB

     Estimated total dynamical RAM >       6.87 GB

     Initial potential from superposition of free atoms

     starting charge     306.9873, renormalised to     307.0000

     negative rho (up, down):  1.417E-04 0.000E+00


---------------------------------------------------------------------------------
Carrying out rVV10 run using the following parameters:
Nqs =      20    Nr_points =    1024   r_max =   100.000
b_value =  6.30000    beta =  0.00901
     q_mesh =  0.00010000  0.00030000  0.00058939  0.00100810
               0.00161396  0.00249058  0.00375900  0.00559430
               0.00824984  0.01209221  0.01765183  0.02569619
               0.03733578  0.05417739  0.07854596  0.11380545
               0.16482331  0.23864234  0.34545298  0.50000000

Gradients computed in Reciprocal space

---------------------------------------------------------------------------------


     Starting wfcs are  213 randomized atomic wfcs

     total cpu time spent up to now is        2.7 secs

     Self-consistent Calculation

     iteration #  1     ecut=    80.00 Ry     beta= 0.70
     Davidson diagonalization with overlap
     ethr =  1.00E-02,  avg # of iterations =  2.0

     Threshold (ethr) on eigenvalues was too large:
     Diagonalizing with lowered threshold

     Davidson diagonalization with overlap
     ethr =  3.46E-04,  avg # of iterations =  4.0

     negative rho (up, down):  1.761E-08 0.000E+00

     total cpu time spent up to now is       27.2 secs

     total energy              =   -2205.58122102 Ry
     estimated scf accuracy    <       1.34587140 Ry

     iteration #  2     ecut=    80.00 Ry     beta= 0.70
     Davidson diagonalization with overlap
     ethr =  4.38E-04,  avg # of iterations =  2.0

     total cpu time spent up to now is       29.6 secs

     total energy              =   -2205.42980868 Ry
     estimated scf accuracy    <       0.55588333 Ry

     iteration #  3     ecut=    80.00 Ry     beta= 0.70
     Davidson diagonalization with overlap
     ethr =  1.81E-04,  avg # of iterations =  2.0

     total cpu time spent up to now is       32.0 secs

     total energy              =   -2205.50654071 Ry
     estimated scf accuracy    <       0.09995626 Ry

     iteration #  4     ecut=    80.00 Ry     beta= 0.70
     Davidson diagonalization with overlap
     ethr =  3.26E-05,  avg # of iterations =  9.0

     total cpu time spent up to now is       34.6 secs

     total energy              =   -2205.51325807 Ry
     estimated scf accuracy    <       0.02811513 Ry

     iteration #  5     ecut=    80.00 Ry     beta= 0.70
     Davidson diagonalization with overlap
     c_bands:  1 eigenvalues not converged
     ethr =  9.16E-06,  avg # of iterations = 20.0

     total cpu time spent up to now is       37.4 secs

     total energy              =   -2205.51373849 Ry
     estimated scf accuracy    <       0.01741413 Ry

     iteration #  6     ecut=    80.00 Ry     beta= 0.70
     Davidson diagonalization with overlap
     ethr =  5.67E-06,  avg # of iterations = 20.0

     total cpu time spent up to now is       40.2 secs

     total energy              =   -2205.51277698 Ry
     estimated scf accuracy    <       0.01186588 Ry

     iteration #  7     ecut=    80.00 Ry     beta= 0.70
     Davidson diagonalization with overlap
     ethr =  3.87E-06,  avg # of iterations =  2.0

     negative rho (up, down):  9.832E-05 0.000E+00

     total cpu time spent up to now is       45.4 secs

     total energy              =   -2205.51072830 Ry
     estimated scf accuracy    <       0.00733912 Ry

     iteration #  8     ecut=    80.00 Ry     beta= 0.70
     Davidson diagonalization with overlap
     ethr =  2.39E-06,  avg # of iterations =  5.0

     negative rho (up, down):  8.663E-03 0.000E+00

     total cpu time spent up to now is       49.6 secs

     total energy              =   -2205.51075043 Ry
     estimated scf accuracy    <       0.00347731 Ry

     iteration #  9     ecut=    80.00 Ry     beta= 0.70
     Davidson diagonalization with overlap
     ethr =  1.13E-06,  avg # of iterations =  1.0

     negative rho (up, down):  3.142E-02 0.000E+00

     total cpu time spent up to now is       54.1 secs

     total energy              =   -2205.51066006 Ry
     estimated scf accuracy    <       0.00207270 Ry

     iteration # 10     ecut=    80.00 Ry     beta= 0.70
     Davidson diagonalization with overlap
     ethr =  6.75E-07,  avg # of iterations =  5.0

     negative rho (up, down):  2.968E-02 0.000E+00

     total cpu time spent up to now is       59.3 secs

     total energy              =   -2205.51078828 Ry
     estimated scf accuracy    <       0.00081638 Ry

     iteration # 11     ecut=    80.00 Ry     beta= 0.70
     Davidson diagonalization with overlap
     ethr =  2.66E-07,  avg # of iterations =  2.0

     negative rho (up, down):  1.198E-02 0.000E+00

     total cpu time spent up to now is       64.3 secs

     total energy              =   -2205.51077650 Ry
     estimated scf accuracy    <       0.00020298 Ry

     iteration # 12     ecut=    80.00 Ry     beta= 0.70
     Davidson diagonalization with overlap
     ethr =  6.61E-08,  avg # of iterations =  6.0

     negative rho (up, down):  4.364E-03 0.000E+00

     total cpu time spent up to now is       73.2 secs

     total energy              =   -2205.51086814 Ry
     estimated scf accuracy    <       0.00004947 Ry

     iteration # 13     ecut=    80.00 Ry     beta= 0.70
     Davidson diagonalization with overlap
     ethr =  1.61E-08,  avg # of iterations =  5.0

     negative rho (up, down):  1.033E-03 0.000E+00

     total cpu time spent up to now is       80.0 secs

     total energy              =   -2205.51088009 Ry
     estimated scf accuracy    <       0.00000254 Ry

     iteration # 14     ecut=    80.00 Ry     beta= 0.70
     Davidson diagonalization with overlap
     ethr =  8.28E-10,  avg # of iterations = 17.0

     negative rho (up, down):  1.378E-04 0.000E+00

     total cpu time spent up to now is       83.3 secs

     End of self-consistent calculation

          k = 0.0000 0.0000 0.0000 (105382 PWs)   bands (ev):

   -62.8966 -62.8821 -62.8759 -62.8612 -62.8467 -62.8356 -62.8247 -62.8121
   -62.8059 -62.8005 -62.7871 -62.7267 -37.2427 -37.1689 -37.1625 -37.1525
   -37.1435 -37.1217 -37.0939 -37.0917 -37.0853 -37.0634 -37.0609 -37.0564
   -37.0495 -37.0423 -37.0302 -37.0282 -37.0155 -37.0138 -37.0072 -36.9901
   -36.9856 -36.9734 -36.9553 -36.9502 -36.9435 -36.9262 -36.9158 -36.9064
   -36.9045 -36.8986 -36.8780 -36.8607 -36.8482 -36.8182 -36.7435 -36.7376
   -16.0377 -15.2621 -15.2085 -15.0010 -14.9795 -14.8816 -14.5867 -14.5082
   -14.4994 -14.4567 -14.4431 -14.3826 -14.3443 -14.3082 -14.1947 -14.1594
   -14.1349 -14.1121 -14.0713 -13.9141 -13.8592 -13.8341 -13.8140  -8.2321
    -7.5894  -7.4628  -7.3077  -7.2947  -7.2253  -7.2238  -7.1478  -6.9855
    -6.8529  -6.7871  -6.7537  -6.7021  -6.5942  -6.5246  -6.4936  -6.4196
    -6.3106  -6.2739  -6.1274  -6.0234  -5.9187  -5.8672  -5.8498  -5.7990
    -5.7753  -5.7545  -5.6933  -5.6848  -5.6300  -5.5891  -5.5658  -5.4799
    -5.4379  -5.3955  -5.1981  -5.1520  -5.0593  -5.0242  -5.0095  -4.9774
    -4.9560  -4.8446  -4.6982  -4.5323  -4.3578  -4.3505  -4.2858  -4.2625
    -4.1880  -4.0716  -4.0386  -3.9067  -3.8842  -3.8091  -3.7431  -3.7003
    -3.6412  -3.6119  -3.5474  -3.5112  -3.5077  -3.4833  -3.4602  -3.4143
    -3.3903  -3.2182  -3.1482  -2.9211  -2.8973  -2.8146  -2.7877  -2.7751
    -2.7310  -2.6799  -2.6615  -2.6407  -2.5819  -2.3155  -2.0556  -1.9990
    -1.9414  -1.0798  -0.8022  -0.7369  -0.1902  -0.1574  -0.0864  -0.0319
     0.0161   0.1032   0.1369   0.1968   0.2462   0.2693   0.3967   0.4257
     0.4591   0.5263   0.5355   0.5549   0.5940   0.6649   0.7227   0.7310
     0.7527   0.7578   0.8341   0.8563   0.9150   0.9858   1.0325   1.2300
     1.3756

     the Fermi energy is    -1.0803 ev

!    total energy              =   -2205.51088227 Ry
     estimated scf accuracy    <       0.00000086 Ry
     smearing contrib. (-TS)   =      -0.00573814 Ry
     internal energy E=F+TS    =   -2205.50514413 Ry

     The total energy is F=E-TS. E is the sum of the following terms:
     one-electron contribution =  -18053.34643745 Ry
     hartree contribution      =    9013.30418295 Ry
     xc contribution           =    -385.24706694 Ry
     ewald contribution        =    7219.78417731 Ry

     convergence has been achieved in  14 iterations

     negative rho (up, down):  1.378E-04 0.000E+00

     Forces acting on atoms (cartesian axes, Ry/au):

     atom    1 type  1   force =     0.02823763   -0.03191152   -0.02131784
     atom    2 type  2   force =    -0.01581419    0.01781513    0.00082688
     atom    3 type  2   force =    -0.01099357    0.00930977   -0.00227361
     atom    4 type  1   force =     0.01681296    0.01197389   -0.01939671
     atom    5 type  2   force =    -0.03131924   -0.02312960    0.01959148
     atom    6 type  2   force =     0.00218098    0.01023997   -0.00023090
     atom    7 type  1   force =     0.00779966   -0.01541104   -0.01099896
     atom    8 type  2   force =     0.00048049   -0.00402441    0.01980927
     atom    9 type  2   force =     0.01319381    0.00425925    0.01316548
     atom   10 type  1   force =    -0.01377882    0.01121297   -0.02571890
     atom   11 type  2   force =     0.00654650   -0.00278745   -0.00570685
     atom   12 type  2   force =    -0.00403556   -0.00017910    0.00684375
     atom   13 type  1   force =     0.00093087    0.00425668   -0.01511152
     atom   14 type  2   force =     0.00903942    0.05658947    0.05298283
     atom   15 type  2   force =    -0.01234633    0.00204694   -0.00742488
     atom   16 type  1   force =    -0.00254161    0.01081451    0.00363423
     atom   17 type  2   force =     0.01369862   -0.00449777    0.00426847
     atom   18 type  2   force =    -0.00324149   -0.00659088    0.01273058
     atom   19 type  1   force =     0.00568694   -0.01112899   -0.00548800
     atom   20 type  2   force =     0.00301326   -0.00207228   -0.00030600
     atom   21 type  1   force =    -0.00455767   -0.01251396   -0.02594132
     atom   22 type  2   force =    -0.00327236   -0.00187864   -0.00344065
     atom   23 type  2   force =     0.00096160    0.00138807    0.00975439
     atom   24 type  1   force =    -0.01013515   -0.00187813   -0.02240407
     atom   25 type  2   force =     0.01584447    0.01839230    0.00750796
     atom   26 type  2   force =    -0.01294539   -0.00168511   -0.00401904
     atom   27 type  1   force =    -0.00483238    0.00406303    0.00263034
     atom   28 type  2   force =     0.00088131   -0.00118716   -0.00462189
     atom   29 type  2   force =     0.00204246   -0.00222923   -0.00297631
     atom   30 type  1   force =    -0.00323386    0.01133688   -0.00541894
     atom   31 type  2   force =     0.00104818   -0.00026019    0.01627846
     atom   32 type  2   force =    -0.00878878    0.00577420    0.00879047
     atom   33 type  1   force =     0.01424446   -0.00303742   -0.00836504
     atom   34 type  2   force =     0.00321818   -0.04317725   -0.00967440
     atom   35 type  2   force =    -0.00806629    0.00612949    0.01543349
     atom   36 type  3   force =     0.00404088   -0.01602240    0.00658776
     The non-local contrib.  to forces
     atom    1 type  1   force =    -0.00402247    0.03195749   -0.00504990
     atom    2 type  2   force =    -0.01475431    0.00563944   -0.26634925
     atom    3 type  2   force =    -0.01382728   -0.00256515    0.27107077
     atom    4 type  1   force =    -0.00338715    0.00441704    0.00398895
     atom    5 type  2   force =    -0.06350811   -0.09397702   -0.18057422
     atom    6 type  2   force =    -0.00253042    0.01091835    0.26347518
     atom    7 type  1   force =    -0.01969386    0.00284983   -0.01922248
     atom    8 type  2   force =     0.00603513    0.00009752   -0.24933458
     atom    9 type  2   force =     0.00672003   -0.01017767    0.27872966
     atom   10 type  1   force =     0.00497421   -0.00052927   -0.00070723
     atom   11 type  2   force =     0.01582310    0.00202158   -0.25799255
     atom   12 type  2   force =    -0.01495088   -0.01644350    0.26359344
     atom   13 type  1   force =     0.00322430    0.01615717   -0.00183487
     atom   14 type  2   force =     0.02772780    0.14367166   -0.14256147
     atom   15 type  2   force =    -0.01337676   -0.00521024    0.26135175
     atom   16 type  1   force =     0.00485101    0.02721572   -0.02715678
     atom   17 type  2   force =     0.01185589   -0.03211173   -0.22743607
     atom   18 type  2   force =    -0.00238553   -0.00468367    0.27266850
     atom   19 type  1   force =     0.01179966   -0.00245351   -0.01592953
     atom   20 type  2   force =    -0.00042056   -0.01964113    0.26601671
     atom   21 type  1   force =     0.00073534    0.02695230    0.00346126
     atom   22 type  2   force =    -0.00839683    0.00342137   -0.25759227
     atom   23 type  2   force =     0.00876602   -0.01542554    0.26851430
     atom   24 type  1   force =     0.00666030    0.01252673   -0.01018163
     atom   25 type  2   force =     0.01150187    0.00802976   -0.25818321
     atom   26 type  2   force =    -0.00445239   -0.01307760    0.26355523
     atom   27 type  1   force =    -0.00123617    0.00795283    0.01188191
     atom   28 type  2   force =    -0.00197486   -0.02407950   -0.27128552
     atom   29 type  2   force =     0.00581117    0.00223009    0.26425301
     atom   30 type  1   force =    -0.00007668    0.01639995    0.01008149
     atom   31 type  2   force =    -0.00716353    0.00333921   -0.25032108
     atom   32 type  2   force =    -0.00249437   -0.01087954    0.27397202
     atom   33 type  1   force =    -0.00535033    0.00565125    0.00670368
     atom   34 type  2   force =    -0.00030305   -0.03628278   -0.27338497
     atom   35 type  2   force =    -0.00252529   -0.01088497    0.27055793
     atom   36 type  3   force =     0.00170035   -0.00656826   -0.00878195
     The ionic contribution  to forces
     atom    1 type  1   force =     0.85165041   -0.01112197    4.93583134
     atom    2 type  2   force =    -0.47370805    0.27485262   39.25175660
     atom    3 type  2   force =    -0.12595211   -0.01761166  -36.12456946
     atom    4 type  1   force =     0.27905054    0.76355591    0.53815995
     atom    5 type  2   force =    -0.42729040    2.06697214   38.43421776
     atom    6 type  2   force =     0.38341442   -0.46403912  -38.12291207
     atom    7 type  1   force =    -2.57281085   -2.69902398    2.55009058
     atom    8 type  2   force =    -0.93740061    0.10190399   37.39340153
     atom    9 type  2   force =     0.35746002   -0.00966543  -38.00454799
     atom   10 type  1   force =    -1.00343991   -0.45829562    5.63702831
     atom   11 type  2   force =    -0.52995586   -1.68586878   39.14283647
     atom   12 type  2   force =     0.45463966    0.66751207  -37.85963947
     atom   13 type  1   force =     0.04432371    0.80613762    2.33228685
     atom   14 type  2   force =    -0.09483565   -0.91119593   38.11484607
     atom   15 type  2   force =     0.15112429   -0.12301448  -36.91220364
     atom   16 type  1   force =    -0.07608652    4.37563138    0.05019707
     atom   17 type  2   force =     0.37951162    1.80637944   37.75249821
     atom   18 type  2   force =    -0.20249678   -0.61445579  -38.64207736
     atom   19 type  1   force =     2.66675987   -2.37431785    0.64368321
     atom   20 type  2   force =     0.22610364   -0.15978905  -38.49578280
     atom   21 type  1   force =     0.02010472   -0.21771809    1.03731279
     atom   22 type  2   force =     0.41857594   -1.78424031   38.43564111
     atom   23 type  2   force =    -0.10047810    0.64279868  -38.29277325
     atom   24 type  1   force =    -0.51350705    1.08584748    5.76158352
     atom   25 type  2   force =     0.52706497    0.18856493   39.25354923
     atom   26 type  2   force =    -0.31803992    0.03673661  -37.36180477
     atom   27 type  1   force =    -0.11016937    0.54622681   -2.33869739
     atom   28 type  2   force =     0.07730701    1.05601131   38.20111886
     atom   29 type  2   force =    -0.25823344   -0.41092380  -37.28698544
     atom   30 type  1   force =    -0.33313868   -0.85989220   -0.00740282
     atom   31 type  2   force =     1.18794279    0.00653032   37.33450298
     atom   32 type  2   force =    -0.49312118    0.01716880  -38.63195374
     atom   33 type  1   force =     0.71827787   -0.97400988    2.05217048
     atom   34 type  2   force =     0.24428044   -1.47679297   39.36881613
     atom   35 type  2   force =    -0.29832335    0.46350647  -37.80375337
     atom   36 type  3   force =    -0.11860410    0.34564031    7.66357452
     The local contribution  to forces
     atom    1 type  1   force =    -0.81952897   -0.05259511   -4.95222187
     atom    2 type  2   force =     0.47211929   -0.26235558  -39.00554277
     atom    3 type  2   force =     0.12813766    0.02949218   35.87266641
     atom    4 type  1   force =    -0.25893013   -0.75600684   -0.56161467
     atom    5 type  2   force =     0.45613345   -2.00158327  -38.25102697
     atom    6 type  2   force =    -0.37907284    0.46452510   37.88068661
     atom    7 type  1   force =     2.60043540    2.68111158   -2.54200189
     atom    8 type  2   force =     0.93207544   -0.10646856  -37.14484433
     atom    9 type  2   force =    -0.35085127    0.02344812   37.76051970
     atom   10 type  1   force =     0.98466756    0.47000087   -5.66185145
     atom   11 type  2   force =     0.52134004    1.68159283  -38.91163953
     atom   12 type  2   force =    -0.44506139   -0.65266421   37.62431777
     atom   13 type  1   force =    -0.04652607   -0.81790564   -2.34553081
     atom   14 type  2   force =     0.07781105    0.83311417  -37.93367901
     atom   15 type  2   force =    -0.15085401    0.12991954   36.66459946
     atom   16 type  1   force =     0.06862110   -4.39275145   -0.01956027
     atom   17 type  2   force =    -0.37703240   -1.78055855  -37.54050861
     atom   18 type  2   force =     0.20171780    0.61302488   38.40367838
     atom   19 type  1   force =    -2.67300885    2.36591339   -0.63334244
     atom   20 type  2   force =    -0.22286476    0.17664473   38.25110547
     atom   21 type  1   force =    -0.02539189    0.17790255   -1.06664170
     atom   22 type  2   force =    -0.41359713    1.77951706  -38.20247690
     atom   23 type  2   force =     0.09335464   -0.62733481   38.05548835
     atom   24 type  1   force =     0.49667524   -1.10036894   -5.77359263
     atom   25 type  2   force =    -0.52248352   -0.17765164  -39.00888562
     atom   26 type  2   force =     0.30967776   -0.02604178   37.11561412
     atom   27 type  1   force =     0.10675735   -0.55004942    2.32944165
     atom   28 type  2   force =    -0.07468231   -1.03487322  -37.95572821
     atom   29 type  2   force =     0.25497186    0.40718080   37.04088055
     atom   30 type  1   force =     0.33003256    0.85471361   -0.00819582
     atom   31 type  2   force =    -1.18015386   -0.01011463  -37.08874703
     atom   32 type  2   force =     0.48700208   -0.00117817   38.38827634
     atom   33 type  1   force =    -0.69859069    0.96529007   -2.06711481
     atom   34 type  2   force =    -0.24113690    1.46889440  -39.12662956
     atom   35 type  2   force =     0.29287610   -0.44754653   37.57016151
     atom   36 type  3   force =     0.12093570   -0.35509732   -7.64825382
     The core correction contribution to forces
     atom    1 type  1   force =     0.00000000    0.00000000    0.00000000
     atom    2 type  2   force =     0.00053434   -0.00034515    0.02053505
     atom    3 type  2   force =     0.00060481    0.00002504   -0.02093103
     atom    4 type  1   force =     0.00000000    0.00000000    0.00000000
     atom    5 type  2   force =     0.00335565    0.00545304    0.01638071
     atom    6 type  2   force =     0.00029893   -0.00109182   -0.02089315
     atom    7 type  1   force =     0.00000000    0.00000000    0.00000000
     atom    8 type  2   force =    -0.00018092    0.00037305    0.02014166
     atom    9 type  2   force =    -0.00011896    0.00059032   -0.02107643
     atom   10 type  1   force =     0.00000000    0.00000000    0.00000000
     atom   11 type  2   force =    -0.00071067   -0.00042559    0.02054181
     atom   12 type  2   force =     0.00123836    0.00137343   -0.02084995
     atom   13 type  1   force =     0.00000000    0.00000000    0.00000000
     atom   14 type  2   force =    -0.00169680   -0.00902873    0.01389732
     atom   15 type  2   force =     0.00072951    0.00035910   -0.02060394
     atom   16 type  1   force =     0.00000000    0.00000000    0.00000000
     atom   17 type  2   force =    -0.00061297    0.00176668    0.01912297
     atom   18 type  2   force =     0.00000999   -0.00040403   -0.02096359
     atom   19 type  1   force =     0.00000000    0.00000000    0.00000000
     atom   20 type  2   force =     0.00014116    0.00069563   -0.02120616
     atom   21 type  1   force =     0.00000000    0.00000000    0.00000000
     atom   22 type  2   force =     0.00020422   -0.00051678    0.02046875
     atom   23 type  2   force =    -0.00061893    0.00128722   -0.02092094
     atom   24 type  1   force =     0.00000000    0.00000000    0.00000000
     atom   25 type  2   force =    -0.00022330   -0.00054368    0.02056938
     atom   26 type  2   force =    -0.00004550    0.00071658   -0.02086484
     atom   27 type  1   force =     0.00000000    0.00000000    0.00000000
     atom   28 type  2   force =     0.00019512    0.00176391    0.02078627
     atom   29 type  2   force =    -0.00053391   -0.00056805   -0.02061563
     atom   30 type  1   force =     0.00000000    0.00000000    0.00000000
     atom   31 type  2   force =     0.00041159   -0.00003861    0.02037907
     atom   32 type  2   force =    -0.00014657    0.00064523   -0.02105387
     atom   33 type  1   force =     0.00000000    0.00000000    0.00000000
     atom   34 type  2   force =     0.00035340    0.00108411    0.02113340
     atom   35 type  2   force =    -0.00007007    0.00098786   -0.02106520
     atom   36 type  3   force =     0.00000000    0.00000000    0.00000000
     The Hubbard contrib.    to forces
     atom    1 type  1   force =     0.00000000    0.00000000    0.00000000
     atom    2 type  2   force =     0.00000000    0.00000000    0.00000000
     atom    3 type  2   force =     0.00000000    0.00000000    0.00000000
     atom    4 type  1   force =     0.00000000    0.00000000    0.00000000
     atom    5 type  2   force =     0.00000000    0.00000000    0.00000000
     atom    6 type  2   force =     0.00000000    0.00000000    0.00000000
     atom    7 type  1   force =     0.00000000    0.00000000    0.00000000
     atom    8 type  2   force =     0.00000000    0.00000000    0.00000000
     atom    9 type  2   force =     0.00000000    0.00000000    0.00000000
     atom   10 type  1   force =     0.00000000    0.00000000    0.00000000
     atom   11 type  2   force =     0.00000000    0.00000000    0.00000000
     atom   12 type  2   force =     0.00000000    0.00000000    0.00000000
     atom   13 type  1   force =     0.00000000    0.00000000    0.00000000
     atom   14 type  2   force =     0.00000000    0.00000000    0.00000000
     atom   15 type  2   force =     0.00000000    0.00000000    0.00000000
     atom   16 type  1   force =     0.00000000    0.00000000    0.00000000
     atom   17 type  2   force =     0.00000000    0.00000000    0.00000000
     atom   18 type  2   force =     0.00000000    0.00000000    0.00000000
     atom   19 type  1   force =     0.00000000    0.00000000    0.00000000
     atom   20 type  2   force =     0.00000000    0.00000000    0.00000000
     atom   21 type  1   force =     0.00000000    0.00000000    0.00000000
     atom   22 type  2   force =     0.00000000    0.00000000    0.00000000
     atom   23 type  2   force =     0.00000000    0.00000000    0.00000000
     atom   24 type  1   force =     0.00000000    0.00000000    0.00000000
     atom   25 type  2   force =     0.00000000    0.00000000    0.00000000
     atom   26 type  2   force =     0.00000000    0.00000000    0.00000000
     atom   27 type  1   force =     0.00000000    0.00000000    0.00000000
     atom   28 type  2   force =     0.00000000    0.00000000    0.00000000
     atom   29 type  2   force =     0.00000000    0.00000000    0.00000000
     atom   30 type  1   force =     0.00000000    0.00000000    0.00000000
     atom   31 type  2   force =     0.00000000    0.00000000    0.00000000
     atom   32 type  2   force =     0.00000000    0.00000000    0.00000000
     atom   33 type  1   force =     0.00000000    0.00000000    0.00000000
     atom   34 type  2   force =     0.00000000    0.00000000    0.00000000
     atom   35 type  2   force =     0.00000000    0.00000000    0.00000000
     atom   36 type  3   force =     0.00000000    0.00000000    0.00000000
     The SCF correction term to forces
     atom    1 type  1   force =     0.00013788   -0.00015484    0.00012583
     atom    2 type  2   force =    -0.00000624    0.00002089    0.00043051
     atom    3 type  2   force =     0.00004258   -0.00003354   -0.00050704
     atom    4 type  1   force =     0.00007894    0.00000488    0.00007231
     atom    5 type  2   force =    -0.00001062    0.00000261    0.00059745
     atom    6 type  2   force =     0.00007011   -0.00007545   -0.00058422
     atom    7 type  1   force =    -0.00013180   -0.00035138    0.00013808
     atom    8 type  2   force =    -0.00004934    0.00006668    0.00044824
     atom    9 type  2   force =    -0.00001679    0.00006101   -0.00045621
     atom   10 type  1   force =     0.00001854    0.00003408   -0.00018527
     atom   11 type  2   force =     0.00004911   -0.00011040    0.00055020
     atom   12 type  2   force =     0.00009791    0.00004020   -0.00057479
     atom   13 type  1   force =    -0.00009185   -0.00013537   -0.00002944
     atom   14 type  2   force =     0.00003224    0.00002539    0.00048318
     atom   15 type  2   force =     0.00002987   -0.00000988   -0.00056526
     atom   16 type  1   force =     0.00007202    0.00071595    0.00015746
     atom   17 type  2   force =    -0.00002430    0.00002348    0.00059522
     atom   18 type  2   force =    -0.00008776   -0.00007518   -0.00057209
     atom   19 type  1   force =     0.00013547   -0.00027392    0.00010401
     atom   20 type  2   force =     0.00005301    0.00001463   -0.00043598
     atom   21 type  1   force =    -0.00000662    0.00034636   -0.00007042
     atom   22 type  2   force =    -0.00005935   -0.00006289    0.00052192
     atom   23 type  2   force =    -0.00006281    0.00005963   -0.00055082
     atom   24 type  1   force =     0.00003558    0.00011369   -0.00021008
     atom   25 type  2   force =    -0.00001632   -0.00000997    0.00046143
     atom   26 type  2   force =    -0.00008613   -0.00002183   -0.00051553
     atom   27 type  1   force =    -0.00018497   -0.00007009    0.00000742
     atom   28 type  2   force =     0.00003557   -0.00001256    0.00048995
     atom   29 type  2   force =     0.00002600   -0.00015118   -0.00050554
     atom   30 type  1   force =    -0.00005184    0.00011262    0.00010146
     atom   31 type  2   force =     0.00001041    0.00002060    0.00046776
     atom   32 type  2   force =    -0.00002952    0.00001498   -0.00044703
     atom   33 type  1   force =    -0.00009317    0.00002823   -0.00012114
     atom   34 type  2   force =     0.00002352   -0.00008292    0.00039385
     atom   35 type  2   force =    -0.00002445    0.00006375   -0.00046413
     atom   36 type  3   force =     0.00000815   -0.00000004    0.00005225

     Total force =     0.146771     Total SCF correction =     0.002701

     BFGS Geometry Optimization
     Energy error            =      0.0E+00 Ry
     Gradient error          =      5.7E-02 Ry/Bohr

     number of scf cycles    =   1
     number of bfgs steps    =   0

     energy             new  =   -2205.5108822656 Ry

     new trust radius        =       0.0780465173 bohr
     new conv_thr            =       0.0000010000 Ry


ATOMIC_POSITIONS (angstrom)
Mo            6.5894911190        1.7709193791        2.8123621142
S             8.1683408294        0.8191313843        4.4349759201
S             8.1874155407        0.8161682618        1.2766802829
Mo            8.1040596025        4.5013932522        2.7075540983
S             6.4833358272        3.7101718309        4.3570280128
S             6.5545039221        3.5171563148        1.1211580389
Mo            6.4941091010        7.2102821137        2.6660640839
S             8.0819819935        6.3417413647        4.2529441768
S             8.0878995126        6.3069562150        1.0908298689
Mo            8.1533276095        9.9081140616        2.8298519067
S             6.4986318564        8.9414517594        4.3800855981
S             6.6158116743        9.0486164369        1.1435288565
Mo            3.4221522581        1.7492083898        2.7684744904
S             4.9799489435        0.8468870650        4.3785703984
S             5.0513003600        0.8473453039        1.2227293839
Mo            4.9784117173        4.5189007926        2.6348076992
S             3.4350906603        3.6692195670        4.2819683591
S             3.4362052574        3.5447409565        1.0650884166
Mo            3.4568711381        7.2104353324        2.6277727366
S             4.9848287416        6.3258356847        1.0370918034
Mo            5.0098521045        9.8949779470        2.7296734056
S             3.4692264603        8.9427571348        4.3237706010
S             3.4089380241        9.0657245189        1.1012300984
Mo            0.2907271985        1.7465156665        2.8375889839
S             1.8588467474        0.8024267912        4.4021824811
S             1.8539496265        0.8535341973        1.2072740718
Mo            1.8581341247        4.4978168261        2.6615892944
S             0.2726802204        3.6537706095        4.3351382995
S             0.2323120318        3.5260695663        1.1704428903
Mo            0.2694408646        7.2226453140        2.6988288473
S             1.9027929184        6.3126611468        4.2310583098
S             1.8575873924        6.3133993871        1.0492109978
Mo            1.8518845046        9.9385318206        2.7685196646
S             0.2976158853        9.0671494088        4.4087499956
S             0.2725029049        9.0467692999        1.1585678313
H             5.2558938948        2.4201657538        5.1173555582



     Writing config-only to output data dir ./MoS2-V-O.save/
     NEW-OLD atomic charge density approx. for the potential

     negative rho (up, down):  1.476E-04 0.000E+00

     total cpu time spent up to now is       86.6 secs

     Self-consistent Calculation

     iteration #  1     ecut=    80.00 Ry     beta= 0.70
     Davidson diagonalization with overlap
     ethr =  1.00E-06,  avg # of iterations =  9.0

     negative rho (up, down):  1.338E-04 0.000E+00

     total cpu time spent up to now is      101.2 secs

     total energy              =   -2205.52828484 Ry
     estimated scf accuracy    <       0.00162828 Ry

     iteration #  2     ecut=    80.00 Ry     beta= 0.70
     Davidson diagonalization with overlap
     ethr =  5.30E-07,  avg # of iterations =  2.0

     negative rho (up, down):  1.408E-04 0.000E+00

     total cpu time spent up to now is      113.9 secs

     total energy              =   -2205.52830713 Ry
     estimated scf accuracy    <       0.00038391 Ry

     iteration #  3     ecut=    80.00 Ry     beta= 0.70
     Davidson diagonalization with overlap
     ethr =  1.25E-07,  avg # of iterations =  4.0

     negative rho (up, down):  1.455E-04 0.000E+00

     total cpu time spent up to now is      125.3 secs

     total energy              =   -2205.52836174 Ry
     estimated scf accuracy    <       0.00005881 Ry

     iteration #  4     ecut=    80.00 Ry     beta= 0.70
     Davidson diagonalization with overlap
     ethr =  1.92E-08,  avg # of iterations =  6.0

     negative rho (up, down):  1.392E-04 0.000E+00

     total cpu time spent up to now is      144.3 secs

     total energy              =   -2205.52838199 Ry
     estimated scf accuracy    <       0.00001065 Ry

     iteration #  5     ecut=    80.00 Ry     beta= 0.70
     Davidson diagonalization with overlap
     ethr =  3.47E-09,  avg # of iterations =  2.0

     negative rho (up, down):  1.293E-04 0.000E+00

     total cpu time spent up to now is      155.4 secs

     total energy              =   -2205.52838337 Ry
     estimated scf accuracy    <       0.00000228 Ry

     iteration #  6     ecut=    80.00 Ry     beta= 0.70
     Davidson diagonalization with overlap
     ethr =  7.41E-10,  avg # of iterations =  5.0

     negative rho (up, down):  1.258E-04 0.000E+00

     total cpu time spent up to now is      168.1 secs

     total energy              =   -2205.52838378 Ry
     estimated scf accuracy    <       0.00000131 Ry

     iteration #  7     ecut=    80.00 Ry     beta= 0.70
     Davidson diagonalization with overlap
     ethr =  4.27E-10,  avg # of iterations =  2.0

     negative rho (up, down):  1.382E-04 0.000E+00

     total cpu time spent up to now is      169.9 secs

     End of self-consistent calculation

          k = 0.0000 0.0000 0.0000 (105382 PWs)   bands (ev):

   -62.8946 -62.8783 -62.8721 -62.8528 -62.8376 -62.8318 -62.8227 -62.8089
   -62.8061 -62.7924 -62.7793 -62.7326 -37.2368 -37.1656 -37.1541 -37.1460
   -37.1336 -37.1202 -37.0905 -37.0865 -37.0790 -37.0596 -37.0549 -37.0480
   -37.0427 -37.0331 -37.0240 -37.0187 -37.0118 -37.0091 -37.0066 -36.9917
   -36.9834 -36.9689 -36.9501 -36.9430 -36.9363 -36.9243 -36.9112 -36.9103
   -36.8961 -36.8940 -36.8747 -36.8549 -36.8454 -36.8184 -36.7459 -36.7342
   -16.0323 -15.2753 -15.1873 -14.9978 -14.9783 -14.8703 -14.5831 -14.5022
   -14.4811 -14.4452 -14.4351 -14.3879 -14.3351 -14.3077 -14.1800 -14.1517
   -14.1306 -14.1196 -14.0765 -13.8961 -13.8671 -13.8411 -13.8055  -8.2531
    -7.5834  -7.4564  -7.2955  -7.2905  -7.2202  -7.2097  -7.1558  -6.9979
    -6.8342  -6.7721  -6.7388  -6.7007  -6.5931  -6.5203  -6.4851  -6.4040
    -6.3106  -6.2579  -6.1278  -6.0111  -5.9055  -5.8515  -5.8390  -5.7998
    -5.7735  -5.7552  -5.6943  -5.6882  -5.6347  -5.5682  -5.5622  -5.4754
    -5.4125  -5.3658  -5.1627  -5.1428  -5.0435  -5.0319  -5.0011  -4.9867
    -4.9568  -4.8498  -4.6960  -4.5239  -4.3433  -4.3315  -4.2774  -4.2619
    -4.2042  -4.0780  -4.0572  -3.9239  -3.8802  -3.7984  -3.7396  -3.6911
    -3.6486  -3.6033  -3.5480  -3.5187  -3.5051  -3.4712  -3.4562  -3.3977
    -3.3896  -3.2265  -3.1645  -2.9227  -2.8867  -2.7999  -2.7821  -2.7582
    -2.7211  -2.6929  -2.6696  -2.6321  -2.5782  -2.3036  -2.0530  -2.0026
    -1.9617  -1.0881  -0.7889  -0.7384  -0.1882  -0.1625  -0.0651  -0.0082
     0.0387   0.1048   0.1412   0.1899   0.2629   0.2807   0.4012   0.4424
     0.4697   0.5321   0.5399   0.5631   0.6027   0.6645   0.7189   0.7276
     0.7395   0.7884   0.8350   0.8769   0.9322   0.9907   1.0364   1.2457
     1.3866

     the Fermi energy is    -1.0883 ev

!    total energy              =   -2205.52838336 Ry
     estimated scf accuracy    <       0.00000065 Ry
     smearing contrib. (-TS)   =      -0.00569381 Ry
     internal energy E=F+TS    =   -2205.52268955 Ry

     The total energy is F=E-TS. E is the sum of the following terms:
     one-electron contribution =  -18050.43391236 Ry
     hartree contribution      =    9011.85644144 Ry
     xc contribution           =    -385.23932077 Ry
     ewald contribution        =    7218.29410214 Ry

     convergence has been achieved in   7 iterations

     negative rho (up, down):  1.382E-04 0.000E+00

     Forces acting on atoms (cartesian axes, Ry/au):

     atom    1 type  1   force =     0.00935077   -0.01498552   -0.00912431
     atom    2 type  2   force =    -0.00994539    0.01166147   -0.00292280
     atom    3 type  2   force =    -0.00697958    0.00565071   -0.01251736
     atom    4 type  1   force =     0.00636431    0.00533870   -0.00330405
     atom    5 type  2   force =    -0.01778012   -0.01897965    0.00752504
     atom    6 type  2   force =     0.00229872    0.00781265    0.00017816
     atom    7 type  1   force =     0.00763920   -0.01099436   -0.00218257
     atom    8 type  2   force =     0.00116021   -0.00466926    0.01307131
     atom    9 type  2   force =     0.01304862    0.00514345    0.00547973
     atom   10 type  1   force =    -0.00657815    0.00844087   -0.00750178
     atom   11 type  2   force =     0.00383702   -0.00200522   -0.01006624
     atom   12 type  2   force =    -0.00396156   -0.00244855   -0.00070835
     atom   13 type  1   force =     0.00325406    0.00397444   -0.00354431
     atom   14 type  2   force =     0.00963077    0.04856954    0.03765031
     atom   15 type  2   force =    -0.00920078   -0.00030689   -0.00844619
     atom   16 type  1   force =    -0.00128880    0.00687136    0.00452703
     atom   17 type  2   force =     0.00698163   -0.00127879   -0.00008816
     atom   18 type  2   force =    -0.00233191   -0.00370743    0.00892144
     atom   19 type  1   force =     0.00317886   -0.00830788    0.00057585
     atom   20 type  2   force =     0.00288108   -0.00306103   -0.00425568
     atom   21 type  1   force =    -0.00397164   -0.00344861   -0.00811045
     atom   22 type  2   force =    -0.00005326   -0.00158543   -0.00568674
     atom   23 type  2   force =     0.00019957   -0.00135216    0.00296889
     atom   24 type  1   force =    -0.00618486   -0.00127075   -0.00816975
     atom   25 type  2   force =     0.01089157    0.01432728   -0.00043345
     atom   26 type  2   force =    -0.00972907   -0.00232943   -0.00662386
     atom   27 type  1   force =    -0.00123862    0.00065621    0.00686199
     atom   28 type  2   force =    -0.00052612   -0.00142036   -0.00686850
     atom   29 type  2   force =     0.00300373    0.00013761   -0.00670150
     atom   30 type  1   force =    -0.00224599    0.00314922    0.00373306
     atom   31 type  2   force =     0.00044240    0.00018626    0.01051502
     atom   32 type  2   force =    -0.00741991    0.00533438    0.00572487
     atom   33 type  1   force =     0.00741078   -0.00079347    0.00151782
     atom   34 type  2   force =     0.00034583   -0.03102951   -0.01459295
     atom   35 type  2   force =    -0.00596678    0.00740092    0.00826400
     atom   36 type  3   force =     0.00348339   -0.02068077    0.00433444
     The non-local contrib.  to forces
     atom    1 type  1   force =    -0.00147797    0.02745067   -0.00539092
     atom    2 type  2   force =    -0.01002030    0.00128996   -0.26554235
     atom    3 type  2   force =    -0.00956763   -0.00613879    0.26311009
     atom    4 type  1   force =    -0.00081798    0.00725375    0.00230303
     atom    5 type  2   force =    -0.05656104   -0.08879144   -0.19111393
     atom    6 type  2   force =    -0.00187623    0.00766164    0.26640468
     atom    7 type  1   force =    -0.01963070    0.00206452   -0.02171669
     atom    8 type  2   force =     0.00708361    0.00041839   -0.25294340
     atom    9 type  2   force =     0.00630524   -0.00998564    0.27409534
     atom   10 type  1   force =     0.00293291   -0.00013121   -0.00265212
     atom   11 type  2   force =     0.01385780    0.00098166   -0.26122988
     atom   12 type  2   force =    -0.01444667   -0.01800776    0.26004402
     atom   13 type  1   force =     0.00421200    0.01643972   -0.00311476
     atom   14 type  2   force =     0.02762765    0.15331579   -0.14651309
     atom   15 type  2   force =    -0.01038570   -0.00748043    0.26154119
     atom   16 type  1   force =     0.00463602    0.02808953   -0.03044388
     atom   17 type  2   force =     0.00642660   -0.02767717   -0.23272318
     atom   18 type  2   force =    -0.00204891   -0.00274423    0.27141446
     atom   19 type  1   force =     0.01324735   -0.00176879   -0.01791458
     atom   20 type  2   force =    -0.00044736   -0.01932964    0.26343838
     atom   21 type  1   force =    -0.00061099    0.02547203    0.00078342
     atom   22 type  2   force =    -0.00663812    0.00202226   -0.25906514
     atom   23 type  2   force =     0.00886855   -0.01812862    0.26489631
     atom   24 type  1   force =     0.00438942    0.01343331   -0.00991673
     atom   25 type  2   force =     0.00750626    0.00504179   -0.26263437
     atom   26 type  2   force =    -0.00221193   -0.01313406    0.26244252
     atom   27 type  1   force =    -0.00192128    0.00822179    0.01022687
     atom   28 type  2   force =    -0.00217139   -0.02366483   -0.27313484
     atom   29 type  2   force =     0.00606502    0.00280221    0.26316229
     atom   30 type  1   force =    -0.00059700    0.01720319    0.00869109
     atom   31 type  2   force =    -0.00737408    0.00343542   -0.25437976
     atom   32 type  2   force =    -0.00112913   -0.01123983    0.27247269
     atom   33 type  1   force =    -0.00325349    0.00415394    0.00435318
     atom   34 type  2   force =    -0.00283750   -0.02649525   -0.27804374
     atom   35 type  2   force =    -0.00128498   -0.00965514    0.26672438
     atom   36 type  3   force =     0.00145858   -0.00862699   -0.00979728
     The ionic contribution  to forces
     atom    1 type  1   force =     0.37959618    0.35618639    4.53335717
     atom    2 type  2   force =    -0.31703993    0.16560566   39.35422796
     atom    3 type  2   force =    -0.04267966   -0.04565736  -36.27370576
     atom    4 type  1   force =    -0.04062235    0.53708264    0.42217076
     atom    5 type  2   force =    -0.26195735    2.07827459   38.33279376
     atom    6 type  2   force =     0.28797429   -0.46994948  -37.97948368
     atom    7 type  1   force =    -2.59226885   -2.57129682    2.53242870
     atom    8 type  2   force =    -0.96685458    0.06440087   37.54525708
     atom    9 type  2   force =     0.34759274    0.00747701  -38.00475318
     atom   10 type  1   force =    -0.76139185   -0.52849530    5.46041395
     atom   11 type  2   force =    -0.57019648   -1.63234683   39.09471481
     atom   12 type  2   force =     0.44742760    0.59466148  -37.84843229
     atom   13 type  1   force =     0.15290471    0.63898019    2.14609710
     atom   14 type  2   force =    -0.14800216   -1.11142519   38.21898830
     atom   15 type  2   force =     0.11826777   -0.06113843  -36.86934158
     atom   16 type  1   force =     0.10325098    4.11236376    0.26788185
     atom   17 type  2   force =     0.31995203    1.77694508   37.74519593
     atom   18 type  2   force =    -0.17037669   -0.56500575  -38.54901999
     atom   19 type  1   force =     2.60023310   -2.31241939    0.68765311
     atom   20 type  2   force =     0.20468486   -0.18572051  -38.54855638
     atom   21 type  1   force =    -0.02065752    0.09064331    0.92450172
     atom   22 type  2   force =     0.48184781   -1.71104186   38.44279193
     atom   23 type  2   force =    -0.15604687    0.59036192  -38.27620028
     atom   24 type  1   force =    -0.25595589    0.96778482    5.57340974
     atom   25 type  2   force =     0.43126842    0.12753164   39.22234555
     atom   26 type  2   force =    -0.27615477    0.01873535  -37.32520337
     atom   27 type  1   force =    -0.02052704    0.49518957   -2.09352335
     atom   28 type  2   force =     0.03425849    0.97926071   38.19842661
     atom   29 type  2   force =    -0.19581768   -0.39299686  -37.32428045
     atom   30 type  1   force =    -0.24650756   -0.89416848    0.06012643
     atom   31 type  2   force =     1.18332833    0.02859052   37.42537788
     atom   32 type  2   force =    -0.46295758    0.00456884  -38.58446500
     atom   33 type  1   force =     0.56940907   -0.76345865    2.24033600
     atom   34 type  2   force =     0.19302105   -1.25072992   39.28556734
     atom   35 type  2   force =    -0.23732686    0.48444392  -37.71032899
     atom   36 type  3   force =    -0.11167577    0.37676254    7.67323063
     The local contribution  to forces
     atom    1 type  1   force =    -0.36856514   -0.39872513   -4.53832153
     atom    2 type  2   force =     0.31673518   -0.15504947  -39.11260114
     atom    3 type  2   force =     0.04476375    0.05725107   36.01848878
     atom    4 type  1   force =     0.04785754   -0.53874848   -0.42885907
     atom    5 type  2   force =     0.29757227   -2.01366355  -38.15095955
     atom    6 type  2   force =    -0.28393312    0.47101420   37.73371791
     atom    7 type  1   force =     2.61965410    2.55830910   -2.51393764
     atom    8 type  2   force =     0.96115947   -0.06969514  -37.29992950
     atom    9 type  2   force =    -0.34080816    0.00713626   37.75679303
     atom   10 type  1   force =     0.75188896    0.53690485   -5.46642373
     atom   11 type  2   force =     0.56087311    1.62959378  -38.86451147
     atom   12 type  2   force =    -0.43813315   -0.58050719   37.60804663
     atom   13 type  1   force =    -0.15410574   -0.65143813   -2.14784094
     atom   14 type  2   force =     0.13183746    1.01663814  -38.04872251
     atom   15 type  2   force =    -0.11760623    0.06772088   36.61947061
     atom   16 type  1   force =    -0.10918179   -4.13326412   -0.23403377
     atom   17 type  2   force =    -0.31907027   -1.75199206  -37.53222013
     atom   18 type  2   force =     0.17006691    0.56446138   38.30702661
     atom   19 type  1   force =    -2.61029464    2.30597594   -0.67022049
     atom   20 type  2   force =    -0.20143140    0.20139512   38.30165353
     atom   21 type  1   force =     0.01744699   -0.11985962   -0.93481996
     atom   22 type  2   force =    -0.47548112    1.70779755  -38.21026696
     atom   23 type  2   force =     0.14806039   -0.57493033   38.03469647
     atom   24 type  1   force =     0.24533001   -0.98256796   -5.57283527
     atom   25 type  2   force =    -0.42787484   -0.11790049  -38.98117398
     atom   26 type  2   force =     0.26875846   -0.00865711   37.07654674
     atom   27 type  1   force =     0.02111742   -0.50265299    2.08911299
     atom   28 type  2   force =    -0.03276876   -0.95863304  -37.95335539
     atom   29 type  2   force =     0.19322506    0.39090800   37.07465285
     atom   30 type  1   force =     0.24470743    0.88017205   -0.06607804
     atom   31 type  2   force =    -1.17596319   -0.03177789  -37.18132282
     atom   32 type  2   force =     0.45687195    0.01142615   38.33832765
     atom   33 type  1   force =    -0.55888275    0.75837261   -2.24429472
     atom   34 type  2   force =    -0.19024790    1.24532109  -39.04370720
     atom   35 type  2   force =     0.23270943   -0.46837588   37.47239808
     atom   36 type  3   force =     0.11371313   -0.38879419   -7.65915562
     The core correction contribution to forces
     atom    1 type  1   force =     0.00000000    0.00000000    0.00000000
     atom    2 type  2   force =     0.00040714   -0.00022617    0.02055973
     atom    3 type  2   force =     0.00049543    0.00015126   -0.02077359
     atom    4 type  1   force =     0.00000000    0.00000000    0.00000000
     atom    5 type  2   force =     0.00319259    0.00525550    0.01656904
     atom    6 type  2   force =     0.00019873   -0.00092458   -0.02094452
     atom    7 type  1   force =     0.00000000    0.00000000    0.00000000
     atom    8 type  2   force =    -0.00023232    0.00032903    0.02026977
     atom    9 type  2   force =    -0.00007880    0.00060600   -0.02100461
     atom   10 type  1   force =     0.00000000    0.00000000    0.00000000
     atom   11 type  2   force =    -0.00061944   -0.00037229    0.02062792
     atom   12 type  2   force =     0.00121635    0.00137880   -0.02075377
     atom   13 type  1   force =     0.00000000    0.00000000    0.00000000
     atom   14 type  2   force =    -0.00177022   -0.00988692    0.01358794
     atom   15 type  2   force =     0.00057961    0.00050574   -0.02061349
     atom   16 type  1   force =     0.00000000    0.00000000    0.00000000
     atom   17 type  2   force =    -0.00039018    0.00151976    0.01932166
     atom   18 type  2   force =    -0.00000179   -0.00043301   -0.02094362
     atom   19 type  1   force =     0.00000000    0.00000000    0.00000000
     atom   20 type  2   force =     0.00013691    0.00068742   -0.02115165
     atom   21 type  1   force =     0.00000000    0.00000000    0.00000000
     atom   22 type  2   force =     0.00015901   -0.00045330    0.02053915
     atom   23 type  2   force =    -0.00066853    0.00135352   -0.02085715
     atom   24 type  1   force =     0.00000000    0.00000000    0.00000000
     atom   25 type  2   force =    -0.00008889   -0.00042122    0.02066938
     atom   26 type  2   force =    -0.00014132    0.00069848   -0.02082334
     atom   27 type  1   force =     0.00000000    0.00000000    0.00000000
     atom   28 type  2   force =     0.00016546    0.00167675    0.02087577
     atom   29 type  2   force =    -0.00048938   -0.00059458   -0.02061760
     atom   30 type  1   force =     0.00000000    0.00000000    0.00000000
     atom   31 type  2   force =     0.00039755   -0.00000134    0.02048674
     atom   32 type  2   force =    -0.00022496    0.00064354   -0.02101069
     atom   33 type  1   force =     0.00000000    0.00000000    0.00000000
     atom   34 type  2   force =     0.00040585    0.00075517    0.02128037
     atom   35 type  2   force =    -0.00009801    0.00094981   -0.02094486
     atom   36 type  3   force =     0.00000000    0.00000000    0.00000000
     The Hubbard contrib.    to forces
     atom    1 type  1   force =     0.00000000    0.00000000    0.00000000
     atom    2 type  2   force =     0.00000000    0.00000000    0.00000000
     atom    3 type  2   force =     0.00000000    0.00000000    0.00000000
     atom    4 type  1   force =     0.00000000    0.00000000    0.00000000
     atom    5 type  2   force =     0.00000000    0.00000000    0.00000000
     atom    6 type  2   force =     0.00000000    0.00000000    0.00000000
     atom    7 type  1   force =     0.00000000    0.00000000    0.00000000
     atom    8 type  2   force =     0.00000000    0.00000000    0.00000000
     atom    9 type  2   force =     0.00000000    0.00000000    0.00000000
     atom   10 type  1   force =     0.00000000    0.00000000    0.00000000
     atom   11 type  2   force =     0.00000000    0.00000000    0.00000000
     atom   12 type  2   force =     0.00000000    0.00000000    0.00000000
     atom   13 type  1   force =     0.00000000    0.00000000    0.00000000
     atom   14 type  2   force =     0.00000000    0.00000000    0.00000000
     atom   15 type  2   force =     0.00000000    0.00000000    0.00000000
     atom   16 type  1   force =     0.00000000    0.00000000    0.00000000
     atom   17 type  2   force =     0.00000000    0.00000000    0.00000000
     atom   18 type  2   force =     0.00000000    0.00000000    0.00000000
     atom   19 type  1   force =     0.00000000    0.00000000    0.00000000
     atom   20 type  2   force =     0.00000000    0.00000000    0.00000000
     atom   21 type  1   force =     0.00000000    0.00000000    0.00000000
     atom   22 type  2   force =     0.00000000    0.00000000    0.00000000
     atom   23 type  2   force =     0.00000000    0.00000000    0.00000000
     atom   24 type  1   force =     0.00000000    0.00000000    0.00000000
     atom   25 type  2   force =     0.00000000    0.00000000    0.00000000
     atom   26 type  2   force =     0.00000000    0.00000000    0.00000000
     atom   27 type  1   force =     0.00000000    0.00000000    0.00000000
     atom   28 type  2   force =     0.00000000    0.00000000    0.00000000
     atom   29 type  2   force =     0.00000000    0.00000000    0.00000000
     atom   30 type  1   force =     0.00000000    0.00000000    0.00000000
     atom   31 type  2   force =     0.00000000    0.00000000    0.00000000
     atom   32 type  2   force =     0.00000000    0.00000000    0.00000000
     atom   33 type  1   force =     0.00000000    0.00000000    0.00000000
     atom   34 type  2   force =     0.00000000    0.00000000    0.00000000
     atom   35 type  2   force =     0.00000000    0.00000000    0.00000000
     atom   36 type  3   force =     0.00000000    0.00000000    0.00000000
     The SCF correction term to forces
     atom    1 type  1   force =    -0.00020104    0.00010444    0.00120676
     atom    2 type  2   force =    -0.00002622    0.00004338    0.00040878
     atom    3 type  2   force =     0.00000979    0.00004642    0.00033891
     atom    4 type  1   force =    -0.00005163   -0.00024734    0.00105702
     atom    5 type  2   force =    -0.00002533   -0.00005287    0.00021151
     atom    6 type  2   force =    -0.00006369    0.00001275    0.00045956
     atom    7 type  1   force =    -0.00011409   -0.00006928    0.00101885
     atom    8 type  2   force =     0.00000529   -0.00012054    0.00039316
     atom    9 type  2   force =     0.00003886   -0.00008830    0.00032493
     atom   10 type  1   force =    -0.00000691    0.00016441    0.00113591
     atom   11 type  2   force =    -0.00007670    0.00014034    0.00030816
     atom   12 type  2   force =    -0.00002443    0.00002801    0.00036285
     atom   13 type  1   force =     0.00024436   -0.00000546    0.00129007
     atom   14 type  2   force =    -0.00006070   -0.00007041    0.00028545
     atom   15 type  2   force =    -0.00005497    0.00008724    0.00047286
     atom   16 type  1   force =     0.00000724   -0.00031593    0.00109862
     atom   17 type  2   force =     0.00006470   -0.00007251    0.00031334
     atom   18 type  2   force =     0.00002983    0.00001606    0.00041978
     atom   19 type  1   force =    -0.00000569   -0.00009376    0.00103359
     atom   20 type  2   force =    -0.00006068   -0.00009153    0.00033623
     atom   21 type  1   force =    -0.00014885    0.00029755    0.00140016
     atom   22 type  2   force =     0.00006041    0.00009180    0.00029008
     atom   23 type  2   force =    -0.00001272   -0.00000675    0.00040932
     atom   24 type  1   force =     0.00005286    0.00008096    0.00114829
     atom   25 type  2   force =     0.00008188    0.00007744    0.00033576
     atom   26 type  2   force =     0.00002175    0.00002979    0.00038937
     atom   27 type  1   force =     0.00009354   -0.00010029    0.00102126
     atom   28 type  2   force =    -0.00000865   -0.00005807    0.00029513
     atom   29 type  2   force =     0.00002197    0.00002072    0.00035721
     atom   30 type  1   force =     0.00015241   -0.00005566    0.00096935
     atom   31 type  2   force =     0.00005506   -0.00005856    0.00032877
     atom   32 type  2   force =     0.00002108   -0.00006243    0.00037601
     atom   33 type  1   force =     0.00013922    0.00014052    0.00109914
     atom   34 type  2   force =     0.00000559    0.00012128    0.00028607
     atom   35 type  2   force =     0.00003490    0.00004010    0.00039118
     atom   36 type  3   force =    -0.00001129   -0.00002024    0.00003250

     Total force =     0.100221     Total SCF correction =     0.004352
     Energy error            =      1.8E-02 Ry
     Gradient error          =      4.9E-02 Ry/Bohr

     number of scf cycles    =   2
     number of bfgs steps    =   1

     energy             old  =   -2205.5108822656 Ry
     energy             new  =   -2205.5283833641 Ry

     CASE: energy            _new < energy            _old

     new trust radius        =       0.0858511690 bohr
     new conv_thr            =       0.0000000486 Ry


ATOMIC_POSITIONS (angstrom)
Mo            6.5982340559        1.7584504117        2.8045518388
S             8.1606857597        0.8280231969        4.4333590982
S             8.1820553873        0.8205551946        1.2690837358
Mo            8.1097320491        4.5059053731        2.7033759054
S             6.4692980217        3.6963780278        4.3637017258
S             6.5561028390        3.5229174261        1.1212357271
Mo            6.4994864725        7.2020590752        2.6635137911
S             8.0827172865        6.3385404715        4.2628925313
S             8.0970697773        6.3104620735        1.0955623781
Mo            8.1478806490        9.9143557215        2.8224834432
S             6.5016367266        8.9399546854        4.3735282083
S             6.6130241239        9.0471611716        1.1439050366
Mo            3.4241663731        1.7520290505        2.7646509365
S             4.9866364683        0.8818852789        4.4067542722
S             5.0444824578        0.8474021461        1.2169225356
Mo            4.9773628032        4.5241768437        2.6378801516
S             3.4407647385        3.6679503694        4.2824101757
S             3.4344642897        3.5418068815        1.0717870858
Mo            3.4593910320        7.2042812944        2.6274756619
S             4.9868650728        6.3238027123        1.0345630988
Mo            5.0069982914        9.8915107584        2.7219226230
S             3.4688169479        8.9416110763        4.3200410773
S             3.4091661150        9.0650927850        1.1040972021
Mo            0.2859318980        1.7455540312        2.8302123880
S             1.8670596689        0.8129471828        4.4027965096
S             1.8467529492        0.8519746132        1.2029286379
Mo            1.8568497788        4.4986710049        2.6659137013
S             0.2724738615        3.6528011993        4.3305798413
S             0.2343079903        3.5258924736        1.1661725145
Mo            0.2677511222        7.2258010149        2.7003895099
S             1.9031732911        6.3127401948        4.2391007901
S             1.8522241492        6.3171922513        1.0535813451
Mo            1.8578731197        9.9377157910        2.7684418670
S             0.2981905462        9.0439781436        4.3990818101
S             0.2680745479        9.0518139875        1.1651937954
H             5.2584019067        2.4061969414        5.1206566263



     Writing config-only to output data dir ./MoS2-V-O.save/
     NEW-OLD atomic charge density approx. for the potential

     negative rho (up, down):  1.487E-04 0.000E+00

     total cpu time spent up to now is      173.2 secs

     Self-consistent Calculation

     iteration #  1     ecut=    80.00 Ry     beta= 0.70
     Davidson diagonalization with overlap
     ethr =  1.00E-06,  avg # of iterations =  8.0

     negative rho (up, down):  1.066E-04 0.000E+00

     total cpu time spent up to now is      186.7 secs

     total energy              =   -2205.54019323 Ry
     estimated scf accuracy    <       0.00082260 Ry

     iteration #  2     ecut=    80.00 Ry     beta= 0.70
     Davidson diagonalization with overlap
     ethr =  2.68E-07,  avg # of iterations =  5.0

     negative rho (up, down):  8.194E-05 0.000E+00

     total cpu time spent up to now is      204.1 secs

     total energy              =   -2205.54020539 Ry
     estimated scf accuracy    <       0.00017781 Ry

     iteration #  3     ecut=    80.00 Ry     beta= 0.70
     Davidson diagonalization with overlap
     ethr =  5.79E-08,  avg # of iterations =  2.0

     negative rho (up, down):  7.314E-05 0.000E+00

     total cpu time spent up to now is      215.5 secs

     total energy              =   -2205.54023007 Ry
     estimated scf accuracy    <       0.00001943 Ry

     iteration #  4     ecut=    80.00 Ry     beta= 0.70
     Davidson diagonalization with overlap
     ethr =  6.33E-09,  avg # of iterations =  7.0

     negative rho (up, down):  7.264E-05 0.000E+00

     total cpu time spent up to now is      233.2 secs

     total energy              =   -2205.54023694 Ry
     estimated scf accuracy    <       0.00000415 Ry

     iteration #  5     ecut=    80.00 Ry     beta= 0.70
     Davidson diagonalization with overlap
     ethr =  1.35E-09,  avg # of iterations =  2.0

     negative rho (up, down):  7.556E-05 0.000E+00

     total cpu time spent up to now is      248.6 secs

     total energy              =   -2205.54023718 Ry
     estimated scf accuracy    <       0.00000101 Ry

     iteration #  6     ecut=    80.00 Ry     beta= 0.70
     Davidson diagonalization with overlap
     ethr =  3.30E-10,  avg # of iterations =  5.0

     negative rho (up, down):  8.021E-05 0.000E+00

     total cpu time spent up to now is      261.2 secs

     total energy              =   -2205.54023731 Ry
     estimated scf accuracy    <       0.00000028 Ry

     iteration #  7     ecut=    80.00 Ry     beta= 0.70
     Davidson diagonalization with overlap
     ethr =  9.21E-11,  avg # of iterations =  2.0

     negative rho (up, down):  9.595E-05 0.000E+00

     total cpu time spent up to now is      272.4 secs

     total energy              =   -2205.54023722 Ry
     estimated scf accuracy    <       0.00000012 Ry

     iteration #  8     ecut=    80.00 Ry     beta= 0.70
     Davidson diagonalization with overlap
     ethr =  3.86E-11,  avg # of iterations =  4.0

     negative rho (up, down):  1.386E-04 0.000E+00

     total cpu time spent up to now is      274.4 secs

     End of self-consistent calculation

          k = 0.0000 0.0000 0.0000 (105382 PWs)   bands (ev):

   -62.8933 -62.8759 -62.8695 -62.8450 -62.8303 -62.8249 -62.8183 -62.8072
   -62.8043 -62.7841 -62.7736 -62.7392 -37.2316 -37.1626 -37.1495 -37.1405
   -37.1258 -37.1170 -37.0882 -37.0814 -37.0737 -37.0558 -37.0518 -37.0385
   -37.0378 -37.0263 -37.0195 -37.0098 -37.0075 -37.0039 -37.0019 -36.9915
   -36.9807 -36.9655 -36.9460 -36.9376 -36.9307 -36.9223 -36.9150 -36.9057
   -36.8899 -36.8863 -36.8722 -36.8504 -36.8423 -36.8164 -36.7473 -36.7313
   -16.0315 -15.3028 -15.1711 -15.0034 -14.9696 -14.8619 -14.5835 -14.4974
   -14.4632 -14.4448 -14.4216 -14.3875 -14.3280 -14.3063 -14.1647 -14.1464
   -14.1281 -14.1224 -14.0764 -13.8919 -13.8683 -13.8415 -13.7953  -8.2960
    -7.5785  -7.4506  -7.2923  -7.2809  -7.2113  -7.1972  -7.1556  -7.0087
    -6.8203  -6.7614  -6.7269  -6.6966  -6.5941  -6.5164  -6.4762  -6.3934
    -6.3132  -6.2446  -6.1354  -6.0022  -5.8951  -5.8431  -5.8334  -5.7970
    -5.7711  -5.7599  -5.6863  -5.6774  -5.6351  -5.5681  -5.5475  -5.4705
    -5.3899  -5.3452  -5.1474  -5.1282  -5.0421  -5.0278  -4.9953  -4.9843
    -4.9519  -4.8546  -4.6908  -4.5188  -4.3326  -4.3190  -4.2755  -4.2562
    -4.2189  -4.0803  -4.0646  -3.9463  -3.8798  -3.7874  -3.7305  -3.6807
    -3.6556  -3.5912  -3.5468  -3.5228  -3.5059  -3.4563  -3.4489  -3.3952
    -3.3717  -3.2373  -3.1754  -2.9201  -2.8822  -2.7962  -2.7724  -2.7464
    -2.7238  -2.6917  -2.6757  -2.6198  -2.5724  -2.2959  -2.0527  -2.0028
    -1.9707  -1.0887  -0.7796  -0.7401  -0.1900  -0.1650  -0.0581   0.0167
     0.0557   0.1015   0.1414   0.1844   0.2756   0.2984   0.4008   0.4493
     0.4807   0.5337   0.5501   0.5673   0.6090   0.6674   0.7086   0.7258
     0.7440   0.8068   0.8464   0.8915   0.9368   0.9942   1.0374   1.2591
     1.3960

     the Fermi energy is    -1.0889 ev

!    total energy              =   -2205.54023710 Ry
     estimated scf accuracy    <       0.00000002 Ry
     smearing contrib. (-TS)   =      -0.00568192 Ry
     internal energy E=F+TS    =   -2205.53455518 Ry

     The total energy is F=E-TS. E is the sum of the following terms:
     one-electron contribution =  -18047.32584487 Ry
     hartree contribution      =    9010.35062205 Ry
     xc contribution           =    -385.23729497 Ry
     ewald contribution        =    7216.67796262 Ry

     convergence has been achieved in   8 iterations

     negative rho (up, down):  1.386E-04 0.000E+00

     Forces acting on atoms (cartesian axes, Ry/au):

     atom    1 type  1   force =    -0.00360505   -0.00218149   -0.00382605
     atom    2 type  2   force =    -0.00503063    0.00664654   -0.00373627
     atom    3 type  2   force =    -0.00357852    0.00256624   -0.01608327
     atom    4 type  1   force =    -0.00003790    0.00036369    0.00452634
     atom    5 type  2   force =    -0.00541980   -0.01234549   -0.00107207
     atom    6 type  2   force =     0.00183421    0.00572778    0.00133142
     atom    7 type  1   force =     0.00632277   -0.00709484    0.00090119
     atom    8 type  2   force =     0.00125521   -0.00505767    0.00920320
     atom    9 type  2   force =     0.01157304    0.00469242    0.00119778
     atom   10 type  1   force =    -0.00266010    0.00600960    0.00014271
     atom   11 type  2   force =     0.00178067   -0.00102209   -0.01043065
     atom   12 type  2   force =    -0.00377444   -0.00365336   -0.00331632
     atom   13 type  1   force =     0.00366992    0.00285626    0.00169852
     atom   14 type  2   force =     0.00870744    0.04094657    0.02813851
     atom   15 type  2   force =    -0.00653449   -0.00192397   -0.00678463
     atom   16 type  1   force =    -0.00003635    0.00384283    0.00300443
     atom   17 type  2   force =     0.00152966    0.00175753   -0.00137242
     atom   18 type  2   force =    -0.00136273   -0.00108079    0.00623486
     atom   19 type  1   force =     0.00178181   -0.00573169    0.00230177
     atom   20 type  2   force =     0.00269732   -0.00322781   -0.00470230
     atom   21 type  1   force =    -0.00263296    0.00156444   -0.00079968
     atom   22 type  2   force =     0.00209409   -0.00108454   -0.00490168
     atom   23 type  2   force =    -0.00040956   -0.00321534    0.00002870
     atom   24 type  1   force =    -0.00350620   -0.00041419   -0.00267755
     atom   25 type  2   force =     0.00646984    0.01024240   -0.00389337
     atom   26 type  2   force =    -0.00590973   -0.00237821   -0.00540898
     atom   27 type  1   force =     0.00056390   -0.00102485    0.00629887
     atom   28 type  2   force =    -0.00147379   -0.00170721   -0.00611138
     atom   29 type  2   force =     0.00309497    0.00196927   -0.00640962
     atom   30 type  1   force =    -0.00116177   -0.00213604    0.00618837
     atom   31 type  2   force =     0.00038110   -0.00003965    0.00718888
     atom   32 type  2   force =    -0.00550337    0.00411963    0.00479335
     atom   33 type  1   force =     0.00243756    0.00061429    0.00402937
     atom   34 type  2   force =    -0.00139306   -0.01936584   -0.01343694
     atom   35 type  2   force =    -0.00375081    0.00699701    0.00464407
     atom   36 type  3   force =     0.00158776   -0.02623147    0.00311086
     The non-local contrib.  to forces
     atom    1 type  1   force =    -0.00004975    0.02386765   -0.00507734
     atom    2 type  2   force =    -0.00628760   -0.00244712   -0.26363117
     atom    3 type  2   force =    -0.00583488   -0.00880668    0.25894657
     atom    4 type  1   force =     0.00071437    0.00946499    0.00126805
     atom    5 type  2   force =    -0.04819577   -0.07855472   -0.19938383
     atom    6 type  2   force =    -0.00182642    0.00482186    0.26881026
     atom    7 type  1   force =    -0.01907291    0.00203673   -0.02318898
     atom    8 type  2   force =     0.00792904    0.00043785   -0.25461708
     atom    9 type  2   force =     0.00474068   -0.01066467    0.27105380
     atom   10 type  1   force =     0.00156385    0.00016175   -0.00313035
     atom   11 type  2   force =     0.01246680    0.00036348   -0.26175634
     atom   12 type  2   force =    -0.01395212   -0.01869919    0.25938843
     atom   13 type  1   force =     0.00534605    0.01661629   -0.00353862
     atom   14 type  2   force =     0.02705987    0.16638943   -0.14457045
     atom   15 type  2   force =    -0.00777512   -0.00879095    0.26255006
     atom   16 type  1   force =     0.00425158    0.02879878   -0.03254321
     atom   17 type  2   force =     0.00228747   -0.02350243   -0.23619982
     atom   18 type  2   force =    -0.00164989   -0.00096667    0.27031310
     atom   19 type  1   force =     0.01417941   -0.00071134   -0.01910194
     atom   20 type  2   force =    -0.00042993   -0.01845234    0.26252619
     atom   21 type  1   force =    -0.00194338    0.02531918   -0.00087591
     atom   22 type  2   force =    -0.00568725    0.00103780   -0.25840005
     atom   23 type  2   force =     0.00910896   -0.02008996    0.26343817
     atom   24 type  1   force =     0.00277993    0.01420781   -0.00860417
     atom   25 type  2   force =     0.00399536    0.00185199   -0.26437783
     atom   26 type  2   force =     0.00051927   -0.01248820    0.26342893
     atom   27 type  1   force =    -0.00223106    0.00823259    0.00922609
     atom   28 type  2   force =    -0.00230948   -0.02321259   -0.27331692
     atom   29 type  2   force =     0.00569518    0.00304118    0.26432650
     atom   30 type  1   force =    -0.00109734    0.01802946    0.00823071
     atom   31 type  2   force =    -0.00747501    0.00274942   -0.25661188
     atom   32 type  2   force =     0.00086667   -0.01210178    0.27193856
     atom   33 type  1   force =    -0.00166985    0.00279875    0.00339747
     atom   34 type  2   force =    -0.00427667   -0.01718070   -0.27863358
     atom   35 type  2   force =     0.00011625   -0.00998899    0.26509202
     atom   36 type  3   force =     0.00085346   -0.01180591   -0.01113870
     The ionic contribution  to forces
     atom    1 type  1   force =     0.07704402    0.55602153    4.11205019
     atom    2 type  2   force =    -0.18648195    0.07109753   39.41036377
     atom    3 type  2   force =     0.01893722   -0.07177760  -36.44738845
     atom    4 type  1   force =    -0.25007272    0.35751158    0.39434166
     atom    5 type  2   force =    -0.12571998    2.11023907   38.25343077
     atom    6 type  2   force =     0.22578387   -0.47424220  -37.87957234
     atom    7 type  1   force =    -2.66131769   -2.40551016    2.50676702
     atom    8 type  2   force =    -1.00178927    0.04579984   37.69277462
     atom    9 type  2   force =     0.33678562    0.01419633  -38.01739398
     atom   10 type  1   force =    -0.61340874   -0.57372555    5.36778485
     atom   11 type  2   force =    -0.61336848   -1.58572053   39.00732387
     atom   12 type  2   force =     0.43515814    0.54041263  -37.82838513
     atom   13 type  1   force =     0.18214456    0.42184349    1.99832775
     atom   14 type  2   force =    -0.20849699   -1.35107292   38.34584409
     atom   15 type  2   force =     0.09395568   -0.03338028  -36.87370718
     atom   16 type  1   force =     0.24566493    3.96018342    0.41882274
     atom   17 type  2   force =     0.26906543    1.76445641   37.73899183
     atom   18 type  2   force =    -0.15385172   -0.52163640  -38.47799193
     atom   19 type  1   force =     2.58476951   -2.21447716    0.71761517
     atom   20 type  2   force =     0.18673382   -0.17848096  -38.61122449
[...]
     atom   27 type  1   force =    -0.00532218    0.00859607    0.00293567
     atom   28 type  2   force =     0.00129168   -0.01643471   -0.27256683
     atom   29 type  2   force =    -0.00060804   -0.00493183    0.26877841
     atom   30 type  1   force =    -0.00006149    0.02125064    0.00555629
     atom   31 type  2   force =    -0.00822263   -0.00173612   -0.26251747
     atom   32 type  2   force =     0.00565928   -0.01183688    0.26790838
     atom   33 type  1   force =     0.00083215    0.00144423    0.00263645
     atom   34 type  2   force =     0.00057475   -0.00688732   -0.27372736
     atom   35 type  2   force =    -0.00057567   -0.01760828    0.26299615
     atom   36 type  3   force =    -0.00147271   -0.04058287   -0.03756634
     The ionic contribution  to forces
     atom    1 type  1   force =    -0.17627928   -0.42481897    4.42040294
     atom    2 type  2   force =    -0.03238178   -0.27617447   38.76596806
     atom    3 type  2   force =    -0.00324072    0.06345430  -37.05627852
     atom    4 type  1   force =     0.00692438    0.29177567   -0.27852020
     atom    5 type  2   force =    -0.43667707    1.73797029   38.09942377
     atom    6 type  2   force =     0.19732857   -0.60011371  -37.94017265
     atom    7 type  1   force =    -2.52117887   -1.73625784    1.31887116
     atom    8 type  2   force =    -1.18509216    0.34298122   38.01092760
     atom    9 type  2   force =     0.40553394   -0.03651975  -38.15550987
     atom   10 type  1   force =    -0.47563261   -0.27760586    2.99404871
     atom   11 type  2   force =    -0.65697871   -1.32904536   38.09109341
     atom   12 type  2   force =     0.50973582    0.51565295  -38.46404258
     atom   13 type  1   force =     0.14102620   -0.43202063    5.12296142
     atom   14 type  2   force =    -0.02488148   -2.46643760   38.84506676
     atom   15 type  2   force =    -0.03001540    0.15457170  -36.65848745
     atom   16 type  1   force =     0.00457107    3.64688756    1.42085580
     atom   17 type  2   force =     0.47034645    1.73562079   38.20329811
     atom   18 type  2   force =    -0.24926346   -0.60773414  -37.79401255
     atom   19 type  1   force =     2.57418949   -1.74817249    1.98624165
     atom   20 type  2   force =    -0.03626545   -0.17421387  -38.81926410
     atom   21 type  1   force =     0.00877211    1.47177986   -2.24485057
     atom   22 type  2   force =     0.68602197   -1.31342778   38.17511411
     atom   23 type  2   force =    -0.53778512    0.50143055  -38.35020368
     atom   24 type  1   force =     0.01414490    0.17189758    2.78639727
     atom   25 type  2   force =     0.02873951   -0.25592024   38.89026830
     atom   26 type  2   force =     0.04819861    0.06669092  -36.97161036
     atom   27 type  1   force =     0.00770320    0.27590207    0.33444413
     atom   28 type  2   force =    -0.02362468    0.62597036   38.09768827
     atom   29 type  2   force =     0.04503176   -0.33627215  -37.57492114
     atom   30 type  1   force =     0.00010973   -0.34761913    1.56611841
     atom   31 type  2   force =     1.13951693    0.34752681   38.15505287
     atom   32 type  2   force =    -0.38546396   -0.06329632  -38.06257336
     atom   33 type  1   force =     0.46143324   -0.26852970    3.38369149
     atom   34 type  2   force =    -0.02710755   -0.54913199   38.71966290
     atom   35 type  2   force =     0.02604147    0.37532535  -37.29899210
     atom   36 type  3   force =     0.02649894    0.91787399    8.28184199
     The local contribution  to forces
     atom    1 type  1   force =     0.18279750    0.41042699   -4.40788157
     atom    2 type  2   force =     0.03761123    0.28147317  -38.52409043
     atom    3 type  2   force =     0.00291123   -0.05397696   36.80995829
     atom    4 type  1   force =    -0.01289122   -0.30055301    0.27636181
     atom    5 type  2   force =     0.44175546   -1.71923558  -37.87894087
     atom    6 type  2   force =    -0.20020938    0.59837439   37.69437692
     atom    7 type  1   force =     2.53605981    1.73204504   -1.29521984
     atom    8 type  2   force =     1.17641323   -0.34072469  -37.76928243
     atom    9 type  2   force =    -0.39962093    0.04865219   37.90815899
     atom   10 type  1   force =     0.47722115    0.27665747   -2.99654421
     atom   11 type  2   force =     0.64016287    1.33782444  -37.86051304
     atom   12 type  2   force =    -0.49631798   -0.50118399   38.22181303
     atom   13 type  1   force =    -0.14864712    0.41730101   -5.10887620
     atom   14 type  2   force =     0.01996985    2.17446345  -38.80915543
     atom   15 type  2   force =     0.02938026   -0.14134401   36.41430546
     atom   16 type  1   force =    -0.00515491   -3.68107668   -1.38988236
     atom   17 type  2   force =    -0.47470424   -1.71605888  -37.98061133
     atom   18 type  2   force =     0.25121006    0.60612434   37.54785398
     atom   19 type  1   force =    -2.58810605    1.74409393   -1.96203559
     atom   20 type  2   force =     0.03567566    0.18627601   38.57845977
     atom   21 type  1   force =    -0.00860825   -1.50783527    2.23916084
     atom   22 type  2   force =    -0.66828291    1.32238234  -37.94433026
     atom   23 type  2   force =     0.52422456   -0.48653292   38.10760135
     atom   24 type  1   force =    -0.01414823   -0.18735100   -2.78678052
     atom   25 type  2   force =    -0.03409620    0.26119041  -38.64860068
     atom   26 type  2   force =    -0.04723355   -0.05708169   36.72576008
     atom   27 type  1   force =    -0.00291885   -0.28453214   -0.33766810
     atom   28 type  2   force =     0.02290249   -0.61013798  -37.84566755
     atom   29 type  2   force =    -0.04427616    0.34014236   37.32487258
     atom   30 type  1   force =    -0.00017727    0.32551477   -1.57224980
     atom   31 type  2   force =    -1.13156881   -0.34530267  -37.91398774
     atom   32 type  2   force =     0.38010913    0.07515173   37.81569841
     atom   33 type  1   force =    -0.46234801    0.26659205   -3.38646311
     atom   34 type  2   force =     0.02670554    0.55454737  -38.46741109
     atom   35 type  2   force =    -0.02567977   -0.35981209   37.05663051
     atom   36 type  3   force =    -0.02627694   -0.87741250   -8.24513378
     The core correction contribution to forces
     atom    1 type  1   force =     0.00000000    0.00000000    0.00000000
     atom    2 type  2   force =     0.00036918    0.00002568    0.02051414
     atom    3 type  2   force =    -0.00014990    0.00058369   -0.02086401
     atom    4 type  1   force =     0.00000000    0.00000000    0.00000000
     atom    5 type  2   force =     0.00023553    0.00130523    0.01954555
     atom    6 type  2   force =    -0.00005418   -0.00071266   -0.02091058
     atom    7 type  1   force =     0.00000000    0.00000000    0.00000000
     atom    8 type  2   force =    -0.00056285    0.00034256    0.02067567
     atom    9 type  2   force =     0.00070084    0.00058286   -0.02090309
     atom   10 type  1   force =     0.00000000    0.00000000    0.00000000
     atom   11 type  2   force =    -0.00091092    0.00024381    0.02028675
     atom   12 type  2   force =     0.00124821    0.00109881   -0.02077623
     atom   13 type  1   force =     0.00000000    0.00000000    0.00000000
     atom   14 type  2   force =    -0.00036052   -0.02032957    0.00405463
     atom   15 type  2   force =    -0.00008348    0.00105358   -0.02089828
     atom   16 type  1   force =     0.00000000    0.00000000    0.00000000
     atom   17 type  2   force =    -0.00015134    0.00135110    0.01962755
     atom   18 type  2   force =    -0.00000385   -0.00073896   -0.02087189
     atom   19 type  1   force =     0.00000000    0.00000000    0.00000000
     atom   20 type  2   force =    -0.00010057    0.00053567   -0.02113304
     atom   21 type  1   force =     0.00000000    0.00000000    0.00000000
     atom   22 type  2   force =     0.00095106    0.00029884    0.02029035
     atom   23 type  2   force =    -0.00131052    0.00100612   -0.02078416
     atom   24 type  1   force =     0.00000000    0.00000000    0.00000000
     atom   25 type  2   force =    -0.00042400    0.00005442    0.02055068
     atom   26 type  2   force =     0.00025169    0.00059137   -0.02085847
     atom   27 type  1   force =     0.00000000    0.00000000    0.00000000
     atom   28 type  2   force =    -0.00009822    0.00112525    0.02101462
     atom   29 type  2   force =     0.00007198   -0.00000706   -0.02085374
     atom   30 type  1   force =     0.00000000    0.00000000    0.00000000
     atom   31 type  2   force =     0.00042227    0.00038357    0.02072024
     atom   32 type  2   force =    -0.00063136    0.00057998   -0.02093233
     atom   33 type  1   force =     0.00000000    0.00000000    0.00000000
     atom   34 type  2   force =    -0.00004776    0.00026642    0.02110939
     atom   35 type  2   force =     0.00005182    0.00102529   -0.02069507
     atom   36 type  3   force =     0.00000000    0.00000000    0.00000000
     The Hubbard contrib.    to forces
     atom    1 type  1   force =     0.00000000    0.00000000    0.00000000
     atom    2 type  2   force =     0.00000000    0.00000000    0.00000000
     atom    3 type  2   force =     0.00000000    0.00000000    0.00000000
     atom    4 type  1   force =     0.00000000    0.00000000    0.00000000
     atom    5 type  2   force =     0.00000000    0.00000000    0.00000000
     atom    6 type  2   force =     0.00000000    0.00000000    0.00000000
     atom    7 type  1   force =     0.00000000    0.00000000    0.00000000
     atom    8 type  2   force =     0.00000000    0.00000000    0.00000000
     atom    9 type  2   force =     0.00000000    0.00000000    0.00000000
     atom   10 type  1   force =     0.00000000    0.00000000    0.00000000
     atom   11 type  2   force =     0.00000000    0.00000000    0.00000000
     atom   12 type  2   force =     0.00000000    0.00000000    0.00000000
     atom   13 type  1   force =     0.00000000    0.00000000    0.00000000
     atom   14 type  2   force =     0.00000000    0.00000000    0.00000000
     atom   15 type  2   force =     0.00000000    0.00000000    0.00000000
     atom   16 type  1   force =     0.00000000    0.00000000    0.00000000
     atom   17 type  2   force =     0.00000000    0.00000000    0.00000000
     atom   18 type  2   force =     0.00000000    0.00000000    0.00000000
     atom   19 type  1   force =     0.00000000    0.00000000    0.00000000
     atom   20 type  2   force =     0.00000000    0.00000000    0.00000000
     atom   21 type  1   force =     0.00000000    0.00000000    0.00000000
     atom   22 type  2   force =     0.00000000    0.00000000    0.00000000
     atom   23 type  2   force =     0.00000000    0.00000000    0.00000000
     atom   24 type  1   force =     0.00000000    0.00000000    0.00000000
     atom   25 type  2   force =     0.00000000    0.00000000    0.00000000
     atom   26 type  2   force =     0.00000000    0.00000000    0.00000000
     atom   27 type  1   force =     0.00000000    0.00000000    0.00000000
     atom   28 type  2   force =     0.00000000    0.00000000    0.00000000
     atom   29 type  2   force =     0.00000000    0.00000000    0.00000000
     atom   30 type  1   force =     0.00000000    0.00000000    0.00000000
     atom   31 type  2   force =     0.00000000    0.00000000    0.00000000
     atom   32 type  2   force =     0.00000000    0.00000000    0.00000000
     atom   33 type  1   force =     0.00000000    0.00000000    0.00000000
     atom   34 type  2   force =     0.00000000    0.00000000    0.00000000
     atom   35 type  2   force =     0.00000000    0.00000000    0.00000000
     atom   36 type  3   force =     0.00000000    0.00000000    0.00000000
     The SCF correction term to forces
     atom    1 type  1   force =    -0.00000658    0.00003683   -0.00001522
     atom    2 type  2   force =     0.00000552   -0.00001404    0.00000188
     atom    3 type  2   force =    -0.00000036    0.00000456   -0.00001402
     atom    4 type  1   force =    -0.00001862   -0.00001556   -0.00001355
     atom    5 type  2   force =    -0.00000469   -0.00000374   -0.00003269
     atom    6 type  2   force =    -0.00000040   -0.00000244    0.00001170
     atom    7 type  1   force =    -0.00001790   -0.00000186    0.00000824
     atom    8 type  2   force =     0.00000392    0.00000051   -0.00000260
     atom    9 type  2   force =    -0.00000554   -0.00001560    0.00001410
     atom   10 type  1   force =     0.00001972    0.00000297    0.00002033
     atom   11 type  2   force =     0.00000168   -0.00000454    0.00000113
     atom   12 type  2   force =    -0.00000030    0.00000041    0.00000870
     atom   13 type  1   force =     0.00000916    0.00000722   -0.00001636
     atom   14 type  2   force =     0.00000470    0.00000947    0.00000463
     atom   15 type  2   force =    -0.00000182    0.00001297   -0.00000222
     atom   16 type  1   force =     0.00001382   -0.00003039   -0.00000729
     atom   17 type  2   force =     0.00000141    0.00000175   -0.00000778
     atom   18 type  2   force =     0.00001125   -0.00000326    0.00000560
     atom   19 type  1   force =     0.00001094   -0.00000231    0.00002604
     atom   20 type  2   force =     0.00000675   -0.00001385    0.00001303
     atom   21 type  1   force =     0.00000624    0.00000054    0.00002396
     atom   22 type  2   force =    -0.00000628   -0.00000333    0.00000428
     atom   23 type  2   force =    -0.00000291    0.00000231    0.00000845
     atom   24 type  1   force =     0.00002396    0.00000127   -0.00000030
     atom   25 type  2   force =    -0.00000225   -0.00001215   -0.00000778
     atom   26 type  2   force =    -0.00000508   -0.00000265    0.00000808
     atom   27 type  1   force =     0.00000036   -0.00000225    0.00000164
     atom   28 type  2   force =    -0.00000268    0.00000261   -0.00001192
     atom   29 type  2   force =    -0.00000942   -0.00000770   -0.00000045
     atom   30 type  1   force =    -0.00000542   -0.00000829    0.00003322
     atom   31 type  2   force =     0.00000202    0.00000409    0.00000261
     atom   32 type  2   force =     0.00000323   -0.00001208    0.00001759
     atom   33 type  1   force =    -0.00000722    0.00002897    0.00002374
     atom   34 type  2   force =     0.00000251    0.00001188    0.00000551
     atom   35 type  2   force =     0.00000118    0.00002384    0.00001348
     atom   36 type  3   force =    -0.00000030   -0.00000011   -0.00000005

     Total force =     0.006550     Total SCF correction =     0.000124
     Energy error            =      9.9E-05 Ry
     Gradient error          =      2.1E-03 Ry/Bohr

     bfgs converged in  21 scf cycles and  20 bfgs steps
     (criteria: energy <  1.0E-04 Ry, force <  1.0E-02 Ry/Bohr)

     End of BFGS Geometry Optimization

     Final energy             =   -2205.5860203961 Ry

     File ./MoS2-V-O.bfgs deleted, as requested
Begin final coordinates

ATOMIC_POSITIONS (angstrom)
Mo            6.5595303395        1.7753808874        2.8018855466
S             8.1495531096        0.8469037917        4.3746933772
S             8.1354737700        0.8600420143        1.1927577315
Mo            8.1336010656        4.5051952199        2.6923258792
S             6.5420331229        3.7114619133        4.3071712715
S             6.5550930051        3.5503423281        1.1106408522
Mo            6.5300488546        7.1896466927        2.6265438095
S             8.0878863577        6.3229949165        4.2715818685
S             8.1586070219        6.3207795643        1.0818643300
Mo            8.1305419365        9.9442777940        2.7590652760
S             6.5018336811        8.9570599005        4.2825415874
S             6.6144592620        9.0296249272        1.0713592257
Mo            3.4468649874        1.7765263703        2.8144782914
S             5.0098276021        0.9758827507        4.5662675066
S             4.9973827629        0.8571167248        1.2041816652
Mo            5.0041899622        4.5564853659        2.6487764579
S             3.4705840163        3.7166479921        4.3147501201
S             3.4503351272        3.5483381925        1.1223619071
Mo            3.4704414385        7.1882606094        2.6387721894
S             4.9960353850        6.3180864980        1.0174504996
Mo            4.9988429637        9.8679299314        2.6341086596
S             3.4983384572        8.9626570954        4.2899185821
S             3.3805723929        9.0236895130        1.0811089109
Mo            0.2744184691        1.7510200040        2.7769717095
S             1.8496647423        0.8499599563        4.3853233292
S             1.8742125043        0.8608490172        1.1990653955
Mo            1.8727121851        4.5062464314        2.7044342349
S             0.2697030450        3.6269565708        4.3094656091
S             0.2786135278        3.5555523128        1.1439138667
Mo            0.2723888500        7.2285005376        2.7164804505
S             1.9055989268        6.3261759596        4.2841267519
S             1.8484762804        6.3194418665        1.0896291591
Mo            1.8693808296        9.9470890749        2.7670691845
S             0.2684973047        9.0351110353        4.3480431238
S             0.2753166505        9.0763878943        1.1660465153
H             5.0450426301        2.0209692007        5.4955727018
End final coordinates



     Writing all to output data dir ./MoS2-V-O.save/
 
     init_run     :      2.40s CPU      2.59s WALL (       1 calls)
     electrons    :   1726.14s CPU   1892.18s WALL (      21 calls)
     update_pot   :     27.95s CPU     29.10s WALL (      20 calls)
     forces       :     28.43s CPU     30.42s WALL (      21 calls)

     Called by init_run:
     wfcinit      :      0.39s CPU      0.43s WALL (       1 calls)
     potinit      :      1.32s CPU      1.41s WALL (       1 calls)
     hinit0       :      0.17s CPU      0.19s WALL (       1 calls)

     Called by electrons:
     c_bands      :    211.19s CPU    213.65s WALL (     168 calls)
     sum_band     :     53.70s CPU     58.76s WALL (     168 calls)
     v_of_rho     :     69.28s CPU     79.98s WALL (     179 calls)
     newd         :     28.61s CPU     32.19s WALL (     179 calls)
     mix_rho      :   1372.68s CPU   1515.86s WALL (     168 calls)

     Called by c_bands:
     init_us_2    :      3.69s CPU      3.82s WALL (     337 calls)
     init_us_2:cp :      3.69s CPU      3.82s WALL (     337 calls)
     regterg      :    199.05s CPU    201.36s WALL (     168 calls)

     Called by *egterg:
     rdiaghg      :     17.33s CPU     17.45s WALL (    1000 calls)
     h_psi        :    114.79s CPU    115.86s WALL (    1031 calls)
     s_psi        :     14.67s CPU     14.72s WALL (    1031 calls)
     g_psi        :      0.78s CPU      0.79s WALL (     862 calls)

     Called by h_psi:
     h_psi:calbec :     15.90s CPU     15.96s WALL (    1031 calls)
     vloc_psi     :     82.65s CPU     83.55s WALL (    1031 calls)
     add_vuspsi   :     14.38s CPU     14.46s WALL (    1031 calls)

     General routines
     calbec       :     22.60s CPU     22.69s WALL (    1283 calls)
     fft          :     45.78s CPU     53.53s WALL (   12146 calls)
     ffts         :    612.65s CPU    751.26s WALL (  332800 calls)
     fftw         :     70.80s CPU     71.51s WALL (  104372 calls)
     interpolate  :      1.25s CPU      1.44s WALL (     179 calls)
 
     Parallel routines
 
     PWSCF        :  29m49.20s CPU  32m40.24s WALL

 
   This run was terminated on:  23:50:40   3Nov2023            

=------------------------------------------------------------------------------=
   JOB DONE.
=------------------------------------------------------------------------------=
