
     Program PWSCF v.7.2 starts on  4Nov2023 at 10:36:17 

     This program is part of the open-source Quantum ESPRESSO suite
     for quantum simulation of materials; please cite
         "P. Giannozzi et al., J. Phys.:Condens. Matter 21 395502 (2009);
         "P. Giannozzi et al., J. Phys.:Condens. Matter 29 465901 (2017);
         "P. Giannozzi et al., J. Chem. Phys. 152 154105 (2020);
          URL http://www.quantum-espresso.org", 
     in publications or presentations arising from this work. More details at
     http://www.quantum-espresso.org/quote

     Parallel version (MPI & OpenMP), running on      48 processor cores
     Number of MPI processes:                48
     Threads/MPI process:                     1

     MPI processes distributed on     1 nodes
     16538 MiB available memory on the printing compute node when the environment starts
 
     Waiting for input...
     Reading input from standard input
Warning: card &CELL ignored
Warning: card CELL_DYNAMICS = 'BFGS', ignored
Warning: card CELL_DOFREE = '2DXY' ignored
Warning: card / ignored

     Current dimensions of program PWSCF are:
     Max number of different atomic species (ntypx) = 10
     Max number of k-points (npk) =  40000
     Max angular momentum in pseudopotentials (lmaxx) =  4

     IMPORTANT: XC functional enforced from input :
     Exchange-correlation= RVV10
                           (   1   4  13   4  26   0   0)
     Any further DFT definition will be discarded
     Please, verify this is what you really want


     gamma-point specific algorithms are used
     signal trapping enabled: kill the code with -SIGUSR1 to stop cleanly the simulation 
 
     R & G space division:  proc/nbgrp/npool/nimage =      48
     Subspace diagonalization in iterative solution of the eigenvalue problem:
     one sub-group per band group will be used
     scalapack distributed-memory algorithm (size of sub-group:  2*  2 procs)

 
     Parallelization info
     --------------------
     sticks:   dense  smooth     PW     G-vecs:    dense   smooth      PW
     Min         243     194     47                49060    35090    4376
     Max         246     196     50                49086    35128    4410
     Sum       11735    9389   2349              2355467  1685513  210763
 
     Using Slab Decomposition
 


     bravais-lattice index     =            0
     lattice parameter (alat)  =      17.8707  a.u.
     unit-cell volume          =   17436.2743 (a.u.)^3
     number of atoms/cell      =           36
     number of atomic types    =            3
     number of electrons       =       307.00
     number of Kohn-Sham states=          185
     kinetic-energy cutoff     =      80.0000  Ry
     charge density cutoff     =     400.0000  Ry
     scf convergence threshold =      1.0E-06
     mixing beta               =       0.7000
     number of iterations used =            8  local-TF  mixing
     energy convergence thresh.=      1.0E-04
     force convergence thresh. =      1.0E-02
     Exchange-correlation= RVV10
                           (   1   4  13   4  26   0   0)
     nstep                     =          200


     celldm(1)=  17.870686  celldm(2)=   0.000000  celldm(3)=   0.000000
     celldm(4)=   0.000000  celldm(5)=   0.000000  celldm(6)=   0.000000

     crystal axes: (cart. coord. in units of alat)
               a(1) = (   1.000000   0.000000   0.000000 )  
               a(2) = (   0.000000   1.155671   0.000000 )  
               a(3) = (   0.000000   0.000000   2.643601 )  

     reciprocal axes: (cart. coord. in units 2 pi/alat)
               b(1) = (  1.000000  0.000000  0.000000 )  
               b(2) = (  0.000000  0.865298  0.000000 )  
               b(3) = (  0.000000  0.000000  0.378272 )  


     PseudoPot. # 1 for Mo read from file:
     ../pseudo/Mo_ONCV_PBE-1.0.oncvpsp.upf
     MD5 check sum: 1b5d28e075c9ccadda658a603575cd1f
     Pseudo is Norm-conserving, Zval = 14.0
     Generated using ONCVPSP code by D. R. Hamann
     Using radial grid of 1526 points,  6 beta functions with: 
                l(1) =   0
                l(2) =   0
                l(3) =   1
                l(4) =   1
                l(5) =   2
                l(6) =   2

     PseudoPot. # 2 for S  read from file:
     ../pseudo/s_pbe_v1.4.uspp.F.UPF
     MD5 check sum: 88d86576ff6df21479756cfb9bdac1df
     Pseudo is Ultrasoft + core correction, Zval =  6.0
     Generated by new atomic code, or converted to UPF format
     Using radial grid of  907 points,  6 beta functions with: 
                l(1) =   0
                l(2) =   0
                l(3) =   1
                l(4) =   1
                l(5) =   2
                l(6) =   2
     Q(r) pseudized with  8 coefficients,  rinner =    1.300   1.300   1.300
                                                       1.300   1.300

     PseudoPot. # 3 for H  read from file:
     ../pseudo/H_ONCV_PBE-1.0.oncvpsp.upf
     MD5 check sum: 1790becc920ee074925cf490c71280fe
     Pseudo is Norm-conserving, Zval =  1.0
     Generated using ONCVPSP code by D. R. Hamann
     Using radial grid of 1166 points,  2 beta functions with: 
                l(1) =   0
                l(2) =   0

     atomic species   valence    mass     pseudopotential
        Mo            14.00    95.94000     Mo( 1.00)
        S              6.00    32.06500     S ( 1.00)
        H              1.00     1.00794     H ( 1.00)

     No symmetry found



   Cartesian axes

     site n.     atom                  positions (alat units)
         1           Mo  tau(   1) = (   0.6952221   0.1890506   0.2985846  )
         2           S   tau(   2) = (   0.8646417   0.0856217   0.4689279  )
         3           S   tau(   3) = (   0.8663890   0.0857843   0.1351291  )
         4           Mo  tau(   4) = (   0.8560186   0.4753274   0.2873942  )
         5           S   tau(   5) = (   0.6873294   0.3936244   0.4596353  )
         6           S   tau(   6) = (   0.6929804   0.3713468   0.1185692  )
         7           Mo  tau(   7) = (   0.6862796   0.7633098   0.2825370  )
         8           S   tau(   8) = (   0.8545980   0.6708292   0.4486168  )
         9           S   tau(   9) = (   0.8545123   0.6666874   0.1146125  )
        10           Mo  tau(  10) = (   0.8629403   1.0471007   0.3006803  )
        11           S   tau(  11) = (   0.6868280   0.9456650   0.4634891  )
        12           S   tau(  12) = (   0.6998113   0.9568511   0.1205389  )
        13           Mo  tau(  13) = (   0.3618216   0.1847309   0.2935964  )
        14           S   tau(  14) = (   0.5260962   0.0863870   0.4600448  )
        15           S   tau(  15) = (   0.5348379   0.0894875   0.1297123  )
        16           Mo  tau(  16) = (   0.5265817   0.4772436   0.2784130  )
        17           S   tau(  17) = (   0.3624753   0.3882513   0.4525556  )
        18           S   tau(  18) = (   0.3635411   0.3752055   0.1119148  )
        19           Mo  tau(  19) = (   0.3652268   0.7630864   0.2781795  )
        20           S   tau(  20) = (   0.5269494   0.6690381   0.1096838  )
        21           Mo  tau(  21) = (   0.5300192   1.0470394   0.2900995  )
        22           S   tau(  22) = (   0.3670346   0.9457522   0.4574073  )
        23           S   tau(  23) = (   0.3604225   0.9585725   0.1159032  )
        24           Mo  tau(  24) = (   0.0313099   0.1847895   0.3013130  )
        25           S   tau(  25) = (   0.1956761   0.0838230   0.4650863  )
        26           S   tau(  26) = (   0.1967693   0.0903508   0.1278874  )
        27           Mo  tau(  27) = (   0.1967578   0.4753919   0.2813011  )
        28           S   tau(  28) = (   0.0287851   0.3864324   0.4586755  )
        29           S   tau(  29) = (   0.0244514   0.3729871   0.1239344  )
        30           Mo  tau(  30) = (   0.0286728   0.7631204   0.2856894  )
        31           S   tau(  31) = (   0.2011512   0.6675435   0.4465001  )
        32           S   tau(  32) = (   0.1969214   0.6672839   0.1104564  )
        33           Mo  tau(  33) = (   0.1950294   1.0511147   0.2932237  )
        34           S   tau(  34) = (   0.0312912   0.9612169   0.4667423  )
        35           S   tau(  35) = (   0.0292670   0.9563028   0.1216485  )
        36           H   tau(  36) = (   0.1111111   1.1556707   0.5792558  )

     number of k points=     1  Gaussian smearing, width (Ry)=  0.0100
                       cart. coord. in units 2pi/alat
        k(    1) = (   0.0000000   0.0000000   0.0000000), wk =   2.0000000

     Dense  grid:  1177734 G-vectors     FFT dimensions: ( 120, 135, 320)

     Smooth grid:   842757 G-vectors     FFT dimensions: ( 108, 120, 270)

     Estimated max dynamical RAM per process >     146.59 MB

     Estimated total dynamical RAM >       6.87 GB

     Initial potential from superposition of free atoms

     starting charge     306.9873, renormalised to     307.0000

     negative rho (up, down):  1.407E-04 0.000E+00


---------------------------------------------------------------------------------
Carrying out rVV10 run using the following parameters:
Nqs =      20    Nr_points =    1024   r_max =   100.000
b_value =  6.30000    beta =  0.00901
     q_mesh =  0.00010000  0.00030000  0.00058939  0.00100810
               0.00161396  0.00249058  0.00375900  0.00559430
               0.00824984  0.01209221  0.01765183  0.02569619
               0.03733578  0.05417739  0.07854596  0.11380545
               0.16482331  0.23864234  0.34545298  0.50000000

Gradients computed in Reciprocal space

---------------------------------------------------------------------------------


     Starting wfcs are  213 randomized atomic wfcs

     total cpu time spent up to now is        2.8 secs

     Self-consistent Calculation

     iteration #  1     ecut=    80.00 Ry     beta= 0.70
     Davidson diagonalization with overlap
     ethr =  1.00E-02,  avg # of iterations =  2.0

     Threshold (ethr) on eigenvalues was too large:
     Diagonalizing with lowered threshold

     Davidson diagonalization with overlap
     ethr =  3.79E-04,  avg # of iterations =  4.0

     negative rho (up, down):  1.751E-08 0.000E+00

     total cpu time spent up to now is       22.4 secs

     total energy              =   -2205.61394995 Ry
     estimated scf accuracy    <       1.45087590 Ry

     iteration #  2     ecut=    80.00 Ry     beta= 0.70
     Davidson diagonalization with overlap
     ethr =  4.73E-04,  avg # of iterations =  2.0

     total cpu time spent up to now is       24.8 secs

     total energy              =   -2205.47018050 Ry
     estimated scf accuracy    <       0.57934038 Ry

     iteration #  3     ecut=    80.00 Ry     beta= 0.70
     Davidson diagonalization with overlap
     ethr =  1.89E-04,  avg # of iterations =  4.0

     total cpu time spent up to now is       27.3 secs

     total energy              =   -2205.53801342 Ry
     estimated scf accuracy    <       0.10702175 Ry

     iteration #  4     ecut=    80.00 Ry     beta= 0.70
     Davidson diagonalization with overlap
     ethr =  3.49E-05,  avg # of iterations = 13.0

     total cpu time spent up to now is       30.4 secs

     total energy              =   -2205.54700898 Ry
     estimated scf accuracy    <       0.03071062 Ry

     iteration #  5     ecut=    80.00 Ry     beta= 0.70
     Davidson diagonalization with overlap
     ethr =  1.00E-05,  avg # of iterations =  2.0

     total cpu time spent up to now is       32.6 secs

     total energy              =   -2205.54713629 Ry
     estimated scf accuracy    <       0.01952164 Ry

     iteration #  6     ecut=    80.00 Ry     beta= 0.70
     Davidson diagonalization with overlap
     ethr =  6.36E-06,  avg # of iterations =  2.0

     total cpu time spent up to now is       34.8 secs

     total energy              =   -2205.54591138 Ry
     estimated scf accuracy    <       0.01240502 Ry

     iteration #  7     ecut=    80.00 Ry     beta= 0.70
     Davidson diagonalization with overlap
     ethr =  4.04E-06,  avg # of iterations =  2.0

     negative rho (up, down):  1.382E-05 0.000E+00

     total cpu time spent up to now is       40.5 secs

     total energy              =   -2205.54435055 Ry
     estimated scf accuracy    <       0.00685263 Ry

     iteration #  8     ecut=    80.00 Ry     beta= 0.70
     Davidson diagonalization with overlap
     c_bands:  1 eigenvalues not converged
     ethr =  2.23E-06,  avg # of iterations = 20.0

     negative rho (up, down):  1.228E-02 0.000E+00

     total cpu time spent up to now is       45.4 secs

     total energy              =   -2205.54398602 Ry
     estimated scf accuracy    <       0.00338507 Ry

     iteration #  9     ecut=    80.00 Ry     beta= 0.70
     Davidson diagonalization with overlap
     c_bands:  1 eigenvalues not converged
     ethr =  1.10E-06,  avg # of iterations = 20.0

     negative rho (up, down):  3.596E-02 0.000E+00

     total cpu time spent up to now is       50.1 secs

     total energy              =   -2205.54405418 Ry
     estimated scf accuracy    <       0.00184052 Ry

     iteration # 10     ecut=    80.00 Ry     beta= 0.70
     Davidson diagonalization with overlap
     c_bands:  1 eigenvalues not converged
     ethr =  6.00E-07,  avg # of iterations = 20.0

     negative rho (up, down):  2.472E-02 0.000E+00

     total cpu time spent up to now is       55.7 secs

     total energy              =   -2205.54402101 Ry
     estimated scf accuracy    <       0.00060014 Ry

     iteration # 11     ecut=    80.00 Ry     beta= 0.70
     Davidson diagonalization with overlap
     c_bands:  1 eigenvalues not converged
     ethr =  1.95E-07,  avg # of iterations = 20.0

     negative rho (up, down):  1.262E-02 0.000E+00

     total cpu time spent up to now is       61.0 secs

     total energy              =   -2205.54408517 Ry
     estimated scf accuracy    <       0.00012824 Ry

     iteration # 12     ecut=    80.00 Ry     beta= 0.70
     Davidson diagonalization with overlap
     ethr =  4.18E-08,  avg # of iterations =  4.0

     negative rho (up, down):  2.156E-03 0.000E+00

     total cpu time spent up to now is       67.7 secs

     total energy              =   -2205.54413615 Ry
     estimated scf accuracy    <       0.00002709 Ry

     iteration # 13     ecut=    80.00 Ry     beta= 0.70
     Davidson diagonalization with overlap
     ethr =  8.82E-09,  avg # of iterations =  5.0

     negative rho (up, down):  6.154E-04 0.000E+00

     total cpu time spent up to now is       78.4 secs

     total energy              =   -2205.54414521 Ry
     estimated scf accuracy    <       0.00000231 Ry

     iteration # 14     ecut=    80.00 Ry     beta= 0.70
     Davidson diagonalization with overlap
     ethr =  7.54E-10,  avg # of iterations =  4.0

     negative rho (up, down):  1.374E-04 0.000E+00

     total cpu time spent up to now is       80.7 secs

     End of self-consistent calculation

          k = 0.0000 0.0000 0.0000 (105382 PWs)   bands (ev):

   -62.8632 -62.8494 -62.8328 -62.8197 -62.8113 -62.8007 -62.7713 -62.7590
   -62.7453 -62.7371 -62.7186 -62.6927 -37.2011 -37.1307 -37.1203 -37.1103
   -37.0977 -37.0725 -37.0569 -37.0441 -37.0392 -37.0346 -37.0251 -37.0143
   -37.0059 -37.0012 -36.9951 -36.9855 -36.9767 -36.9699 -36.9558 -36.9516
   -36.9339 -36.9169 -36.9069 -36.8972 -36.8813 -36.8771 -36.8726 -36.8667
   -36.8607 -36.8432 -36.8264 -36.8126 -36.8021 -36.7681 -36.6888 -36.6675
   -16.0705 -15.4351 -15.1518 -15.0470 -14.9027 -14.7966 -14.6540 -14.4730
   -14.4358 -14.3946 -14.3541 -14.3510 -14.3018 -14.2535 -14.1507 -14.1120
   -14.0913 -14.0726 -13.9927 -13.9197 -13.8142 -13.7921 -13.7689  -8.4314
    -7.5944  -7.4299  -7.2632  -7.2326  -7.2115  -7.1606  -7.1077  -7.0233
    -6.8198  -6.7819  -6.7471  -6.6847  -6.5198  -6.4847  -6.4632  -6.4165
    -6.2923  -6.2340  -6.1104  -5.9717  -5.8995  -5.8749  -5.7939  -5.7699
    -5.7523  -5.6868  -5.6344  -5.6273  -5.5789  -5.5278  -5.4988  -5.4561
    -5.4063  -5.3425  -5.2604  -5.1506  -5.0465  -4.9785  -4.9553  -4.9243
    -4.8938  -4.7989  -4.6232  -4.5148  -4.4836  -4.3186  -4.2660  -4.2043
    -4.1403  -4.0470  -3.9976  -3.9048  -3.7764  -3.7634  -3.7320  -3.6971
    -3.6649  -3.5388  -3.5244  -3.5076  -3.4833  -3.4362  -3.4211  -3.3571
    -3.3414  -3.1747  -3.1059  -2.8926  -2.8730  -2.7754  -2.7427  -2.7121
    -2.6971  -2.6482  -2.6167  -2.5925  -2.5320  -2.2683  -1.9857  -1.9580
    -1.9539  -0.9498  -0.7149  -0.6788  -0.1474  -0.1106  -0.0397  -0.0265
     0.1140   0.1498   0.2155   0.2613   0.2800   0.3202   0.3794   0.4652
     0.5260   0.5560   0.5757   0.6014   0.6484   0.7180   0.7505   0.7795
     0.8014   0.8224   0.8945   0.8963   0.9730   1.0172   1.0588   1.2733
     1.4134

     the Fermi energy is    -0.9520 ev

!    total energy              =   -2205.54414876 Ry
     estimated scf accuracy    <       0.00000054 Ry
     smearing contrib. (-TS)   =      -0.00601150 Ry
     internal energy E=F+TS    =   -2205.53813726 Ry

     The total energy is F=E-TS. E is the sum of the following terms:
     one-electron contribution =  -18045.60689232 Ry
     hartree contribution      =    9009.82109230 Ry
     xc contribution           =    -385.28483647 Ry
     ewald contribution        =    7215.53249922 Ry

     convergence has been achieved in  14 iterations

     negative rho (up, down):  1.374E-04 0.000E+00

     Forces acting on atoms (cartesian axes, Ry/au):

     atom    1 type  1   force =     0.01145606   -0.02265053    0.00725341
     atom    2 type  2   force =    -0.01346206    0.01678259   -0.00089125
     atom    3 type  2   force =    -0.01066665    0.00942377   -0.00391142
     atom    4 type  1   force =     0.00699412   -0.00251492   -0.00041872
     atom    5 type  2   force =    -0.00166701   -0.00503824   -0.00875960
     atom    6 type  2   force =     0.00157898    0.01083764    0.00221809
     atom    7 type  1   force =    -0.00026165   -0.01037892   -0.00737501
     atom    8 type  2   force =     0.00082750   -0.00471626    0.01727052
     atom    9 type  2   force =     0.01427511    0.00645454    0.01266586
     atom   10 type  1   force =    -0.01009005    0.00991071   -0.02497008
     atom   11 type  2   force =     0.00372777   -0.00132934   -0.00655899
     atom   12 type  2   force =    -0.00144526   -0.00099059    0.00525385
     atom   13 type  1   force =     0.03012871    0.02614077   -0.03722093
     atom   14 type  2   force =     0.01103187   -0.00097904    0.01076224
     atom   15 type  2   force =    -0.01470498   -0.00014635   -0.00918244
     atom   16 type  1   force =    -0.00032880    0.00900825    0.00417867
     atom   17 type  2   force =     0.00818892    0.00488423    0.00143253
     atom   18 type  2   force =    -0.00149720   -0.00969772    0.01661099
     atom   19 type  1   force =     0.00941484   -0.00330855   -0.00688258
     atom   20 type  2   force =     0.00258007   -0.00444233    0.00158808
     atom   21 type  1   force =    -0.00787675    0.00809863   -0.00084410
     atom   22 type  2   force =    -0.00138556   -0.00265346   -0.00205013
     atom   23 type  2   force =     0.00117841    0.00003324    0.00969842
     atom   24 type  1   force =    -0.00947812   -0.00534450   -0.01852381
     atom   25 type  2   force =    -0.03390220   -0.02551903    0.05804884
     atom   26 type  2   force =    -0.01098445   -0.00084101   -0.00443444
     atom   27 type  1   force =    -0.00094570   -0.00762616    0.00737519
     atom   28 type  2   force =    -0.00016988    0.00294732   -0.00580711
     atom   29 type  2   force =     0.00254275    0.00115285   -0.00182918
     atom   30 type  1   force =    -0.00351990    0.00756605   -0.01316845
     atom   31 type  2   force =     0.00082930   -0.00174301    0.01713114
     atom   32 type  2   force =    -0.01041087    0.00769059    0.00971631
     atom   33 type  1   force =     0.01354404   -0.00781256   -0.01779323
     atom   34 type  2   force =     0.00579689   -0.03530953   -0.00296118
     atom   35 type  2   force =    -0.00761306    0.00756842    0.01263360
     atom   36 type  3   force =     0.01631481    0.02454245   -0.02025509
     The non-local contrib.  to forces
     atom    1 type  1   force =    -0.00056052    0.03297905   -0.01224003
     atom    2 type  2   force =    -0.00463544    0.00090665   -0.26217817
     atom    3 type  2   force =    -0.01295450   -0.00040946    0.27021405
     atom    4 type  1   force =    -0.00401737    0.00894809    0.00595790
     atom    5 type  2   force =     0.00649665   -0.03288662   -0.25273449
     atom    6 type  2   force =    -0.00164294    0.01067558    0.26281146
     atom    7 type  1   force =    -0.02403878   -0.00654822   -0.02077910
     atom    8 type  2   force =     0.00223702   -0.00386122   -0.25347586
     atom    9 type  2   force =     0.00801979   -0.00978030    0.27759443
     atom   10 type  1   force =     0.00716390   -0.00115484   -0.00041292
     atom   11 type  2   force =     0.01139854    0.00700826   -0.25865400
     atom   12 type  2   force =    -0.01352178   -0.01503142    0.26340983
     atom   13 type  1   force =    -0.01227765    0.00806174   -0.01090855
     atom   14 type  2   force =     0.01989914   -0.01064880   -0.25127876
     atom   15 type  2   force =    -0.01617909   -0.00278979    0.26319340
     atom   16 type  1   force =     0.00014156    0.03125893   -0.03186497
     atom   17 type  2   force =     0.00390015   -0.01976935   -0.24435258
     atom   18 type  2   force =    -0.00170039   -0.00742039    0.27551660
     atom   19 type  1   force =     0.01681162   -0.00879192   -0.01457560
     atom   20 type  2   force =    -0.00022419   -0.02162535    0.26558874
     atom   21 type  1   force =     0.00357135    0.02060030    0.00653501
     atom   22 type  2   force =    -0.01047001    0.00694177   -0.25426883
     atom   23 type  2   force =     0.00784335   -0.01566162    0.26783134
     atom   24 type  1   force =     0.01103700    0.01145363   -0.00936042
     atom   25 type  2   force =    -0.16714392   -0.14948812    0.02087611
     atom   26 type  2   force =    -0.00510600   -0.01450124    0.26803182
     atom   27 type  1   force =    -0.00180167    0.01393304    0.00946965
     atom   28 type  2   force =    -0.00422602   -0.02676111   -0.27153850
     atom   29 type  2   force =     0.00651789    0.00222784    0.26339480
     atom   30 type  1   force =    -0.00086802    0.01607476    0.00370771
     atom   31 type  2   force =    -0.00484089    0.00073907   -0.25014753
     atom   32 type  2   force =    -0.00426586   -0.01167159    0.27262910
     atom   33 type  1   force =    -0.00189550    0.00639423    0.00906486
     atom   34 type  2   force =     0.00097085   -0.01151397   -0.23483068
     atom   35 type  2   force =    -0.00092869   -0.00973387    0.27178134
     atom   36 type  3   force =     0.01594148    0.01614291   -0.02407895
     The ionic contribution  to forces
     atom    1 type  1   force =     0.30566675    0.32793744    5.61476419
     atom    2 type  2   force =    -1.02461667    0.53977400   39.12288768
     atom    3 type  2   force =    -0.20343984    0.03417081  -36.14619363
     atom    4 type  1   force =     0.03728901    0.65411973    0.64887169
     atom    5 type  2   force =    -0.98907192    1.54821063   38.74404509
     atom    6 type  2   force =     0.33800796   -0.48021692  -38.02343355
     atom    7 type  1   force =    -2.64662700   -2.85393480    2.55573919
     atom    8 type  2   force =    -1.01995858   -0.01324049   37.38242377
     atom    9 type  2   force =     0.33060475   -0.04775644  -38.00019807
     atom   10 type  1   force =    -1.38172698   -0.46081836    5.36271218
     atom   11 type  2   force =    -0.61632404   -1.67394138   39.11824501
     atom   12 type  2   force =     0.42894183    0.67165078  -37.86839589
     atom   13 type  1   force =     0.68952105    1.16896129    2.63225156
     atom   14 type  2   force =     0.14775222    0.03213514   38.48095801
     atom   15 type  2   force =     0.17299434   -0.05201395  -36.82865059
     atom   16 type  1   force =     0.00288244    3.99739268    0.48637027
     atom   17 type  2   force =     0.86952651    1.59259900   37.91318928
     atom   18 type  2   force =    -0.14559773   -0.61975687  -38.57339491
     atom   19 type  1   force =     2.79318759   -2.56054825    0.60199081
     atom   20 type  2   force =     0.23457655   -0.20607123  -38.46845289
     atom   21 type  1   force =     0.13311548   -0.01509614    1.06244664
     atom   22 type  2   force =     0.63493025   -1.87904488   38.35193744
     atom   23 type  2   force =    -0.05875223    0.63620092  -38.32668459
     atom   24 type  1   force =    -0.69944437    1.49773670    5.35878061
     atom   25 type  2   force =     1.35044884    0.97484445   38.34103176
     atom   26 type  2   force =    -0.26673811    0.09081123  -37.43034893
     atom   27 type  1   force =     0.05359119    0.50454388   -2.30238969
     atom   28 type  2   force =     0.01519827    1.16278938   38.16687209
     atom   29 type  2   force =    -0.27470322   -0.39151017  -37.28763304
     atom   30 type  1   force =    -0.38434314   -1.07816621   -0.13548132
     atom   31 type  2   force =     1.24631745   -0.11610080   37.31148446
     atom   32 type  2   force =    -0.47504942   -0.02094400  -38.63902512
     atom   33 type  1   force =     0.99850846   -1.12305334    1.39963732
     atom   34 type  2   force =     0.02934954   -1.95933541   39.06922259
     atom   35 type  2   force =    -0.31636214    0.43534404  -37.88090103
     atom   36 type  3   force =    -0.30965510   -0.31767244    8.18532161
     The local contribution  to forces
     atom    1 type  1   force =    -0.29352766   -0.38327083   -5.59452806
     atom    2 type  2   force =     1.01601377   -0.52383762  -38.88166366
     atom    3 type  2   force =     0.20517546   -0.02420380   35.89327376
     atom    4 type  1   force =    -0.02635327   -0.66558180   -0.65465970
     atom    5 type  2   force =     0.98148800   -1.52216470  -38.52030392
     atom    6 type  2   force =    -0.33514963    0.48159926   37.78407043
     atom    7 type  1   force =     2.67059375    2.85010992   -2.54174865
     atom    8 type  2   force =     1.01860195    0.01189954  -37.13183040
     atom    9 type  2   force =    -0.32421441    0.06342139   37.75658071
     atom   10 type  1   force =     1.36469189    0.47174096   -5.38636283
     atom   11 type  2   force =     0.60924487    1.66618724  -38.88652064
     atom   12 type  2   force =    -0.41803744   -0.65907465   37.63139016
     atom   13 type  1   force =    -0.64682333   -1.15036522   -2.65811238
     atom   14 type  2   force =    -0.15560013   -0.02248067  -38.23869531
     atom   15 type  2   force =    -0.17230054    0.05445869   36.57715624
     atom   16 type  1   force =    -0.00337128   -4.01994925   -0.44974286
     atom   17 type  2   force =    -0.86510508   -1.56895911  -37.68723044
     atom   18 type  2   force =     0.14593711    0.61792278   38.33591104
     atom   19 type  1   force =    -2.80072479    2.56600054   -0.59366122
     atom   20 type  2   force =    -0.23186678    0.22234322   38.22593154
     atom   21 type  1   force =    -0.14437564    0.00227575   -1.06908492
     atom   22 type  2   force =    -0.62631127    1.87010766  -38.11974487
     atom   23 type  2   force =     0.05267232   -0.62195305   38.08972936
     atom   24 type  1   force =     0.67854201   -1.51445362   -5.36715912
     atom   25 type  2   force =    -1.22787448   -0.86010955  -38.30737846
     atom   26 type  2   force =     0.26081525   -0.07790793   37.17918804
     atom   27 type  1   force =    -0.05272585   -0.52596536    2.30088243
     atom   28 type  2   force =    -0.01141569   -1.13501185  -37.92167656
     atom   29 type  2   force =     0.27127927    0.39111281   37.04329608
     atom   30 type  1   force =     0.38166728    1.06973521    0.11926197
     atom   31 type  2   force =    -1.24100941    0.11355386  -37.06438456
     atom   32 type  2   force =     0.46895673    0.03958994   38.39737049
     atom   33 type  1   force =    -0.98345250    1.10839234   -1.42570255
     atom   34 type  2   force =    -0.02466947    1.93595830  -38.85616434
     atom   35 type  2   force =     0.30982089   -0.41907693   37.64319343
     atom   36 type  3   force =     0.31000821    0.32605405   -8.18144468
     The core correction contribution to forces
     atom    1 type  1   force =     0.00000000    0.00000000    0.00000000
     atom    2 type  2   force =    -0.00017008   -0.00007597    0.02028681
     atom    3 type  2   force =     0.00059423   -0.00010321   -0.02088009
     atom    4 type  1   force =     0.00000000    0.00000000    0.00000000
     atom    5 type  2   force =    -0.00062418    0.00186283    0.02034013
     atom    6 type  2   force =     0.00026574   -0.00107131   -0.02086133
     atom    7 type  1   force =     0.00000000    0.00000000    0.00000000
     atom    8 type  2   force =    -0.00004016    0.00049609    0.02034197
     atom    9 type  2   force =    -0.00017933    0.00058274   -0.02102928
     atom   10 type  1   force =     0.00000000    0.00000000    0.00000000
     atom   11 type  2   force =    -0.00053286   -0.00063359    0.02056375
     atom   12 type  2   force =     0.00119588    0.00130483   -0.02085110
     atom   13 type  1   force =     0.00000000    0.00000000    0.00000000
     atom   14 type  2   force =    -0.00090153    0.00001938    0.02006530
     atom   15 type  2   force =     0.00083822    0.00025302   -0.02063840
     atom   16 type  1   force =     0.00000000    0.00000000    0.00000000
     atom   17 type  2   force =    -0.00004826    0.00116981    0.01993299
     atom   18 type  2   force =    -0.00001770   -0.00028098   -0.02109075
     atom   19 type  1   force =     0.00000000    0.00000000    0.00000000
     atom   20 type  2   force =     0.00013930    0.00081193   -0.02117252
     atom   21 type  1   force =     0.00000000    0.00000000    0.00000000
     atom   22 type  2   force =     0.00041379   -0.00073346    0.02022717
     atom   23 type  2   force =    -0.00062184    0.00129629   -0.02089649
     atom   24 type  1   force =     0.00000000    0.00000000    0.00000000
     atom   25 type  2   force =     0.01046928    0.00915768    0.00395143
     atom   26 type  2   force =    -0.00003449    0.00077715   -0.02108800
     atom   27 type  1   force =     0.00000000    0.00000000    0.00000000
     atom   28 type  2   force =     0.00024538    0.00193810    0.02075758
     atom   29 type  2   force =    -0.00055779   -0.00059024   -0.02059330
     atom   30 type  1   force =     0.00000000    0.00000000    0.00000000
     atom   31 type  2   force =     0.00032548    0.00006273    0.02035196
     atom   32 type  2   force =    -0.00005751    0.00069655   -0.02098360
     atom   33 type  1   force =     0.00000000    0.00000000    0.00000000
     atom   34 type  2   force =     0.00011094   -0.00042897    0.01900547
     atom   35 type  2   force =    -0.00015028    0.00092237   -0.02109525
     atom   36 type  3   force =     0.00000000    0.00000000    0.00000000
     The Hubbard contrib.    to forces
     atom    1 type  1   force =     0.00000000    0.00000000    0.00000000
     atom    2 type  2   force =     0.00000000    0.00000000    0.00000000
     atom    3 type  2   force =     0.00000000    0.00000000    0.00000000
     atom    4 type  1   force =     0.00000000    0.00000000    0.00000000
     atom    5 type  2   force =     0.00000000    0.00000000    0.00000000
     atom    6 type  2   force =     0.00000000    0.00000000    0.00000000
     atom    7 type  1   force =     0.00000000    0.00000000    0.00000000
     atom    8 type  2   force =     0.00000000    0.00000000    0.00000000
     atom    9 type  2   force =     0.00000000    0.00000000    0.00000000
     atom   10 type  1   force =     0.00000000    0.00000000    0.00000000
     atom   11 type  2   force =     0.00000000    0.00000000    0.00000000
     atom   12 type  2   force =     0.00000000    0.00000000    0.00000000
     atom   13 type  1   force =     0.00000000    0.00000000    0.00000000
     atom   14 type  2   force =     0.00000000    0.00000000    0.00000000
     atom   15 type  2   force =     0.00000000    0.00000000    0.00000000
     atom   16 type  1   force =     0.00000000    0.00000000    0.00000000
     atom   17 type  2   force =     0.00000000    0.00000000    0.00000000
     atom   18 type  2   force =     0.00000000    0.00000000    0.00000000
     atom   19 type  1   force =     0.00000000    0.00000000    0.00000000
     atom   20 type  2   force =     0.00000000    0.00000000    0.00000000
     atom   21 type  1   force =     0.00000000    0.00000000    0.00000000
     atom   22 type  2   force =     0.00000000    0.00000000    0.00000000
     atom   23 type  2   force =     0.00000000    0.00000000    0.00000000
     atom   24 type  1   force =     0.00000000    0.00000000    0.00000000
     atom   25 type  2   force =     0.00000000    0.00000000    0.00000000
     atom   26 type  2   force =     0.00000000    0.00000000    0.00000000
     atom   27 type  1   force =     0.00000000    0.00000000    0.00000000
     atom   28 type  2   force =     0.00000000    0.00000000    0.00000000
     atom   29 type  2   force =     0.00000000    0.00000000    0.00000000
     atom   30 type  1   force =     0.00000000    0.00000000    0.00000000
     atom   31 type  2   force =     0.00000000    0.00000000    0.00000000
     atom   32 type  2   force =     0.00000000    0.00000000    0.00000000
     atom   33 type  1   force =     0.00000000    0.00000000    0.00000000
     atom   34 type  2   force =     0.00000000    0.00000000    0.00000000
     atom   35 type  2   force =     0.00000000    0.00000000    0.00000000
     atom   36 type  3   force =     0.00000000    0.00000000    0.00000000
     The SCF correction term to forces
     atom    1 type  1   force =    -0.00012263   -0.00029978   -0.00072728
     atom    2 type  2   force =    -0.00005376    0.00001195   -0.00020850
     atom    3 type  2   force =    -0.00004212   -0.00003415   -0.00031010
     atom    4 type  1   force =     0.00007562   -0.00000452   -0.00057320
     atom    5 type  2   force =     0.00004431   -0.00006397   -0.00009099
     atom    6 type  2   force =     0.00009773   -0.00015255   -0.00035350
     atom    7 type  1   force =    -0.00018975   -0.00000940   -0.00057104
     atom    8 type  2   force =    -0.00001286   -0.00001376   -0.00017355
     atom    9 type  2   force =     0.00004418   -0.00001643   -0.00026652
     atom   10 type  1   force =    -0.00021899    0.00013936   -0.00089110
     atom   11 type  2   force =    -0.00005886    0.00004655   -0.00017770
     atom   12 type  2   force =    -0.00002386    0.00015629   -0.00028373
     atom   13 type  1   force =    -0.00029148   -0.00052062   -0.00043615
     atom   14 type  2   force =    -0.00011795   -0.00000767   -0.00027159
     atom   15 type  2   force =    -0.00005803   -0.00005790   -0.00022768
     atom   16 type  1   force =     0.00001836    0.00030232   -0.00056836
     atom   17 type  2   force =    -0.00008453   -0.00015971   -0.00009129
     atom   18 type  2   force =    -0.00011860   -0.00016585   -0.00031558
     atom   19 type  1   force =     0.00014030    0.00002751   -0.00062115
     atom   20 type  2   force =    -0.00004493    0.00009551   -0.00029138
     atom   21 type  1   force =    -0.00018807    0.00031515   -0.00072541
     atom   22 type  2   force =     0.00005156    0.00007187   -0.00018563
     atom   23 type  2   force =     0.00003669    0.00014712   -0.00026578
     atom   24 type  1   force =     0.00038712   -0.00008480   -0.00076946
     atom   25 type  2   force =     0.00019796    0.00007294   -0.00041658
     atom   26 type  2   force =     0.00007878   -0.00002379   -0.00020195
     atom   27 type  1   force =    -0.00000949   -0.00014129   -0.00057178
     atom   28 type  2   force =     0.00002806   -0.00001079   -0.00020630
     atom   29 type  2   force =     0.00000647   -0.00009097   -0.00027830
     atom   30 type  1   force =     0.00002386   -0.00008129   -0.00064139
     atom   31 type  2   force =     0.00003655   -0.00000145   -0.00015776
     atom   32 type  2   force =     0.00000507    0.00001612   -0.00025915
     atom   33 type  1   force =     0.00038346    0.00045063   -0.00077744
     atom   34 type  2   force =     0.00003492    0.00000695   -0.00017881
     atom   35 type  2   force =     0.00000704    0.00010923   -0.00032948
     atom   36 type  3   force =     0.00002010    0.00001435   -0.00003766

     Total force =     0.134551     Total SCF correction =     0.002908

     BFGS Geometry Optimization
     Energy error            =      0.0E+00 Ry
     Gradient error          =      5.8E-02 Ry/Bohr

     number of scf cycles    =   1
     number of bfgs steps    =   0

     energy             new  =   -2205.5441487626 Ry

     new trust radius        =       0.0719044317 bohr
     new conv_thr            =       0.0000010000 Ry


ATOMIC_POSITIONS (angstrom)
Mo            6.5806106954        1.7758200852        2.8274813721
S             8.1695855224        0.8185849864        4.4340667208
S             8.1875885382        0.8162285869        1.2758135944
Mo            8.0988636915        4.4937261052        2.7175968147
S             6.4990271149        3.7197453645        4.3420252678
S             6.5541853600        3.5174725869        1.1224539893
Mo            6.4898432375        7.2129449973        2.6679817961
S             8.0821656207        6.3413752552        4.2516007270
S             8.0884717076        6.3081179108        1.0905654830
Mo            8.1552796234        9.9074249327        2.8302481634
S             6.4971402454        8.9422233579        4.3796346682
S             6.6171824035        9.0481870171        1.1426875227
Mo            3.4376030913        1.7607889499        2.7567746953
S             4.9810033047        0.8164231225        4.3562282225
S             5.0500522133        0.8461846636        1.2217993215
Mo            4.9795826878        4.5179449648        2.6350958057
S             3.4321750498        3.6741843088        4.2804676407
S             3.4371282955        3.5430968850        1.0671418412
Mo            3.4588438598        7.2145737316        2.6270347555
S             4.9845995063        6.3245815043        1.0380941082
Mo            5.0080957215        9.9058856616        2.7429542841
S             3.4702249087        8.9423471190        4.3245064281
S             3.4090527522        9.0650075747        1.1012004838
Mo            0.2910748837        1.7446813425        2.8396423301
S             1.8325219433        0.7791899161        4.4289275600
S             1.8549873155        0.8539808769        1.2070542510
Mo            1.8601908676        4.4916311738        2.6641001607
S             0.2721239544        3.6559584786        4.3345111116
S             0.2325767708        3.5278592876        1.1710499255
Mo            0.2692895026        7.2206498776        2.6947279861
S             1.9026770959        6.3118764729        4.2315095311
S             1.8567290198        6.3144134998        1.0497009320
Mo            1.8515138607        9.9360049245        2.7635304799
S             0.2989804801        9.0713128313        4.4123024776
S             0.2727427425        9.0475307523        1.1570861932
H             1.0593845349       10.9418873048        5.4671648920



     Writing config-only to output data dir ./MoS2-V-O.save/
     NEW-OLD atomic charge density approx. for the potential

     negative rho (up, down):  1.452E-04 0.000E+00

     total cpu time spent up to now is       84.1 secs

     Self-consistent Calculation

     iteration #  1     ecut=    80.00 Ry     beta= 0.70
     Davidson diagonalization with overlap
     ethr =  1.00E-06,  avg # of iterations = 10.0

     negative rho (up, down):  8.428E-05 0.000E+00

     total cpu time spent up to now is       98.8 secs

     total energy              =   -2205.55882039 Ry
     estimated scf accuracy    <       0.00255086 Ry

     iteration #  2     ecut=    80.00 Ry     beta= 0.70
     Davidson diagonalization with overlap
     ethr =  8.31E-07,  avg # of iterations =  2.0

     negative rho (up, down):  7.272E-05 0.000E+00

     total cpu time spent up to now is      115.8 secs

     total energy              =   -2205.55886972 Ry
     estimated scf accuracy    <       0.00053701 Ry

     iteration #  3     ecut=    80.00 Ry     beta= 0.70
     Davidson diagonalization with overlap
     ethr =  1.75E-07,  avg # of iterations =  3.0

     negative rho (up, down):  6.694E-05 0.000E+00

     total cpu time spent up to now is      129.7 secs

     total energy              =   -2205.55889548 Ry
     estimated scf accuracy    <       0.00018237 Ry

     iteration #  4     ecut=    80.00 Ry     beta= 0.70
     Davidson diagonalization with overlap
     ethr =  5.94E-08,  avg # of iterations =  5.0

     negative rho (up, down):  6.487E-05 0.000E+00

     total cpu time spent up to now is      142.1 secs

     total energy              =   -2205.55891912 Ry
     estimated scf accuracy    <       0.00001496 Ry

     iteration #  5     ecut=    80.00 Ry     beta= 0.70
     Davidson diagonalization with overlap
     ethr =  4.87E-09,  avg # of iterations =  7.0

     negative rho (up, down):  6.214E-05 0.000E+00

     total cpu time spent up to now is      153.9 secs

     total energy              =   -2205.55892415 Ry
     estimated scf accuracy    <       0.00000548 Ry

     iteration #  6     ecut=    80.00 Ry     beta= 0.70
     Davidson diagonalization with overlap
     ethr =  1.78E-09,  avg # of iterations =  2.0

     negative rho (up, down):  5.973E-05 0.000E+00

     total cpu time spent up to now is      167.8 secs

     total energy              =   -2205.55892498 Ry
     estimated scf accuracy    <       0.00000139 Ry

     iteration #  7     ecut=    80.00 Ry     beta= 0.70
     Davidson diagonalization with overlap
     ethr =  4.53E-10,  avg # of iterations =  5.0

     negative rho (up, down):  1.375E-04 0.000E+00

     total cpu time spent up to now is      170.0 secs

     End of self-consistent calculation

          k = 0.0000 0.0000 0.0000 (105382 PWs)   bands (ev):

   -62.8540 -62.8428 -62.8273 -62.8150 -62.8086 -62.7971 -62.7746 -62.7429
   -62.7413 -62.7355 -62.7032 -62.6761 -37.1931 -37.1214 -37.1137 -37.1009
   -37.0916 -37.0662 -37.0491 -37.0395 -37.0320 -37.0279 -37.0171 -37.0088
   -37.0032 -36.9936 -36.9906 -36.9804 -36.9704 -36.9616 -36.9486 -36.9403
   -36.9284 -36.9153 -36.9040 -36.8862 -36.8755 -36.8685 -36.8621 -36.8531
   -36.8489 -36.8399 -36.8216 -36.8049 -36.8002 -36.7575 -36.6763 -36.6583
   -16.0707 -15.4548 -15.1512 -15.0429 -14.9018 -14.7949 -14.6495 -14.4631
   -14.4209 -14.3894 -14.3626 -14.3456 -14.3031 -14.2536 -14.1472 -14.1064
   -14.0865 -14.0730 -13.9884 -13.9050 -13.8154 -13.7934 -13.7698  -8.4937
    -7.5881  -7.4132  -7.2509  -7.2329  -7.2003  -7.1615  -7.1017  -7.0358
    -6.8176  -6.7728  -6.7458  -6.6805  -6.5160  -6.4688  -6.4583  -6.4157
    -6.2953  -6.2262  -6.1146  -5.9621  -5.8868  -5.8600  -5.7948  -5.7652
    -5.7467  -5.6806  -5.6321  -5.6257  -5.5820  -5.5321  -5.4911  -5.4537
    -5.3929  -5.3143  -5.2430  -5.1401  -5.0415  -4.9723  -4.9515  -4.9238
    -4.9022  -4.7994  -4.6076  -4.5249  -4.4785  -4.3074  -4.2620  -4.2027
    -4.1544  -4.0399  -4.0050  -3.9030  -3.7678  -3.7563  -3.7303  -3.6885
    -3.6585  -3.5353  -3.5156  -3.5063  -3.4727  -3.4367  -3.4229  -3.3479
    -3.3308  -3.1708  -3.1067  -2.8851  -2.8740  -2.7549  -2.7309  -2.7004
    -2.6931  -2.6510  -2.6177  -2.5843  -2.5257  -2.2524  -1.9812  -1.9664
    -1.9505  -0.9507  -0.7049  -0.6596  -0.1332  -0.0983  -0.0328  -0.0233
     0.1166   0.1475   0.2164   0.2791   0.2999   0.3236   0.3764   0.4724
     0.5402   0.5704   0.5842   0.6134   0.6590   0.7261   0.7400   0.7924
     0.8017   0.8353   0.8980   0.9072   0.9970   1.0218   1.0577   1.2760
     1.4223

     the Fermi energy is    -0.9522 ev

!    total energy              =   -2205.55892477 Ry
     estimated scf accuracy    <       0.00000070 Ry
     smearing contrib. (-TS)   =      -0.00590324 Ry
     internal energy E=F+TS    =   -2205.55302153 Ry

     The total energy is F=E-TS. E is the sum of the following terms:
     one-electron contribution =  -18044.52861247 Ry
     hartree contribution      =    9009.36564215 Ry
     xc contribution           =    -385.29823595 Ry
     ewald contribution        =    7214.90818474 Ry

     convergence has been achieved in   7 iterations

     negative rho (up, down):  1.375E-04 0.000E+00

     Forces acting on atoms (cartesian axes, Ry/au):

     atom    1 type  1   force =     0.00309054   -0.01343961    0.00165741
     atom    2 type  2   force =    -0.01001711    0.01136422   -0.00351353
     atom    3 type  2   force =    -0.00933814    0.00771771   -0.00934618
     atom    4 type  1   force =     0.00592042    0.00027401    0.00145107
     atom    5 type  2   force =     0.00002691   -0.00544236   -0.00748003
     atom    6 type  2   force =     0.00144187    0.00720045    0.00358642
     atom    7 type  1   force =     0.00146900   -0.00858073    0.00003746
     atom    8 type  2   force =     0.00074898   -0.00416875    0.01073238
     atom    9 type  2   force =     0.01167502    0.00466937    0.00797297
     atom   10 type  1   force =    -0.00381697    0.00781662   -0.00881774
     atom   11 type  2   force =     0.00309109   -0.00083565   -0.00903161
     atom   12 type  2   force =    -0.00333489   -0.00088234    0.00141588
     atom   13 type  1   force =     0.01490167    0.01361010   -0.01867835
     atom   14 type  2   force =     0.00577991    0.00106029    0.00553803
     atom   15 type  2   force =    -0.00731956    0.00012932   -0.01076835
     atom   16 type  1   force =     0.00108767    0.00773221    0.00316721
     atom   17 type  2   force =     0.00747511    0.00268213    0.00128247
     atom   18 type  2   force =     0.00058462   -0.00433155    0.00993744
     atom   19 type  1   force =     0.00524690   -0.00237769   -0.00089172
     atom   20 type  2   force =     0.00250658   -0.00428133   -0.00258429
     atom   21 type  1   force =    -0.00614291    0.00552214    0.00255690
     atom   22 type  2   force =    -0.00037017   -0.00251202   -0.00346884
     atom   23 type  2   force =     0.00225210   -0.00076295    0.00384200
     atom   24 type  1   force =    -0.00732150   -0.00386184   -0.00495583
     atom   25 type  2   force =    -0.02187043   -0.01719862    0.04007209
     atom   26 type  2   force =    -0.00554351    0.00053560   -0.00396968
     atom   27 type  1   force =     0.00037516   -0.00447504    0.00792651
     atom   28 type  2   force =    -0.00041691   -0.00025241   -0.00579339
     atom   29 type  2   force =     0.00219430    0.00072983   -0.00340579
     atom   30 type  1   force =    -0.00156585    0.00235695    0.00102599
     atom   31 type  2   force =     0.00037351   -0.00074676    0.00964138
     atom   32 type  2   force =    -0.00783579    0.00532124    0.00757884
     atom   33 type  1   force =     0.00612730   -0.00482821   -0.00173663
     atom   34 type  2   force =     0.00115939   -0.03036361   -0.01312992
     atom   35 type  2   force =    -0.00612338    0.00796839    0.00508918
     atom   36 type  3   force =     0.01348907    0.02265090   -0.01693975
     The non-local contrib.  to forces
     atom    1 type  1   force =     0.00027170    0.02944899   -0.01275172
     atom    2 type  2   force =    -0.00333664   -0.00268402   -0.26213330
     atom    3 type  2   force =    -0.01091239   -0.00195209    0.26609763
     atom    4 type  1   force =    -0.00335954    0.00969353    0.00541143
     atom    5 type  2   force =     0.00792835   -0.03394571   -0.25291650
     atom    6 type  2   force =    -0.00169519    0.00674483    0.26486450
     atom    7 type  1   force =    -0.02487383   -0.00731714   -0.02279337
     atom    8 type  2   force =     0.00240436   -0.00377902   -0.25799625
     atom    9 type  2   force =     0.00591396   -0.01099148    0.27515262
     atom   10 type  1   force =     0.00495742   -0.00132734   -0.00172633
     atom   11 type  2   force =     0.00951023    0.00720379   -0.26094825
     atom   12 type  2   force =    -0.01422385   -0.01515483    0.26270192
     atom   13 type  1   force =    -0.00721807    0.01174130   -0.01015401
     atom   14 type  2   force =     0.01844340   -0.00958627   -0.25286491
     atom   15 type  2   force =    -0.01097157   -0.00192499    0.26167046
     atom   16 type  1   force =    -0.00174421    0.03217210   -0.03226447
     atom   17 type  2   force =     0.00305563   -0.01817126   -0.24333470
     atom   18 type  2   force =     0.00056909   -0.00447522    0.27159869
     atom   19 type  1   force =     0.01871691   -0.00848315   -0.01526478
     atom   20 type  2   force =    -0.00013080   -0.02062464    0.26265288
     atom   21 type  1   force =     0.00260703    0.02125692    0.00485677
     atom   22 type  2   force =    -0.00922933    0.00635055   -0.25445620
     atom   23 type  2   force =     0.00864915   -0.01635734    0.26412691
     atom   24 type  1   force =     0.01011389    0.01160042   -0.01074150
     atom   25 type  2   force =    -0.18097207   -0.15894180    0.01300054
     atom   26 type  2   force =     0.00015786   -0.01299710    0.27021374
     atom   27 type  1   force =    -0.00217493    0.01208063    0.00774775
     atom   28 type  2   force =    -0.00421897   -0.02826705   -0.27129819
     atom   29 type  2   force =     0.00597330    0.00076608    0.26302036
     atom   30 type  1   force =    -0.00178866    0.01577441    0.00262097
     atom   31 type  2   force =    -0.00481920    0.00091699   -0.25594018
     atom   32 type  2   force =    -0.00211341   -0.01305163    0.27202639
     atom   33 type  1   force =    -0.00017674    0.00527551    0.00513650
     atom   34 type  2   force =    -0.00376558   -0.01253311   -0.24565270
     atom   35 type  2   force =     0.00020312   -0.00971822    0.26822193
     atom   36 type  3   force =     0.01944732    0.01979713   -0.02837028
     The ionic contribution  to forces
     atom    1 type  1   force =     0.13314246    0.58908363    5.78673333
     atom    2 type  2   force =    -0.86181394    0.41962384   39.19791374
     atom    3 type  2   force =    -0.18145883    0.05721890  -36.26302703
     atom    4 type  1   force =    -0.00273686    0.67406949    0.71408131
     atom    5 type  2   force =    -0.98165736    1.54098542   38.68081326
     atom    6 type  2   force =     0.32056544   -0.51112299  -37.94098460
     atom    7 type  1   force =    -2.57023248   -2.72620223    2.52926353
     atom    8 type  2   force =    -1.00591390    0.02377032   37.46784063
     atom    9 type  2   force =     0.30113593   -0.09156502  -37.95069622
     atom   10 type  1   force =    -1.14438327   -0.56108441    5.08015628
     atom   11 type  2   force =    -0.58032454   -1.68434673   39.06069899
     atom   12 type  2   force =     0.36292078    0.62075366  -37.83456167
     atom   13 type  1   force =     0.14077783    0.74756295    2.20801837
     atom   14 type  2   force =    -0.06133094    0.05078867   38.56248598
     atom   15 type  2   force =     0.25711852   -0.07722246  -36.91899698
     atom   16 type  1   force =     0.08146586    3.94901658    0.67223334
     atom   17 type  2   force =     0.80824638    1.47742915   37.97598962
     atom   18 type  2   force =    -0.16922658   -0.46737871  -38.56178036
     atom   19 type  1   force =     2.64010929   -2.58598443    0.55492747
     atom   20 type  2   force =     0.21886853   -0.21883895  -38.52963693
     atom   21 type  1   force =     0.10631542   -0.06749123    1.23979862
     atom   22 type  2   force =     0.61500803   -1.85130649   38.36322354
     atom   23 type  2   force =    -0.03448000    0.60269558  -38.31634062
     atom   24 type  1   force =    -0.22340301    1.36685805    5.16238509
     atom   25 type  2   force =     1.53154626    1.11767498   38.30763431
     atom   26 type  2   force =    -0.24387612    0.09270642  -37.30394791
     atom   27 type  1   force =     0.02720454    0.58990489   -1.99996532
     atom   28 type  2   force =     0.05851004    1.06927262   38.15270443
     atom   29 type  2   force =    -0.24563938   -0.35186491  -37.30263130
     atom   30 type  1   force =    -0.31509512   -1.15857498   -0.26494529
     atom   31 type  2   force =     1.22786398   -0.07934173   37.34365765
     atom   32 type  2   force =    -0.43317438   -0.08216722  -38.55365862
     atom   33 type  1   force =     0.89416973   -0.73627346    1.29280088
     atom   34 type  2   force =    -0.01592624   -1.80929102   38.98021427
     atom   35 type  2   force =    -0.28426608    0.45073338  -37.82071511
     atom   36 type  3   force =    -0.37002999   -0.38009156    8.22831332
     The local contribution  to forces
     atom    1 type  1   force =    -0.13034203   -0.63194943   -5.77322971
     atom    2 type  2   force =     0.85511002   -0.40545058  -38.96014623
     atom    3 type  2   force =     0.18247329   -0.04753674   36.00817452
     atom    4 type  1   force =     0.01192168   -0.68348419   -0.71895083
     atom    5 type  2   force =     0.97442684   -1.51434166  -38.45610242
     atom    6 type  2   force =    -0.31766959    0.51254137   37.70035885
     atom    7 type  1   force =     2.59650374    2.72480231   -2.50738567
     atom    8 type  2   force =     1.00423493   -0.02474513  -37.22003265
     atom    9 type  2   force =    -0.29529681    0.10665485   37.70431712
     atom   10 type  1   force =     1.13540384    0.57018336   -5.08848810
     atom   11 type  2   force =     0.57426878    1.67692170  -38.82985674
     atom   12 type  2   force =    -0.35315919   -0.60775804   37.59388088
     atom   13 type  1   force =    -0.11825166   -0.74533724   -2.21794747
     atom   14 type  2   force =     0.04982067   -0.04011699  -38.32466739
     atom   15 type  2   force =    -0.25417858    0.07913291   36.66694558
     atom   16 type  1   force =    -0.07861805   -3.97343020   -0.63764790
     atom   17 type  2   force =    -0.80372560   -1.45747603  -37.75173295
     atom   18 type  2   force =     0.16943077    0.46773548   38.32099999
     atom   19 type  1   force =    -2.65346256    2.59197568   -0.54151639
     atom   20 type  2   force =    -0.21632302    0.23440718   38.28534241
     atom   21 type  1   force =    -0.11493514    0.05173637   -1.24314752
     atom   22 type  2   force =    -0.60641715    1.84312365  -38.13292361
     atom   23 type  2   force =     0.02871551   -0.58839784   38.07664050
     atom   24 type  1   force =     0.20552009   -1.38198994   -5.15778503
     atom   25 type  2   force =    -1.38408672   -0.98601982  -38.28402144
     atom   26 type  2   force =     0.23845115   -0.07986011   37.05047956
     atom   27 type  1   force =    -0.02459422   -0.60643157    1.99926554
     atom   28 type  2   force =    -0.05498714   -1.04307169  -37.90840179
     atom   29 type  2   force =     0.24233273    0.35231508   37.05658143
     atom   30 type  1   force =     0.31527632    1.14505974    0.26233342
     atom   31 type  2   force =    -1.22295544    0.07748330  -37.09895143
     atom   32 type  2   force =     0.42757372    0.09986597   38.30992694
     atom   33 type  1   force =    -0.88783568    0.72578770   -1.30085451
     atom   34 type  2   force =     0.02056807    1.79158276  -38.76752344
     atom   35 type  2   force =     0.27808679   -0.43402560   37.57831663
     atom   36 type  3   force =     0.36409229    0.38295934   -8.21694393
     The core correction contribution to forces
     atom    1 type  1   force =     0.00000000    0.00000000    0.00000000
     atom    2 type  2   force =    -0.00015386   -0.00000190    0.02032238
     atom    3 type  2   force =     0.00048349   -0.00000289   -0.02081649
     atom    4 type  1   force =     0.00000000    0.00000000    0.00000000
     atom    5 type  2   force =    -0.00070192    0.00189783    0.02030228
     atom    6 type  2   force =     0.00023417   -0.00091977   -0.02087451
     atom    7 type  1   force =     0.00000000    0.00000000    0.00000000
     atom    8 type  2   force =    -0.00002621    0.00050749    0.02048109
     atom    9 type  2   force =    -0.00009372    0.00058495   -0.02099222
     atom   10 type  1   force =     0.00000000    0.00000000    0.00000000
     atom   11 type  2   force =    -0.00040824   -0.00065645    0.02061728
     atom   12 type  2   force =     0.00115210    0.00127810   -0.02083071
     atom   13 type  1   force =     0.00000000    0.00000000    0.00000000
     atom   14 type  2   force =    -0.00098011   -0.00000017    0.02013332
     atom   15 type  2   force =     0.00070649    0.00017567   -0.02061997
     atom   16 type  1   force =     0.00000000    0.00000000    0.00000000
     atom   17 type  2   force =    -0.00001888    0.00103922    0.01991713
     atom   18 type  2   force =    -0.00013085   -0.00025963   -0.02104209
     atom   19 type  1   force =     0.00000000    0.00000000    0.00000000
     atom   20 type  2   force =     0.00013149    0.00074733   -0.02110643
     atom   21 type  1   force =     0.00000000    0.00000000    0.00000000
     atom   22 type  2   force =     0.00034538   -0.00073734    0.02023741
     atom   23 type  2   force =    -0.00060120    0.00128989   -0.02082306
     atom   24 type  1   force =     0.00000000    0.00000000    0.00000000
     atom   25 type  2   force =     0.01158652    0.01003340    0.00338897
     atom   26 type  2   force =    -0.00026488    0.00071124   -0.02115264
     atom   27 type  1   force =     0.00000000    0.00000000    0.00000000
     atom   28 type  2   force =     0.00024846    0.00193832    0.02076759
     atom   29 type  2   force =    -0.00051087   -0.00047330   -0.02060428
     atom   30 type  1   force =     0.00000000    0.00000000    0.00000000
     atom   31 type  2   force =     0.00030925    0.00010583    0.02048952
     atom   32 type  2   force =    -0.00013284    0.00069614   -0.02094731
     atom   33 type  1   force =     0.00000000    0.00000000    0.00000000
     atom   34 type  2   force =     0.00028338   -0.00030249    0.01940039
     atom   35 type  2   force =    -0.00020040    0.00093820   -0.02100726
     atom   36 type  3   force =     0.00000000    0.00000000    0.00000000
     The Hubbard contrib.    to forces
     atom    1 type  1   force =     0.00000000    0.00000000    0.00000000
     atom    2 type  2   force =     0.00000000    0.00000000    0.00000000
     atom    3 type  2   force =     0.00000000    0.00000000    0.00000000
     atom    4 type  1   force =     0.00000000    0.00000000    0.00000000
     atom    5 type  2   force =     0.00000000    0.00000000    0.00000000
     atom    6 type  2   force =     0.00000000    0.00000000    0.00000000
     atom    7 type  1   force =     0.00000000    0.00000000    0.00000000
     atom    8 type  2   force =     0.00000000    0.00000000    0.00000000
     atom    9 type  2   force =     0.00000000    0.00000000    0.00000000
     atom   10 type  1   force =     0.00000000    0.00000000    0.00000000
     atom   11 type  2   force =     0.00000000    0.00000000    0.00000000
     atom   12 type  2   force =     0.00000000    0.00000000    0.00000000
     atom   13 type  1   force =     0.00000000    0.00000000    0.00000000
     atom   14 type  2   force =     0.00000000    0.00000000    0.00000000
     atom   15 type  2   force =     0.00000000    0.00000000    0.00000000
     atom   16 type  1   force =     0.00000000    0.00000000    0.00000000
     atom   17 type  2   force =     0.00000000    0.00000000    0.00000000
     atom   18 type  2   force =     0.00000000    0.00000000    0.00000000
     atom   19 type  1   force =     0.00000000    0.00000000    0.00000000
     atom   20 type  2   force =     0.00000000    0.00000000    0.00000000
     atom   21 type  1   force =     0.00000000    0.00000000    0.00000000
     atom   22 type  2   force =     0.00000000    0.00000000    0.00000000
     atom   23 type  2   force =     0.00000000    0.00000000    0.00000000
     atom   24 type  1   force =     0.00000000    0.00000000    0.00000000
     atom   25 type  2   force =     0.00000000    0.00000000    0.00000000
     atom   26 type  2   force =     0.00000000    0.00000000    0.00000000
     atom   27 type  1   force =     0.00000000    0.00000000    0.00000000
     atom   28 type  2   force =     0.00000000    0.00000000    0.00000000
     atom   29 type  2   force =     0.00000000    0.00000000    0.00000000
     atom   30 type  1   force =     0.00000000    0.00000000    0.00000000
     atom   31 type  2   force =     0.00000000    0.00000000    0.00000000
     atom   32 type  2   force =     0.00000000    0.00000000    0.00000000
     atom   33 type  1   force =     0.00000000    0.00000000    0.00000000
     atom   34 type  2   force =     0.00000000    0.00000000    0.00000000
     atom   35 type  2   force =     0.00000000    0.00000000    0.00000000
     atom   36 type  3   force =     0.00000000    0.00000000    0.00000000
     The SCF correction term to forces
     atom    1 type  1   force =     0.00002001   -0.00002438    0.00089110
     atom    2 type  2   force =     0.00017890   -0.00012469    0.00051547
     atom    3 type  2   force =     0.00007789   -0.00001105    0.00021079
     atom    4 type  1   force =     0.00009674   -0.00000641    0.00089476
     atom    5 type  2   force =     0.00003260   -0.00003982    0.00040894
     atom    6 type  2   force =     0.00000862   -0.00004457    0.00020778
     atom    7 type  1   force =     0.00007316    0.00013475    0.00093856
     atom    8 type  2   force =     0.00005137    0.00007601    0.00042516
     atom    9 type  2   force =     0.00001725   -0.00001552    0.00017727
     atom   10 type  1   force =     0.00020664    0.00004342    0.00122600
     atom   11 type  2   force =     0.00004644    0.00004045    0.00044271
     atom   12 type  2   force =    -0.00002313   -0.00000280    0.00021106
     atom   13 type  1   force =    -0.00040484   -0.00035848    0.00139035
     atom   14 type  2   force =    -0.00017153   -0.00002655    0.00043664
     atom   15 type  2   force =     0.00000718   -0.00003340    0.00021816
     atom   16 type  1   force =    -0.00001434   -0.00002786    0.00083184
     atom   17 type  2   force =    -0.00008082   -0.00014054    0.00042897
     atom   18 type  2   force =    -0.00005622    0.00004495    0.00014681
     atom   19 type  1   force =    -0.00011515    0.00011261    0.00094757
     atom   20 type  2   force =    -0.00003804    0.00002616    0.00014937
     atom   21 type  1   force =    -0.00012863    0.00001849    0.00103462
     atom   22 type  2   force =    -0.00007551    0.00005604    0.00043560
     atom   23 type  2   force =    -0.00002978    0.00000518    0.00022387
     atom   24 type  1   force =     0.00044912   -0.00033195    0.00117121
     atom   25 type  2   force =     0.00005717    0.00005303    0.00005532
     atom   26 type  2   force =    -0.00000992   -0.00002644    0.00042317
     atom   27 type  1   force =    -0.00005864   -0.00003057    0.00086413
     atom   28 type  2   force =     0.00003230   -0.00012620    0.00042015
     atom   29 type  2   force =     0.00004012   -0.00001471    0.00021360
     atom   30 type  1   force =     0.00004320    0.00009619    0.00100249
     atom   31 type  2   force =    -0.00002349    0.00008727    0.00037142
     atom   32 type  2   force =     0.00001270   -0.00002361    0.00021703
     atom   33 type  1   force =    -0.00002841    0.00038046    0.00116611
     atom   34 type  2   force =     0.00000136    0.00017866    0.00041716
     atom   35 type  2   force =     0.00005479    0.00003904    0.00025858
     atom   36 type  3   force =    -0.00001896   -0.00001559    0.00004674

     Total force =     0.090241     Total SCF correction =     0.004083
     Energy error            =      1.5E-02 Ry
     Gradient error          =      4.0E-02 Ry/Bohr

     number of scf cycles    =   2
     number of bfgs steps    =   1

     energy             old  =   -2205.5441487626 Ry
     energy             new  =   -2205.5589247734 Ry

     CASE: energy            _new < energy            _old

     new trust radius        =       0.0790948749 bohr
     new conv_thr            =       0.0000000401 Ry


ATOMIC_POSITIONS (angstrom)
Mo            6.5839761742        1.7639947988        2.8294010003
S             8.1611253964        0.8283390319        4.4314955049
S             8.1798965995        0.8226486496        1.2688146715
Mo            8.1037643511        4.4936593244        2.7185773348
S             6.4988736848        3.7153843035        4.3358415967
S             6.5553660138        3.5236739273        1.1252138724
Mo            6.4908526576        7.2058172235        2.6672454341
S             8.0827796617        6.3379461205        4.2609594295
S             8.0981856927        6.3120800550        1.0975009789
Mo            8.1515428880        9.9139651483        2.8214440136
S             6.4997067773        8.9414962547        4.3725838604
S             6.6146799287        9.0474620130        1.1442299267
Mo            3.4512334226        1.7730955220        2.7397461147
S             4.9862224406        0.8170699653        4.3612488116
S             5.0433668380        0.8462607686        1.2132517844
Mo            4.9803161060        4.5243322833        2.6377626838
S             3.4382962272        3.6765819064        4.2815206735
S             3.4373859303        3.5390376513        1.0758714463
Mo            3.4635196767        7.2125539059        2.6256937268
S             4.9866349210        6.3211012679        1.0364349708
Mo            5.0029467940        9.9106195397        2.7446710469
S             3.4698204209        8.9403002719        4.3218468776
S             3.4107636412        9.0644727027        1.1049143780
Mo            0.2849287499        1.7414037730        2.8342297503
S             1.8135843870        0.7644157059        4.4632051020
S             1.8499398811        0.8542717933        1.2037947201
Mo            1.8603577588        4.4876849607        2.6704556628
S             0.2718122270        3.6560852211        4.3298228525
S             0.2343879904        3.5284934677        1.1684577157
Mo            0.2678206265        7.2230954172        2.6940898908
S             1.9030264089        6.3111693048        4.2400840405
S             1.8501235438        6.3189634322        1.0560532724
Mo            1.8572379403        9.9317902490        2.7604648339
S             0.3003980777        9.0462371927        4.4027321492
S             0.2676348668        9.0539357911        1.1619836366
H             1.0705894210       10.9604074663        5.4531177719



     Writing config-only to output data dir ./MoS2-V-O.save/
     NEW-OLD atomic charge density approx. for the potential

     negative rho (up, down):  1.481E-04 0.000E+00

     total cpu time spent up to now is      173.3 secs

     Self-consistent Calculation

     iteration #  1     ecut=    80.00 Ry     beta= 0.70
     Davidson diagonalization with overlap
     ethr =  1.00E-06,  avg # of iterations = 10.0

     negative rho (up, down):  8.027E-05 0.000E+00

     total cpu time spent up to now is      187.4 secs

     total energy              =   -2205.56880851 Ry
     estimated scf accuracy    <       0.00221690 Ry

     iteration #  2     ecut=    80.00 Ry     beta= 0.70
     Davidson diagonalization with overlap
     ethr =  7.22E-07,  avg # of iterations =  2.0

     negative rho (up, down):  5.834E-05 0.000E+00

     total cpu time spent up to now is      205.6 secs

     total energy              =   -2205.56887326 Ry
     estimated scf accuracy    <       0.00040199 Ry

     iteration #  3     ecut=    80.00 Ry     beta= 0.70
     Davidson diagonalization with overlap
     ethr =  1.31E-07,  avg # of iterations =  3.0

     negative rho (up, down):  4.418E-05 0.000E+00

     total cpu time spent up to now is      222.1 secs

     total energy              =   -2205.56890293 Ry
     estimated scf accuracy    <       0.00012104 Ry

     iteration #  4     ecut=    80.00 Ry     beta= 0.70
     Davidson diagonalization with overlap
     ethr =  3.94E-08,  avg # of iterations =  5.0

     negative rho (up, down):  4.101E-05 0.000E+00

     total cpu time spent up to now is      240.4 secs

     total energy              =   -2205.56891859 Ry
     estimated scf accuracy    <       0.00001065 Ry

     iteration #  5     ecut=    80.00 Ry     beta= 0.70
     Davidson diagonalization with overlap
     ethr =  3.47E-09,  avg # of iterations = 15.0

     negative rho (up, down):  4.231E-05 0.000E+00

     total cpu time spent up to now is      254.2 secs

     total energy              =   -2205.56892098 Ry
     estimated scf accuracy    <       0.00000379 Ry

     iteration #  6     ecut=    80.00 Ry     beta= 0.70
     Davidson diagonalization with overlap
     ethr =  1.23E-09,  avg # of iterations =  3.0

     negative rho (up, down):  4.800E-05 0.000E+00

     total cpu time spent up to now is      266.9 secs

     total energy              =   -2205.56892138 Ry
     estimated scf accuracy    <       0.00000080 Ry

     iteration #  7     ecut=    80.00 Ry     beta= 0.70
     Davidson diagonalization with overlap
     ethr =  2.61E-10,  avg # of iterations =  5.0

     negative rho (up, down):  5.789E-05 0.000E+00

     total cpu time spent up to now is      278.9 secs

     total energy              =   -2205.56892141 Ry
     estimated scf accuracy    <       0.00000025 Ry

     iteration #  8     ecut=    80.00 Ry     beta= 0.70
     Davidson diagonalization with overlap
     ethr =  8.30E-11,  avg # of iterations =  2.0

     negative rho (up, down):  8.384E-05 0.000E+00

     total cpu time spent up to now is      289.8 secs

     total energy              =   -2205.56892131 Ry
     estimated scf accuracy    <       0.00000011 Ry

     iteration #  9     ecut=    80.00 Ry     beta= 0.70
     Davidson diagonalization with overlap
     ethr =  3.48E-11,  avg # of iterations =  4.0

     negative rho (up, down):  1.377E-04 0.000E+00

     total cpu time spent up to now is      291.9 secs

     End of self-consistent calculation

          k = 0.0000 0.0000 0.0000 (105382 PWs)   bands (ev):

   -62.8428 -62.8340 -62.8193 -62.8099 -62.8008 -62.7906 -62.7755 -62.7386
   -62.7317 -62.7208 -62.6846 -62.6564 -37.1831 -37.1095 -37.1064 -37.0911
   -37.0836 -37.0583 -37.0399 -37.0331 -37.0225 -37.0186 -37.0065 -37.0014
   -36.9968 -36.9854 -36.9830 -36.9729 -36.9679 -36.9517 -36.9407 -36.9255
   -36.9153 -36.9100 -36.8988 -36.8742 -36.8688 -36.8588 -36.8473 -36.8377
   -36.8361 -36.8287 -36.8144 -36.7956 -36.7926 -36.7440 -36.6611 -36.6452
   -16.0812 -15.4975 -15.1490 -15.0379 -14.8974 -14.7874 -14.6483 -14.4522
   -14.4053 -14.3865 -14.3658 -14.3410 -14.2984 -14.2490 -14.1421 -14.1027
   -14.0782 -14.0630 -13.9805 -13.8990 -13.8132 -13.7886 -13.7615  -8.5783
    -7.5804  -7.3996  -7.2411  -7.2304  -7.1842  -7.1605  -7.0851  -7.0487
    -6.8108  -6.7651  -6.7439  -6.6723  -6.5151  -6.4545  -6.4434  -6.4153
    -6.2967  -6.2156  -6.1201  -5.9523  -5.8783  -5.8424  -5.7963  -5.7569
    -5.7409  -5.6713  -5.6205  -5.6153  -5.5813  -5.5344  -5.4838  -5.4483
    -5.3805  -5.2908  -5.2231  -5.1255  -5.0342  -4.9675  -4.9404  -4.9264
    -4.9057  -4.7986  -4.5894  -4.5330  -4.4710  -4.2978  -4.2545  -4.1971
    -4.1643  -4.0290  -4.0022  -3.8945  -3.7611  -3.7464  -3.7258  -3.6788
    -3.6449  -3.5349  -3.5107  -3.5024  -3.4525  -3.4399  -3.4117  -3.3359
    -3.3152  -3.1677  -3.1027  -2.8785  -2.8691  -2.7347  -2.7167  -2.6922
    -2.6836  -2.6495  -2.6190  -2.5696  -2.5133  -2.2368  -1.9758  -1.9635
    -1.9428  -0.9471  -0.6928  -0.6305  -0.1185  -0.0915  -0.0288  -0.0168
     0.1175   0.1528   0.2087   0.2860   0.3190   0.3415   0.3733   0.4823
     0.5503   0.5890   0.5938   0.6299   0.6719   0.7217   0.7522   0.8006
     0.8066   0.8646   0.9038   0.9221   1.0072   1.0333   1.0589   1.2783
     1.4205

     the Fermi energy is    -0.9482 ev

!    total energy              =   -2205.56892120 Ry
     estimated scf accuracy    <       0.00000002 Ry
     smearing contrib. (-TS)   =      -0.00583216 Ry
     internal energy E=F+TS    =   -2205.56308904 Ry

     The total energy is F=E-TS. E is the sum of the following terms:
     one-electron contribution =  -18043.51270080 Ry
     hartree contribution      =    9008.93220583 Ry
     xc contribution           =    -385.32165313 Ry
     ewald contribution        =    7214.33905906 Ry

     convergence has been achieved in   9 iterations

     negative rho (up, down):  1.377E-04 0.000E+00

     Forces acting on atoms (cartesian axes, Ry/au):

     atom    1 type  1   force =    -0.00339909   -0.00446758   -0.00427136
     atom    2 type  2   force =    -0.00688944    0.00599841   -0.00330021
     atom    3 type  2   force =    -0.00668657    0.00533332   -0.01082200
     atom    4 type  1   force =     0.00461993    0.00153950    0.00107197
     atom    5 type  2   force =     0.00155291   -0.00527169   -0.00517357
     atom    6 type  2   force =     0.00138004    0.00428379    0.00428452
     atom    7 type  1   force =     0.00227454   -0.00611457    0.00258275
     atom    8 type  2   force =     0.00039566   -0.00402274    0.00681099
     atom    9 type  2   force =     0.00834825    0.00297106    0.00447887
     atom   10 type  1   force =    -0.00056981    0.00565226   -0.00130006
     atom   11 type  2   force =     0.00232466   -0.00026880   -0.00845527
     atom   12 type  2   force =    -0.00432758   -0.00095281    0.00063663
     atom   13 type  1   force =     0.00367745    0.00305212   -0.00512173
     atom   14 type  2   force =     0.00070200    0.00247764    0.00165352
     atom   15 type  2   force =    -0.00191247   -0.00028694   -0.01026473
     atom   16 type  1   force =     0.00207939    0.00556910    0.00162247
     atom   17 type  2   force =     0.00645109    0.00067418    0.00187868
     atom   18 type  2   force =     0.00218919    0.00138882    0.00384226
     atom   19 type  1   force =     0.00197885   -0.00166518    0.00127529
     atom   20 type  2   force =     0.00228550   -0.00299823   -0.00418255
     atom   21 type  1   force =    -0.00352668    0.00332932    0.00176655
     atom   22 type  2   force =     0.00055117   -0.00239338   -0.00227507
     atom   23 type  2   force =     0.00215361   -0.00126930    0.00074576
     atom   24 type  1   force =    -0.00521238   -0.00229023    0.00150458
     atom   25 type  2   force =    -0.00602979   -0.00400227    0.01802977
     atom   26 type  2   force =    -0.00122285    0.00093070   -0.00069147
     atom   27 type  1   force =     0.00122296   -0.00174970    0.00565777
     atom   28 type  2   force =    -0.00051755   -0.00263008   -0.00361256
     atom   29 type  2   force =     0.00218886    0.00016839   -0.00263410
     atom   30 type  1   force =    -0.00033451   -0.00057040    0.00751369
     atom   31 type  2   force =     0.00065117   -0.00060679    0.00489964
     atom   32 type  2   force =    -0.00468282    0.00276667    0.00654247
     atom   33 type  1   force =     0.00040421   -0.00212181    0.00536601
     atom   34 type  2   force =    -0.00246351   -0.02352024   -0.01624357
     atom   35 type  2   force =    -0.00375183    0.00661699    0.00120507
     atom   36 type  3   force =     0.00409544    0.01445045   -0.00502104
     The non-local contrib.  to forces
     atom    1 type  1   force =     0.00054704    0.02608978   -0.01267531
     atom    2 type  2   force =    -0.00193789   -0.00665052   -0.26036890
     atom    3 type  2   force =    -0.00826145   -0.00355446    0.26406247
     atom    4 type  1   force =    -0.00266769    0.01055266    0.00527009
     atom    5 type  2   force =     0.00921044   -0.03425654   -0.25263101
     atom    6 type  2   force =    -0.00166112    0.00330119    0.26642490
     atom    7 type  1   force =    -0.02547724   -0.00779509   -0.02427590
     atom    8 type  2   force =     0.00301557   -0.00369171   -0.26058597
     atom    9 type  2   force =     0.00304952   -0.01214351    0.27305590
     atom   10 type  1   force =     0.00331823   -0.00115561   -0.00178664
     atom   11 type  2   force =     0.00783333    0.00729487   -0.26144100
     atom   12 type  2   force =    -0.01412079   -0.01533747    0.26393211
     atom   13 type  1   force =    -0.00268404    0.01485761   -0.00909148
     atom   14 type  2   force =     0.01679044   -0.00915763   -0.25359303
     atom   15 type  2   force =    -0.00711256   -0.00136442    0.26093565
     atom   16 type  1   force =    -0.00329148    0.03334749   -0.03251124
     atom   17 type  2   force =     0.00185298   -0.01687466   -0.24205263
     atom   18 type  2   force =     0.00258588   -0.00110782    0.26767514
     atom   19 type  1   force =     0.02013218   -0.00801367   -0.01534969
     atom   20 type  2   force =    -0.00022903   -0.01853920    0.26093946
     atom   21 type  1   force =     0.00162089    0.02155839    0.00391564
     atom   22 type  2   force =    -0.00829259    0.00591391   -0.25298927
     atom   23 type  2   force =     0.00868105   -0.01686330    0.26196636
     atom   24 type  1   force =     0.00917697    0.01195863   -0.01137803
     atom   25 type  2   force =    -0.19084710   -0.16330519    0.00064641
     atom   26 type  2   force =     0.00445222   -0.01209406    0.27339586
     atom   27 type  1   force =    -0.00236617    0.01043952    0.00653938
     atom   28 type  2   force =    -0.00392161   -0.02910700   -0.26974466
     atom   29 type  2   force =     0.00552971   -0.00073744    0.26410229
     atom   30 type  1   force =    -0.00267470    0.01534245    0.00254455
     atom   31 type  2   force =    -0.00465388    0.00036977   -0.25964599
     atom   32 type  2   force =     0.00079096   -0.01450632    0.27188161
     atom   33 type  1   force =     0.00141785    0.00428788    0.00217916
     atom   34 type  2   force =    -0.00769585   -0.01254752   -0.25248277
     atom   35 type  2   force =     0.00191853   -0.01122013    0.26688357
     atom   36 type  3   force =     0.02418458    0.02461314   -0.03416367
     The ionic contribution  to forces
     atom    1 type  1   force =    -0.02185280    0.82290579    5.80418650
     atom    2 type  2   force =    -0.73074643    0.31460907   39.25713269
     atom    3 type  2   force =    -0.13181642    0.06474282  -36.42477693
     atom    4 type  1   force =    -0.04702602    0.64014775    0.74759684
     atom    5 type  2   force =    -0.97545996    1.51957329   38.59275733
     atom    6 type  2   force =     0.31209887   -0.53144390  -37.85278389
     atom    7 type  1   force =    -2.54063517   -2.54379105    2.53206769
     atom    8 type  2   force =    -1.01568704    0.04807244   37.57636128
     atom    9 type  2   force =     0.27359804   -0.10948356  -37.91481942
     atom   10 type  1   force =    -0.98233307   -0.64664800    4.84291920
     atom   11 type  2   force =    -0.55798383   -1.68381079   38.96271304
     atom   12 type  2   force =     0.31223731    0.56334309  -37.78431585
     atom   13 type  1   force =    -0.36723996    0.35500804    1.79678106
     atom   14 type  2   force =    -0.25002834    0.07168906   38.63098596
[...]
     atom   27 type  1   force =    -0.00140074    0.00803824    0.00271012
     atom   28 type  2   force =    -0.00037895   -0.02311343   -0.26614775
     atom   29 type  2   force =    -0.00145376   -0.00690975    0.26620728
     atom   30 type  1   force =    -0.00320296    0.01380036    0.00162355
     atom   31 type  2   force =    -0.00613790   -0.00009725   -0.26453419
     atom   32 type  2   force =     0.00663204   -0.01669362    0.26804251
     atom   33 type  1   force =     0.00096945    0.00541844   -0.00625075
     atom   34 type  2   force =    -0.00073165   -0.00129865   -0.25794311
     atom   35 type  2   force =     0.00039973   -0.01592713    0.26878815
     atom   36 type  3   force =     0.03265144    0.01861323   -0.04032719
     The ionic contribution  to forces
     atom    1 type  1   force =    -0.06373552    0.77997813    1.58774740
     atom    2 type  2   force =    -0.79672458    0.18271988   38.64929700
     atom    3 type  2   force =     0.21273846    0.00041677  -37.50333952
     atom    4 type  1   force =    -0.05956144    0.65312413    0.65544359
     atom    5 type  2   force =    -0.93018491    1.23885138   38.15969436
     atom    6 type  2   force =     0.34167115   -0.24995179  -38.11167362
     atom    7 type  1   force =    -2.39522345   -2.11303586    2.51347843
     atom    8 type  2   force =    -1.28089363    0.10844115   38.12983299
     atom    9 type  2   force =     0.33421415   -0.00931742  -37.74790338
     atom   10 type  1   force =    -0.70312352   -0.75487100    2.49609299
     atom   11 type  2   force =    -0.54194091   -1.50557700   38.37541652
     atom   12 type  2   force =     0.25560087    0.25249935  -37.93948664
     atom   13 type  1   force =    -1.07385791    0.07117897    0.84545914
     atom   14 type  2   force =    -0.15930701    0.02625161   38.25551833
     atom   15 type  2   force =     0.05906663   -0.22888993  -38.09815682
     atom   16 type  1   force =     0.01446327    3.77537185    0.96661783
     atom   17 type  2   force =     0.85402422    1.10297373   38.23331711
     atom   18 type  2   force =    -0.41651120   -0.09681263  -38.35019090
     atom   19 type  1   force =     2.46331535   -2.43646889    2.69674693
     atom   20 type  2   force =    -0.03855005   -0.01325578  -38.70246853
     atom   21 type  1   force =     0.01008960   -0.31225174    0.16339430
     atom   22 type  2   force =     0.70894571   -1.54085875   38.60467814
     atom   23 type  2   force =    -0.37323323    0.35385714  -37.88024981
     atom   24 type  1   force =     0.65057671    0.86437914    3.83704881
     atom   25 type  2   force =     1.94461056    1.13659682   38.45330635
     atom   26 type  2   force =    -0.18668188   -0.12844018  -36.80942425
     atom   27 type  1   force =     0.07334941    0.61188967    1.06123141
     atom   28 type  2   force =     0.06093132    0.77342051   38.22018304
     atom   29 type  2   force =     0.05626329   -0.12028750  -37.31285261
     atom   30 type  1   force =     0.00441926   -1.03974861    2.09699739
     atom   31 type  2   force =     1.24350252    0.04375024   38.09917671
     atom   32 type  2   force =    -0.36088203   -0.06391887  -37.57233817
     atom   33 type  1   force =     0.92928451   -0.08869943    4.21250336
     atom   34 type  2   force =    -0.26030119   -1.02465943   38.75297806
     atom   35 type  2   force =     0.07098488    0.12496745  -37.41235218
     atom   36 type  3   force =    -0.64733939   -0.37362310    8.37427624
     The local contribution  to forces
     atom    1 type  1   force =     0.06750933   -0.80246079   -1.58324408
     atom    2 type  2   force =     0.79413433   -0.17097420  -38.42059533
     atom    3 type  2   force =    -0.20559969    0.00687508   37.25646603
     atom    4 type  1   force =     0.05991390   -0.66328608   -0.66048025
     atom    5 type  2   force =     0.92365734   -1.21589369  -37.92700586
     atom    6 type  2   force =    -0.34011178    0.25599085   37.86684127
     atom    7 type  1   force =     2.41857515    2.11932162   -2.48806262
     atom    8 type  2   force =     1.27253921   -0.10890909  -37.88660217
     atom    9 type  2   force =    -0.32814951    0.02287204   37.50015906
     atom   10 type  1   force =     0.70278288    0.75319855   -2.49932208
     atom   11 type  2   force =     0.53818002    1.50376908  -38.13675007
     atom   12 type  2   force =    -0.24685555   -0.24336283   37.69346485
     atom   13 type  1   force =     1.07593348   -0.08654736   -0.83898646
     atom   14 type  2   force =     0.14690829   -0.01355824  -38.02356469
     atom   15 type  2   force =    -0.05745857    0.22855021   37.85436336
     atom   16 type  1   force =    -0.01398916   -3.81076238   -0.93369825
     atom   17 type  2   force =    -0.84782638   -1.09163870  -38.00968422
     atom   18 type  2   force =     0.41218986    0.10408967   38.10621814
     atom   19 type  1   force =    -2.48622712    2.44407489   -2.67724604
     atom   20 type  2   force =     0.03826355    0.02667826   38.46166626
     atom   21 type  1   force =    -0.01074119    0.29116058   -0.16848614
     atom   22 type  2   force =    -0.69801114    1.53572795  -38.37102588
     atom   23 type  2   force =     0.36229689   -0.34120078   37.63872400
     atom   24 type  1   force =    -0.65613794   -0.87904168   -3.83105585
     atom   25 type  2   force =    -1.72312914   -1.01427601  -38.46269681
     atom   26 type  2   force =     0.18254833    0.13885751   36.55659023
     atom   27 type  1   force =    -0.07197889   -0.62065401   -1.06434209
     atom   28 type  2   force =    -0.06090145   -0.75158574  -37.97513265
     atom   29 type  2   force =    -0.05542873    0.12689358   37.06688948
     atom   30 type  1   force =    -0.00151819    1.02677468   -2.09827677
     atom   31 type  2   force =    -1.23789584   -0.04334294  -37.85675243
     atom   32 type  2   force =     0.35461385    0.07917047   37.32505115
     atom   33 type  1   force =    -0.93007878    0.08243055   -4.20603550
     atom   34 type  2   force =     0.26120780    1.02623485  -38.51490103
     atom   35 type  2   force =    -0.07090591   -0.11103191   37.16529743
     atom   36 type  3   force =     0.61419732    0.35647680   -8.33417631
     The core correction contribution to forces
     atom    1 type  1   force =     0.00000000    0.00000000    0.00000000
     atom    2 type  2   force =    -0.00057400    0.00044368    0.01988744
     atom    3 type  2   force =     0.00055255    0.00027169   -0.02094508
     atom    4 type  1   force =     0.00000000    0.00000000    0.00000000
     atom    5 type  2   force =    -0.00059736    0.00106335    0.02025854
     atom    6 type  2   force =     0.00032683   -0.00009187   -0.02081826
     atom    7 type  1   force =     0.00000000    0.00000000    0.00000000
     atom    8 type  2   force =    -0.00055563    0.00029153    0.02073675
     atom    9 type  2   force =     0.00056382    0.00077999   -0.02092437
     atom   10 type  1   force =     0.00000000    0.00000000    0.00000000
     atom   11 type  2   force =    -0.00013224   -0.00025950    0.02047451
     atom   12 type  2   force =     0.00072486    0.00079936   -0.02090880
     atom   13 type  1   force =     0.00000000    0.00000000    0.00000000
     atom   14 type  2   force =    -0.00069592    0.00027322    0.02022708
     atom   15 type  2   force =     0.00017970   -0.00016814   -0.02082346
     atom   16 type  1   force =     0.00000000    0.00000000    0.00000000
     atom   17 type  2   force =     0.00063524    0.00047492    0.01990862
     atom   18 type  2   force =    -0.00044510    0.00017960   -0.02090378
     atom   19 type  1   force =     0.00000000    0.00000000    0.00000000
     atom   20 type  2   force =    -0.00011765    0.00060383   -0.02115131
     atom   21 type  1   force =     0.00000000    0.00000000    0.00000000
     atom   22 type  2   force =     0.00062082   -0.00051915    0.02026628
     atom   23 type  2   force =    -0.00102211    0.00100837   -0.02078422
     atom   24 type  1   force =     0.00000000    0.00000000    0.00000000
     atom   25 type  2   force =     0.01537510    0.00853305    0.00195630
     atom   26 type  2   force =    -0.00040997    0.00024654   -0.02122686
     atom   27 type  1   force =     0.00000000    0.00000000    0.00000000
     atom   28 type  2   force =     0.00001091    0.00155634    0.02063879
     atom   29 type  2   force =     0.00011693    0.00009638   -0.02075793
     atom   30 type  1   force =     0.00000000    0.00000000    0.00000000
     atom   31 type  2   force =     0.00037754    0.00028973    0.02063703
     atom   32 type  2   force =    -0.00054607    0.00082060   -0.02080822
     atom   33 type  1   force =     0.00000000    0.00000000    0.00000000
     atom   34 type  2   force =    -0.00023402   -0.00037189    0.02029350
     atom   35 type  2   force =     0.00005819    0.00096730   -0.02100545
     atom   36 type  3   force =     0.00000000    0.00000000    0.00000000
     The Hubbard contrib.    to forces
     atom    1 type  1   force =     0.00000000    0.00000000    0.00000000
     atom    2 type  2   force =     0.00000000    0.00000000    0.00000000
     atom    3 type  2   force =     0.00000000    0.00000000    0.00000000
     atom    4 type  1   force =     0.00000000    0.00000000    0.00000000
     atom    5 type  2   force =     0.00000000    0.00000000    0.00000000
     atom    6 type  2   force =     0.00000000    0.00000000    0.00000000
     atom    7 type  1   force =     0.00000000    0.00000000    0.00000000
     atom    8 type  2   force =     0.00000000    0.00000000    0.00000000
     atom    9 type  2   force =     0.00000000    0.00000000    0.00000000
     atom   10 type  1   force =     0.00000000    0.00000000    0.00000000
     atom   11 type  2   force =     0.00000000    0.00000000    0.00000000
     atom   12 type  2   force =     0.00000000    0.00000000    0.00000000
     atom   13 type  1   force =     0.00000000    0.00000000    0.00000000
     atom   14 type  2   force =     0.00000000    0.00000000    0.00000000
     atom   15 type  2   force =     0.00000000    0.00000000    0.00000000
     atom   16 type  1   force =     0.00000000    0.00000000    0.00000000
     atom   17 type  2   force =     0.00000000    0.00000000    0.00000000
     atom   18 type  2   force =     0.00000000    0.00000000    0.00000000
     atom   19 type  1   force =     0.00000000    0.00000000    0.00000000
     atom   20 type  2   force =     0.00000000    0.00000000    0.00000000
     atom   21 type  1   force =     0.00000000    0.00000000    0.00000000
     atom   22 type  2   force =     0.00000000    0.00000000    0.00000000
     atom   23 type  2   force =     0.00000000    0.00000000    0.00000000
     atom   24 type  1   force =     0.00000000    0.00000000    0.00000000
     atom   25 type  2   force =     0.00000000    0.00000000    0.00000000
     atom   26 type  2   force =     0.00000000    0.00000000    0.00000000
     atom   27 type  1   force =     0.00000000    0.00000000    0.00000000
     atom   28 type  2   force =     0.00000000    0.00000000    0.00000000
     atom   29 type  2   force =     0.00000000    0.00000000    0.00000000
     atom   30 type  1   force =     0.00000000    0.00000000    0.00000000
     atom   31 type  2   force =     0.00000000    0.00000000    0.00000000
     atom   32 type  2   force =     0.00000000    0.00000000    0.00000000
     atom   33 type  1   force =     0.00000000    0.00000000    0.00000000
     atom   34 type  2   force =     0.00000000    0.00000000    0.00000000
     atom   35 type  2   force =     0.00000000    0.00000000    0.00000000
     atom   36 type  3   force =     0.00000000    0.00000000    0.00000000
     The SCF correction term to forces
     atom    1 type  1   force =     0.00001443    0.00000974    0.00003177
     atom    2 type  2   force =     0.00000313    0.00001996    0.00001963
     atom    3 type  2   force =    -0.00000080    0.00000005    0.00000141
     atom    4 type  1   force =     0.00000277    0.00000119    0.00003430
     atom    5 type  2   force =    -0.00000165   -0.00000226    0.00000941
     atom    6 type  2   force =    -0.00000430    0.00000104    0.00001093
     atom    7 type  1   force =    -0.00000361   -0.00003104   -0.00000491
     atom    8 type  2   force =     0.00001548   -0.00000691    0.00000127
     atom    9 type  2   force =     0.00001594    0.00000807    0.00000749
     atom   10 type  1   force =     0.00002768    0.00000362   -0.00000255
     atom   11 type  2   force =     0.00000147    0.00000153    0.00000643
     atom   12 type  2   force =    -0.00000214   -0.00000084   -0.00000972
     atom   13 type  1   force =     0.00000093    0.00000536    0.00003594
     atom   14 type  2   force =    -0.00000389    0.00001569    0.00000826
     atom   15 type  2   force =    -0.00000123   -0.00000149    0.00000311
     atom   16 type  1   force =    -0.00000802   -0.00000695    0.00003177
     atom   17 type  2   force =    -0.00000280    0.00000275    0.00001816
     atom   18 type  2   force =     0.00000635    0.00000690    0.00000916
     atom   19 type  1   force =    -0.00001659   -0.00001186   -0.00000583
     atom   20 type  2   force =    -0.00000299   -0.00000014    0.00000541
     atom   21 type  1   force =    -0.00001431    0.00000571   -0.00001163
     atom   22 type  2   force =    -0.00000680    0.00000103   -0.00000605
     atom   23 type  2   force =    -0.00000682   -0.00000234   -0.00000487
     atom   24 type  1   force =     0.00001288    0.00001129    0.00004150
     atom   25 type  2   force =     0.00000309    0.00000499    0.00002119
     atom   26 type  2   force =    -0.00000373   -0.00000838    0.00000267
     atom   27 type  1   force =    -0.00000178    0.00000201    0.00004533
     atom   28 type  2   force =     0.00000449   -0.00000842    0.00002754
     atom   29 type  2   force =    -0.00000090   -0.00000078    0.00000696
     atom   30 type  1   force =     0.00000972   -0.00000669   -0.00000450
     atom   31 type  2   force =    -0.00000911   -0.00000686   -0.00000149
     atom   32 type  2   force =    -0.00000930    0.00001420    0.00000609
     atom   33 type  1   force =    -0.00000995   -0.00000202   -0.00000414
     atom   34 type  2   force =     0.00000573   -0.00000432   -0.00000537
     atom   35 type  2   force =     0.00000894   -0.00001063   -0.00000033
     atom   36 type  3   force =     0.00000155    0.00000199    0.00000155

     Total force =     0.005980     Total SCF correction =     0.000130
     Energy error            =      8.3E-05 Ry
     Gradient error          =      1.5E-03 Ry/Bohr

     bfgs converged in  20 scf cycles and  19 bfgs steps
     (criteria: energy <  1.0E-04 Ry, force <  1.0E-02 Ry/Bohr)

     End of BFGS Geometry Optimization

     Final energy             =   -2205.5826728821 Ry

     File ./MoS2-V-O.bfgs deleted, as requested
Begin final coordinates

ATOMIC_POSITIONS (angstrom)
Mo            6.5654554087        1.7459453302        2.7448540567
S             8.1118244034        0.8369812411        4.3692011055
S             8.1692110871        0.8319870445        1.1809237979
Mo            8.1403120278        4.4829895780        2.7182568993
S             6.5333385105        3.6525108884        4.2948891055
S             6.5837516804        3.5601453885        1.1051193011
Mo            6.5096029927        7.1856836979        2.6674545180
S             8.0706970723        6.2968162796        4.3047049504
S             8.1514460152        6.3194913744        1.1203930127
Mo            8.1382812311        9.9276848644        2.7716117925
S             6.5057547614        8.9557071467        4.3199256442
S             6.5937258325        9.0283966549        1.1227950935
Mo            3.4598293178        1.7773045132        2.7129676283
S             4.9855909462        0.8250207746        4.3163095070
S             5.0010407991        0.8358505089        1.1280265560
Mo            5.0132790122        4.5330842534        2.6385356046
S             3.5019274723        3.6634128780        4.2995145918
S             3.4525166063        3.5670396741        1.0940590828
Mo            3.4867305993        7.1989873080        2.6721650431
S             4.9942941838        6.3218410082        1.0363572710
Mo            4.9852555853        9.9190904622        2.7156421047
S             3.4903059587        8.9474335938        4.3389627175
S             3.3814715572        9.0321281875        1.1335429862
Mo            0.2672639896        1.7281233169        2.8079804924
S             1.7772910903        0.7759715248        4.5148353273
S             1.8464276053        0.8300500257        1.2172940619
Mo            1.8877881238        4.4736691495        2.7243549882
S             0.2780110957        3.6136221338        4.3344933999
S             0.2856673551        3.5351425133        1.1708226306
Mo            0.2699930258        7.2044290723        2.7458446321
S             1.9211592107        6.2953032148        4.3076841618
S             1.8565193207        6.3164900483        1.1316914940
Mo            1.8462237825        9.9215843598        2.8084106330
S             0.2498050667        8.9969870558        4.3759341867
S             0.2770520631        9.0447440633        1.1837287846
H             0.9342533323       11.2281972818        5.5254743743
End final coordinates



     Writing all to output data dir ./MoS2-V-O.save/
 
     init_run     :      2.36s CPU      2.66s WALL (       1 calls)
     electrons    :   1589.35s CPU   1762.56s WALL (      20 calls)
     update_pot   :     26.58s CPU     27.90s WALL (      19 calls)
     forces       :     26.37s CPU     30.33s WALL (      20 calls)

     Called by init_run:
     wfcinit      :      0.37s CPU      0.44s WALL (       1 calls)
     potinit      :      1.31s CPU      1.45s WALL (       1 calls)
     hinit0       :      0.16s CPU      0.18s WALL (       1 calls)

     Called by electrons:
     c_bands      :    203.81s CPU    207.39s WALL (     165 calls)
     sum_band     :     48.04s CPU     59.73s WALL (     165 calls)
     v_of_rho     :     64.78s CPU     78.21s WALL (     169 calls)
     newd         :     21.66s CPU     32.54s WALL (     169 calls)
     mix_rho      :   1259.27s CPU   1392.86s WALL (     165 calls)

     Called by c_bands:
     init_us_2    :      3.51s CPU      3.81s WALL (     331 calls)
     init_us_2:cp :      3.50s CPU      3.80s WALL (     331 calls)
     regterg      :    191.46s CPU    194.73s WALL (     165 calls)

     Called by *egterg:
     rdiaghg      :     15.98s CPU     16.18s WALL (     893 calls)
     h_psi        :    110.21s CPU    111.28s WALL (     929 calls)
     s_psi        :     14.19s CPU     14.24s WALL (     929 calls)
     g_psi        :      0.71s CPU      0.72s WALL (     763 calls)

     Called by h_psi:
     h_psi:calbec :     15.52s CPU     15.60s WALL (     929 calls)
     vloc_psi     :     79.18s CPU     80.07s WALL (     929 calls)
     add_vuspsi   :     13.94s CPU     14.04s WALL (     929 calls)

     General routines
     calbec       :     22.33s CPU     22.43s WALL (    1174 calls)
     fft          :     42.76s CPU     50.60s WALL (   11484 calls)
     ffts         :    570.32s CPU    699.41s WALL (  306897 calls)
     fftw         :     67.96s CPU     68.59s WALL (  101001 calls)
     interpolate  :      1.21s CPU      1.44s WALL (     169 calls)
 
     Parallel routines
 
     PWSCF        :  27m28.11s CPU  30m29.42s WALL

 
   This run was terminated on:  11: 6:46   4Nov2023            

=------------------------------------------------------------------------------=
   JOB DONE.
=------------------------------------------------------------------------------=
