
     Program PWSCF v.7.2 starts on  4Nov2023 at  6:14: 9 

     This program is part of the open-source Quantum ESPRESSO suite
     for quantum simulation of materials; please cite
         "P. Giannozzi et al., J. Phys.:Condens. Matter 21 395502 (2009);
         "P. Giannozzi et al., J. Phys.:Condens. Matter 29 465901 (2017);
         "P. Giannozzi et al., J. Chem. Phys. 152 154105 (2020);
          URL http://www.quantum-espresso.org", 
     in publications or presentations arising from this work. More details at
     http://www.quantum-espresso.org/quote

     Parallel version (MPI & OpenMP), running on      48 processor cores
     Number of MPI processes:                48
     Threads/MPI process:                     1

     MPI processes distributed on     1 nodes
     20647 MiB available memory on the printing compute node when the environment starts
 
     Waiting for input...
     Reading input from standard input
Warning: card &CELL ignored
Warning: card CELL_DYNAMICS = 'BFGS', ignored
Warning: card CELL_DOFREE = '2DXY' ignored
Warning: card / ignored

     Current dimensions of program PWSCF are:
     Max number of different atomic species (ntypx) = 10
     Max number of k-points (npk) =  40000
     Max angular momentum in pseudopotentials (lmaxx) =  4

     IMPORTANT: XC functional enforced from input :
     Exchange-correlation= RVV10
                           (   1   4  13   4  26   0   0)
     Any further DFT definition will be discarded
     Please, verify this is what you really want


     gamma-point specific algorithms are used
     signal trapping enabled: kill the code with -SIGUSR1 to stop cleanly the simulation 
 
     R & G space division:  proc/nbgrp/npool/nimage =      48
     Subspace diagonalization in iterative solution of the eigenvalue problem:
     one sub-group per band group will be used
     scalapack distributed-memory algorithm (size of sub-group:  2*  2 procs)

 
     Parallelization info
     --------------------
     sticks:   dense  smooth     PW     G-vecs:    dense   smooth      PW
     Min         243     194     47                49060    35090    4376
     Max         246     196     50                49086    35128    4410
     Sum       11735    9389   2349              2355467  1685513  210763
 
     Using Slab Decomposition
 


     bravais-lattice index     =            0
     lattice parameter (alat)  =      17.8707  a.u.
     unit-cell volume          =   17436.2743 (a.u.)^3
     number of atoms/cell      =           36
     number of atomic types    =            3
     number of electrons       =       307.00
     number of Kohn-Sham states=          185
     kinetic-energy cutoff     =      80.0000  Ry
     charge density cutoff     =     400.0000  Ry
     scf convergence threshold =      1.0E-06
     mixing beta               =       0.7000
     number of iterations used =            8  local-TF  mixing
     energy convergence thresh.=      1.0E-04
     force convergence thresh. =      1.0E-02
     Exchange-correlation= RVV10
                           (   1   4  13   4  26   0   0)
     nstep                     =          200


     celldm(1)=  17.870686  celldm(2)=   0.000000  celldm(3)=   0.000000
     celldm(4)=   0.000000  celldm(5)=   0.000000  celldm(6)=   0.000000

     crystal axes: (cart. coord. in units of alat)
               a(1) = (   1.000000   0.000000   0.000000 )  
               a(2) = (   0.000000   1.155671   0.000000 )  
               a(3) = (   0.000000   0.000000   2.643601 )  

     reciprocal axes: (cart. coord. in units 2 pi/alat)
               b(1) = (  1.000000  0.000000  0.000000 )  
               b(2) = (  0.000000  0.865298  0.000000 )  
               b(3) = (  0.000000  0.000000  0.378272 )  


     PseudoPot. # 1 for Mo read from file:
     ../pseudo/Mo_ONCV_PBE-1.0.oncvpsp.upf
     MD5 check sum: 1b5d28e075c9ccadda658a603575cd1f
     Pseudo is Norm-conserving, Zval = 14.0
     Generated using ONCVPSP code by D. R. Hamann
     Using radial grid of 1526 points,  6 beta functions with: 
                l(1) =   0
                l(2) =   0
                l(3) =   1
                l(4) =   1
                l(5) =   2
                l(6) =   2

     PseudoPot. # 2 for S  read from file:
     ../pseudo/s_pbe_v1.4.uspp.F.UPF
     MD5 check sum: 88d86576ff6df21479756cfb9bdac1df
     Pseudo is Ultrasoft + core correction, Zval =  6.0
     Generated by new atomic code, or converted to UPF format
     Using radial grid of  907 points,  6 beta functions with: 
                l(1) =   0
                l(2) =   0
                l(3) =   1
                l(4) =   1
                l(5) =   2
                l(6) =   2
     Q(r) pseudized with  8 coefficients,  rinner =    1.300   1.300   1.300
                                                       1.300   1.300

     PseudoPot. # 3 for H  read from file:
     ../pseudo/H_ONCV_PBE-1.0.oncvpsp.upf
     MD5 check sum: 1790becc920ee074925cf490c71280fe
     Pseudo is Norm-conserving, Zval =  1.0
     Generated using ONCVPSP code by D. R. Hamann
     Using radial grid of 1166 points,  2 beta functions with: 
                l(1) =   0
                l(2) =   0

     atomic species   valence    mass     pseudopotential
        Mo            14.00    95.94000     Mo( 1.00)
        S              6.00    32.06500     S ( 1.00)
        H              1.00     1.00794     H ( 1.00)

     No symmetry found



   Cartesian axes

     site n.     atom                  positions (alat units)
         1           Mo  tau(   1) = (   0.6952221   0.1890506   0.2985846  )
         2           S   tau(   2) = (   0.8646417   0.0856217   0.4689279  )
         3           S   tau(   3) = (   0.8663890   0.0857843   0.1351291  )
         4           Mo  tau(   4) = (   0.8560186   0.4753274   0.2873942  )
         5           S   tau(   5) = (   0.6873294   0.3936244   0.4596353  )
         6           S   tau(   6) = (   0.6929804   0.3713468   0.1185692  )
         7           Mo  tau(   7) = (   0.6862796   0.7633098   0.2825370  )
         8           S   tau(   8) = (   0.8545980   0.6708292   0.4486168  )
         9           S   tau(   9) = (   0.8545123   0.6666874   0.1146125  )
        10           Mo  tau(  10) = (   0.8629403   1.0471007   0.3006803  )
        11           S   tau(  11) = (   0.6868280   0.9456650   0.4634891  )
        12           S   tau(  12) = (   0.6998113   0.9568511   0.1205389  )
        13           Mo  tau(  13) = (   0.3618216   0.1847309   0.2935964  )
        14           S   tau(  14) = (   0.5260962   0.0863870   0.4600448  )
        15           S   tau(  15) = (   0.5348379   0.0894875   0.1297123  )
        16           Mo  tau(  16) = (   0.5265817   0.4772436   0.2784130  )
        17           S   tau(  17) = (   0.3624753   0.3882513   0.4525556  )
        18           S   tau(  18) = (   0.3635411   0.3752055   0.1119148  )
        19           Mo  tau(  19) = (   0.3652268   0.7630864   0.2781795  )
        20           S   tau(  20) = (   0.5269494   0.6690381   0.1096838  )
        21           Mo  tau(  21) = (   0.5300192   1.0470394   0.2900995  )
        22           S   tau(  22) = (   0.3670346   0.9457522   0.4574073  )
        23           S   tau(  23) = (   0.3604225   0.9585725   0.1159032  )
        24           Mo  tau(  24) = (   0.0313099   0.1847895   0.3013130  )
        25           S   tau(  25) = (   0.1956761   0.0838230   0.4650863  )
        26           S   tau(  26) = (   0.1967693   0.0903508   0.1278874  )
        27           Mo  tau(  27) = (   0.1967578   0.4753919   0.2813011  )
        28           S   tau(  28) = (   0.0287851   0.3864324   0.4586755  )
        29           S   tau(  29) = (   0.0244514   0.3729871   0.1239344  )
        30           Mo  tau(  30) = (   0.0286728   0.7631204   0.2856894  )
        31           S   tau(  31) = (   0.2011512   0.6675435   0.4465001  )
        32           S   tau(  32) = (   0.1969214   0.6672839   0.1104564  )
        33           Mo  tau(  33) = (   0.1950294   1.0511147   0.2932237  )
        34           S   tau(  34) = (   0.0312912   0.9612169   0.4667423  )
        35           S   tau(  35) = (   0.0292670   0.9563028   0.1216485  )
        36           H   tau(  36) = (   0.4444444   0.7704471   0.5792558  )

     number of k points=     1  Gaussian smearing, width (Ry)=  0.0100
                       cart. coord. in units 2pi/alat
        k(    1) = (   0.0000000   0.0000000   0.0000000), wk =   2.0000000

     Dense  grid:  1177734 G-vectors     FFT dimensions: ( 120, 135, 320)

     Smooth grid:   842757 G-vectors     FFT dimensions: ( 108, 120, 270)

     Estimated max dynamical RAM per process >     146.59 MB

     Estimated total dynamical RAM >       6.87 GB

     Initial potential from superposition of free atoms

     starting charge     306.9873, renormalised to     307.0000

     negative rho (up, down):  1.400E-04 0.000E+00


---------------------------------------------------------------------------------
Carrying out rVV10 run using the following parameters:
Nqs =      20    Nr_points =    1024   r_max =   100.000
b_value =  6.30000    beta =  0.00901
     q_mesh =  0.00010000  0.00030000  0.00058939  0.00100810
               0.00161396  0.00249058  0.00375900  0.00559430
               0.00824984  0.01209221  0.01765183  0.02569619
               0.03733578  0.05417739  0.07854596  0.11380545
               0.16482331  0.23864234  0.34545298  0.50000000

Gradients computed in Reciprocal space

---------------------------------------------------------------------------------


     Starting wfcs are  213 randomized atomic wfcs

     total cpu time spent up to now is        3.5 secs

     Self-consistent Calculation

     iteration #  1     ecut=    80.00 Ry     beta= 0.70
     Davidson diagonalization with overlap
     ethr =  1.00E-02,  avg # of iterations =  2.0

     Threshold (ethr) on eigenvalues was too large:
     Diagonalizing with lowered threshold

     Davidson diagonalization with overlap
     ethr =  3.53E-04,  avg # of iterations =  4.0

     negative rho (up, down):  2.168E-08 0.000E+00

     total cpu time spent up to now is       17.6 secs

     total energy              =   -2205.54068249 Ry
     estimated scf accuracy    <       1.38500191 Ry

     iteration #  2     ecut=    80.00 Ry     beta= 0.70
     Davidson diagonalization with overlap
     ethr =  4.51E-04,  avg # of iterations =  2.0

     total cpu time spent up to now is       20.1 secs

     total energy              =   -2205.43373012 Ry
     estimated scf accuracy    <       0.54372405 Ry

     iteration #  3     ecut=    80.00 Ry     beta= 0.70
     Davidson diagonalization with overlap
     ethr =  1.77E-04,  avg # of iterations =  2.0

     total cpu time spent up to now is       22.5 secs

     total energy              =   -2205.45560484 Ry
     estimated scf accuracy    <       0.25468177 Ry

     iteration #  4     ecut=    80.00 Ry     beta= 0.70
     Davidson diagonalization with overlap
     ethr =  8.30E-05,  avg # of iterations = 10.0

     total cpu time spent up to now is       25.2 secs

     total energy              =   -2205.48368825 Ry
     estimated scf accuracy    <       0.03398170 Ry

     iteration #  5     ecut=    80.00 Ry     beta= 0.70
     Davidson diagonalization with overlap
     ethr =  1.11E-05,  avg # of iterations =  3.0

     total cpu time spent up to now is       27.5 secs

     total energy              =   -2205.48484373 Ry
     estimated scf accuracy    <       0.01635847 Ry

     iteration #  6     ecut=    80.00 Ry     beta= 0.70
     Davidson diagonalization with overlap
     c_bands:  1 eigenvalues not converged
     ethr =  5.33E-06,  avg # of iterations = 20.0

     total cpu time spent up to now is       30.5 secs

     total energy              =   -2205.48410292 Ry
     estimated scf accuracy    <       0.01615994 Ry

     iteration #  7     ecut=    80.00 Ry     beta= 0.70
     Davidson diagonalization with overlap
     ethr =  5.26E-06,  avg # of iterations =  1.0

     total cpu time spent up to now is       33.0 secs

     total energy              =   -2205.48152516 Ry
     estimated scf accuracy    <       0.01000140 Ry

     iteration #  8     ecut=    80.00 Ry     beta= 0.70
     Davidson diagonalization with overlap
     ethr =  3.26E-06,  avg # of iterations =  5.0

     negative rho (up, down):  9.228E-03 0.000E+00

     total cpu time spent up to now is       37.1 secs

     total energy              =   -2205.48227178 Ry
     estimated scf accuracy    <       0.00368684 Ry

     iteration #  9     ecut=    80.00 Ry     beta= 0.70
     Davidson diagonalization with overlap
     ethr =  1.20E-06,  avg # of iterations =  2.0

     negative rho (up, down):  2.019E-02 0.000E+00

     total cpu time spent up to now is       41.3 secs

     total energy              =   -2205.48161060 Ry
     estimated scf accuracy    <       0.00292063 Ry

     iteration # 10     ecut=    80.00 Ry     beta= 0.70
     Davidson diagonalization with overlap
     ethr =  9.51E-07,  avg # of iterations =  2.0

     negative rho (up, down):  2.470E-02 0.000E+00

     total cpu time spent up to now is       47.7 secs

     total energy              =   -2205.48199252 Ry
     estimated scf accuracy    <       0.00079936 Ry

     iteration # 11     ecut=    80.00 Ry     beta= 0.70
     Davidson diagonalization with overlap
     ethr =  2.60E-07,  avg # of iterations =  2.0

     negative rho (up, down):  1.501E-02 0.000E+00

     total cpu time spent up to now is       53.5 secs

     total energy              =   -2205.48198230 Ry
     estimated scf accuracy    <       0.00060657 Ry

     iteration # 12     ecut=    80.00 Ry     beta= 0.70
     Davidson diagonalization with overlap
     ethr =  1.98E-07,  avg # of iterations =  2.0

     negative rho (up, down):  3.515E-03 0.000E+00

     total cpu time spent up to now is       59.4 secs

     total energy              =   -2205.48210263 Ry
     estimated scf accuracy    <       0.00007488 Ry

     iteration # 13     ecut=    80.00 Ry     beta= 0.70
     Davidson diagonalization with overlap
     ethr =  2.44E-08,  avg # of iterations =  5.0

     negative rho (up, down):  2.214E-03 0.000E+00

     total cpu time spent up to now is       66.9 secs

     total energy              =   -2205.48213956 Ry
     estimated scf accuracy    <       0.00003374 Ry

     iteration # 14     ecut=    80.00 Ry     beta= 0.70
     Davidson diagonalization with overlap
     ethr =  1.10E-08,  avg # of iterations =  2.0

     negative rho (up, down):  6.420E-04 0.000E+00

     total cpu time spent up to now is       77.7 secs

     total energy              =   -2205.48214253 Ry
     estimated scf accuracy    <       0.00000280 Ry

     iteration # 15     ecut=    80.00 Ry     beta= 0.70
     Davidson diagonalization with overlap
     ethr =  9.12E-10,  avg # of iterations =  6.0

     negative rho (up, down):  2.290E-04 0.000E+00

     total cpu time spent up to now is       87.6 secs

     total energy              =   -2205.48214151 Ry
     estimated scf accuracy    <       0.00000182 Ry

     iteration # 16     ecut=    80.00 Ry     beta= 0.70
     Davidson diagonalization with overlap
     ethr =  5.91E-10,  avg # of iterations =  2.0

     negative rho (up, down):  1.363E-04 0.000E+00

     total cpu time spent up to now is       89.7 secs

     End of self-consistent calculation

          k = 0.0000 0.0000 0.0000 (105382 PWs)   bands (ev):

   -62.9534 -62.9440 -62.9282 -62.9241 -62.9061 -62.8970 -62.8914 -62.8785
   -62.8746 -62.8554 -62.8320 -62.8285 -37.3171 -37.2495 -37.2161 -37.2057
   -37.1984 -37.1713 -37.1572 -37.1452 -37.1312 -37.1268 -37.1259 -37.1075
   -37.1047 -37.0983 -37.0895 -37.0757 -37.0729 -37.0687 -37.0653 -37.0573
   -37.0538 -37.0481 -37.0278 -37.0183 -37.0072 -36.9926 -36.9866 -36.9830
   -36.9699 -36.9448 -36.9339 -36.9089 -36.8950 -36.8686 -36.8323 -36.8249
   -16.0336 -15.2583 -15.1847 -15.0356 -14.9619 -14.8697 -14.5830 -14.5411
   -14.5027 -14.4666 -14.4384 -14.3990 -14.3849 -14.3516 -14.2086 -14.1784
   -14.1682 -14.1467 -14.0861 -13.9257 -13.9156 -13.8832 -13.8555  -7.7292
    -7.5548  -7.3539  -7.3439  -7.3142  -7.2617  -7.2516  -7.1819  -6.9565
    -6.8850  -6.8176  -6.7906  -6.7705  -6.6042  -6.5458  -6.4991  -6.4612
    -6.3339  -6.3126  -6.0345  -6.0018  -5.9547  -5.9268  -5.8893  -5.8179
    -5.8064  -5.7608  -5.7225  -5.7169  -5.6663  -5.5832  -5.5808  -5.5123
    -5.4996  -5.4377  -5.2153  -5.1974  -5.1109  -5.0697  -5.0478  -4.9808
    -4.9521  -4.8925  -4.7534  -4.6032  -4.3906  -4.3679  -4.3225  -4.2933
    -4.2827  -4.1360  -4.0580  -3.8820  -3.8691  -3.8255  -3.7826  -3.7375
    -3.6971  -3.6340  -3.5847  -3.5540  -3.5264  -3.5172  -3.4821  -3.4345
    -3.4143  -3.2466  -3.1626  -2.9853  -2.9379  -2.8992  -2.8322  -2.7856
    -2.7607  -2.7112  -2.7063  -2.6857  -2.6498  -2.4190  -2.1053  -2.0452
    -2.0080  -1.1560  -0.8814  -0.8084  -0.2398  -0.1981  -0.1676  -0.1082
    -0.0224   0.0736   0.1101   0.1714   0.1819   0.2177   0.2954   0.3501
     0.4033   0.4731   0.4753   0.5019   0.5313   0.6117   0.6692   0.6832
     0.7034   0.7543   0.7715   0.8098   0.8627   0.9042   0.9434   1.0106
     1.3684

     the Fermi energy is    -1.1565 ev

!    total energy              =   -2205.48214214 Ry
     estimated scf accuracy    <       0.00000044 Ry
     smearing contrib. (-TS)   =      -0.00574438 Ry
     internal energy E=F+TS    =   -2205.47639777 Ry

     The total energy is F=E-TS. E is the sum of the following terms:
     one-electron contribution =  -18038.68970217 Ry
     hartree contribution      =    9005.47774109 Ry
     xc contribution           =    -385.12904668 Ry
     ewald contribution        =    7212.86460999 Ry

     convergence has been achieved in  16 iterations

     negative rho (up, down):  1.363E-04 0.000E+00

     Forces acting on atoms (cartesian axes, Ry/au):

     atom    1 type  1   force =     0.01352511   -0.02621279    0.00533553
     atom    2 type  2   force =    -0.01478404    0.01674428    0.00037446
     atom    3 type  2   force =    -0.01116935    0.00944732   -0.00303331
     atom    4 type  1   force =     0.00452494    0.00401698   -0.00212926
     atom    5 type  2   force =    -0.00139534   -0.00504300   -0.00643648
     atom    6 type  2   force =     0.00096315    0.01061234    0.00098799
     atom    7 type  1   force =     0.00975809   -0.01795380   -0.00895664
     atom    8 type  2   force =     0.00152334   -0.00328803    0.01710307
     atom    9 type  2   force =     0.01159425    0.00654455    0.01221570
     atom   10 type  1   force =    -0.01257373    0.00939534   -0.02723471
     atom   11 type  2   force =     0.00723849    0.00150734   -0.00882514
     atom   12 type  2   force =    -0.00148314    0.00017484    0.00472353
     atom   13 type  1   force =     0.00428091    0.00498853   -0.00703196
     atom   14 type  2   force =     0.00859419    0.00018394    0.01298923
     atom   15 type  2   force =    -0.01183966    0.00438053   -0.00997532
     atom   16 type  1   force =     0.00506649    0.00689415    0.00007373
     atom   17 type  2   force =     0.00667828    0.00001240    0.00037403
     atom   18 type  2   force =    -0.00443513   -0.00646780    0.01327433
     atom   19 type  1   force =     0.00174944   -0.01602259    0.01187712
     atom   20 type  2   force =     0.00396395   -0.00490481    0.00136989
     atom   21 type  1   force =    -0.00892144    0.00083063    0.00868726
     atom   22 type  2   force =     0.00226256   -0.00249490    0.01638062
     atom   23 type  2   force =    -0.00009488    0.00200692    0.00928665
     atom   24 type  1   force =    -0.01015133   -0.00259796   -0.02159495
     atom   25 type  2   force =     0.01739349    0.01744957    0.00802825
     atom   26 type  2   force =    -0.01076189   -0.00172516   -0.00289601
     atom   27 type  1   force =    -0.00262007    0.00232370    0.00781187
     atom   28 type  2   force =     0.00139317   -0.00090734   -0.00560841
     atom   29 type  2   force =     0.00263650   -0.00095958   -0.00239650
     atom   30 type  1   force =    -0.00325164    0.00935227   -0.00619971
     atom   31 type  2   force =    -0.00446954    0.00045182    0.01444452
     atom   32 type  2   force =    -0.00780531    0.00690182    0.00857213
     atom   33 type  1   force =     0.00814083    0.00053391   -0.02048635
     atom   34 type  2   force =     0.00327517   -0.04285069   -0.00821127
     atom   35 type  2   force =    -0.00868937    0.00636317    0.01543580
     atom   36 type  3   force =    -0.00011650    0.01031210   -0.02832969
     The non-local contrib.  to forces
     atom    1 type  1   force =     0.00070949    0.03327336   -0.01140751
     atom    2 type  2   force =    -0.01095768    0.00206370   -0.27193266
     atom    3 type  2   force =    -0.01438068   -0.00292885    0.27036595
     atom    4 type  1   force =     0.00028578    0.00410016    0.00476724
     atom    5 type  2   force =     0.00549097   -0.03370952   -0.25528486
     atom    6 type  2   force =    -0.00241445    0.01193990    0.26370791
     atom    7 type  1   force =    -0.01390113    0.00082724   -0.02157071
     atom    8 type  2   force =     0.00331493   -0.00306956   -0.25596961
     atom    9 type  2   force =     0.00596303   -0.00766714    0.27770906
     atom   10 type  1   force =     0.00791560    0.00018626    0.00354489
     atom   11 type  2   force =     0.01544076    0.00230521   -0.26359359
     atom   12 type  2   force =    -0.01289406   -0.01710154    0.26352847
     atom   13 type  1   force =    -0.00237159    0.02010087   -0.00754269
     atom   14 type  2   force =     0.01082425   -0.01018515   -0.26403557
     atom   15 type  2   force =    -0.01361788   -0.00541827    0.26075248
     atom   16 type  1   force =     0.00030638    0.02964974   -0.02427464
     atom   17 type  2   force =     0.00224285   -0.02996165   -0.25057823
     atom   18 type  2   force =    -0.00426127   -0.00340163    0.27357426
     atom   19 type  1   force =     0.00483511   -0.00039022   -0.02500308
     atom   20 type  2   force =    -0.00004484   -0.02159510    0.26524946
     atom   21 type  1   force =     0.00109133    0.02277137    0.00597805
     atom   22 type  2   force =     0.03978183   -0.08789752   -0.22212141
     atom   23 type  2   force =     0.00734088   -0.01567933    0.26856855
     atom   24 type  1   force =     0.00616079    0.01240729   -0.01177980
     atom   25 type  2   force =     0.01054913    0.00499266   -0.26150046
     atom   26 type  2   force =    -0.00271442   -0.01277435    0.26345373
     atom   27 type  1   force =    -0.00358310    0.00644581    0.00920555
     atom   28 type  2   force =    -0.00283667   -0.02272855   -0.27410212
     atom   29 type  2   force =     0.00681798    0.00299652    0.26380920
     atom   30 type  1   force =    -0.00013851    0.01651958    0.00583677
     atom   31 type  2   force =    -0.00732227   -0.00725883   -0.25961838
     atom   32 type  2   force =     0.00004839   -0.00803520    0.27466593
     atom   33 type  1   force =     0.00223211    0.00482116    0.01005399
     atom   34 type  2   force =    -0.00507155   -0.03562581   -0.26914443
     atom   35 type  2   force =    -0.00096620   -0.01334149    0.26826228
     atom   36 type  3   force =    -0.00154934    0.00355721   -0.00539964
     The ionic contribution  to forces
     atom    1 type  1   force =     0.43495270    0.22821837    5.68990375
     atom    2 type  2   force =    -0.64662046    0.43626841   39.28255738
     atom    3 type  2   force =    -0.15785819    0.02805498  -36.07631473
     atom    4 type  1   force =     0.14735368    0.47605539    0.62474437
     atom    5 type  2   force =    -0.90335505    1.39295711   38.72584200
     atom    6 type  2   force =     0.36014580   -0.52558521  -38.03116620
     atom    7 type  1   force =    -2.32413010   -2.78367698    2.21978048
     atom    8 type  2   force =    -0.89719905   -0.01456127   37.34862545
     atom    9 type  2   force =     0.35770492   -0.04822395  -38.02620142
     atom   10 type  1   force =    -1.04072954   -0.20324932    5.61854772
     atom   11 type  2   force =    -0.32818667   -1.41772393   39.03274330
     atom   12 type  2   force =     0.47175303    0.72364164  -37.89224171
     atom   13 type  1   force =     0.45664844    0.99067845    2.82448042
     atom   14 type  2   force =     0.08025268    0.07059406   38.50157839
     atom   15 type  2   force =     0.16461270   -0.04393139  -36.81097064
     atom   16 type  1   force =     0.04845229    3.68793592    0.26622202
     atom   17 type  2   force =     0.77557955    1.34122375   37.88940461
     atom   18 type  2   force =    -0.16821722   -0.67731125  -38.58185815
     atom   19 type  1   force =     2.51558627   -2.45966131   -0.09120375
     atom   20 type  2   force =     0.24738419   -0.22193475  -38.56301257
     atom   21 type  1   force =     0.12651292    0.34462279    0.91763501
     atom   22 type  2   force =     0.22172100   -1.16964817   38.06868178
     atom   23 type  2   force =    -0.10237908    0.70743074  -38.35649207
     atom   24 type  1   force =    -0.57481694    1.13981928    5.85079902
     atom   25 type  2   force =     0.61848087    0.33534114   39.26229750
     atom   26 type  2   force =    -0.30107999    0.08005075  -37.33122290
     atom   27 type  1   force =    -0.09596110    0.23556564   -2.36995393
     atom   28 type  2   force =     0.02538346    0.95138656   38.20198887
     atom   29 type  2   force =    -0.27262936   -0.44699930  -37.26175218
     atom   30 type  1   force =    -0.44698433   -0.90140461   -0.15563314
     atom   31 type  2   force =     0.91650001   -0.19608055   37.16125155
     atom   32 type  2   force =    -0.51339645   -0.02375748  -38.68519858
     atom   33 type  1   force =     0.65612973   -0.66844755    1.93911309
     atom   34 type  2   force =     0.17130662   -1.36997507   39.32964865
     atom   35 type  2   force =    -0.31421029    0.49999569  -37.83048379
     atom   36 type  3   force =     0.29129294   -0.49766857    7.30786040
     The local contribution  to forces
     atom    1 type  1   force =    -0.42219469   -0.28772356   -5.67407135
     atom    2 type  2   force =     0.64248156   -0.42148108  -39.03141751
     atom    3 type  2   force =     0.16039352   -0.01572657   35.82346262
     atom    4 type  1   force =    -0.14319414   -0.47599807   -0.63257183
     atom    5 type  2   force =     0.89703370   -1.36614626  -38.49783198
     atom    6 type  2   force =    -0.35710842    0.52542164   37.78903416
     atom    7 type  1   force =     2.34777129    2.76498123   -2.20800857
     atom    8 type  2   force =     0.89540614    0.01393810  -37.09645642
     atom    9 type  2   force =    -0.35209804    0.06201831   37.78149191
     atom   10 type  1   force =     1.02013839    0.21229574   -5.65020796
     atom   11 type  2   force =     0.32069746    1.41730789  -38.79931578
     atom   12 type  2   force =    -0.46153548   -0.70788987   37.65404778
     atom   13 type  1   force =    -0.44995426   -1.00577469   -2.82487638
     atom   14 type  2   force =    -0.08191071   -0.06028841  -38.24561579
     atom   15 type  2   force =    -0.16356321    0.05336070   36.56047163
     atom   16 type  1   force =    -0.04367116   -3.71063666   -0.24276772
     atom   17 type  2   force =    -0.77112556   -1.31279675  -37.65913617
     atom   18 type  2   force =     0.16795259    0.67473712   38.34226941
     atom   19 type  1   force =    -2.51856650    2.44410981    0.12721930
     atom   20 type  2   force =    -0.24345149    0.23786998   38.32007967
     atom   21 type  1   force =    -0.13645075   -0.36676943   -0.91579514
     atom   22 type  2   force =    -0.25720663    1.25126671  -37.84922857
     atom   23 type  2   force =     0.09554658   -0.69111552   38.11787517
     atom   24 type  1   force =     0.55851380   -1.15486580   -5.86151383
     atom   25 type  2   force =    -0.61145179   -0.32253485  -39.01383911
     atom   26 type  2   force =     0.29321387   -0.06971672   37.08539473
     atom   27 type  1   force =     0.09700580   -0.23963068    2.36763052
     atom   28 type  2   force =    -0.02133650   -0.93124090  -37.95477872
     atom   29 type  2   force =     0.26903487    0.44371161   37.01581085
     atom   30 type  1   force =     0.44381120    0.89427921    0.14270029
     atom   31 type  2   force =    -0.91415187    0.20337441  -36.90845803
     atom   32 type  2   force =     0.50587152    0.03820408   38.43989787
     atom   33 type  1   force =    -0.65019262    0.66406215   -1.97053542
     atom   34 type  2   force =    -0.16352833    1.36166641  -39.08998105
     atom   35 type  2   force =     0.30662280   -0.48145198   37.59829661
     atom   36 type  3   force =    -0.28985325    0.50441890   -7.33084945
     The core correction contribution to forces
     atom    1 type  1   force =     0.00000000    0.00000000    0.00000000
     atom    2 type  2   force =     0.00029358   -0.00013912    0.02084237
     atom    3 type  2   force =     0.00065181    0.00002775   -0.02088849
     atom    4 type  1   force =     0.00000000    0.00000000    0.00000000
     atom    5 type  2   force =    -0.00058767    0.00188138    0.02051016
     atom    6 type  2   force =     0.00032237   -0.00115618   -0.02091367
     atom    7 type  1   force =     0.00000000    0.00000000    0.00000000
     atom    8 type  2   force =    -0.00009445    0.00046253    0.02051754
     atom    9 type  2   force =    -0.00005239    0.00046573   -0.02103935
     atom   10 type  1   force =     0.00000000    0.00000000    0.00000000
     atom   11 type  2   force =    -0.00073984   -0.00046907    0.02095030
     atom   12 type  2   force =     0.00117748    0.00143290   -0.02085517
     atom   13 type  1   force =     0.00000000    0.00000000    0.00000000
     atom   14 type  2   force =    -0.00056669    0.00003410    0.02072359
     atom   15 type  2   force =     0.00073549    0.00036060   -0.02054886
     atom   16 type  1   force =     0.00000000    0.00000000    0.00000000
     atom   17 type  2   force =    -0.00001387    0.00156806    0.02035133
     atom   18 type  2   force =     0.00009327   -0.00047866   -0.02102101
     atom   19 type  1   force =     0.00000000    0.00000000    0.00000000
     atom   20 type  2   force =     0.00012441    0.00080199   -0.02120916
     atom   21 type  1   force =     0.00000000    0.00000000    0.00000000
     atom   22 type  2   force =    -0.00201308    0.00376022    0.01870725
     atom   23 type  2   force =    -0.00058979    0.00133617   -0.02094167
     atom   24 type  1   force =     0.00000000    0.00000000    0.00000000
     atom   25 type  2   force =    -0.00016903   -0.00039079    0.02074579
     atom   26 type  2   force =    -0.00016555    0.00069071   -0.02085494
     atom   27 type  1   force =     0.00000000    0.00000000    0.00000000
     atom   28 type  2   force =     0.00019981    0.00168972    0.02095270
     atom   29 type  2   force =    -0.00057276   -0.00064811   -0.02059799
     atom   30 type  1   force =     0.00000000    0.00000000    0.00000000
     atom   31 type  2   force =     0.00053527    0.00043089    0.02092590
     atom   32 type  2   force =    -0.00030001    0.00049200   -0.02108280
     atom   33 type  1   force =     0.00000000    0.00000000    0.00000000
     atom   34 type  2   force =     0.00057204    0.00107169    0.02093429
     atom   35 type  2   force =    -0.00013892    0.00114596   -0.02094358
     atom   36 type  3   force =     0.00000000    0.00000000    0.00000000
     The Hubbard contrib.    to forces
     atom    1 type  1   force =     0.00000000    0.00000000    0.00000000
     atom    2 type  2   force =     0.00000000    0.00000000    0.00000000
     atom    3 type  2   force =     0.00000000    0.00000000    0.00000000
     atom    4 type  1   force =     0.00000000    0.00000000    0.00000000
     atom    5 type  2   force =     0.00000000    0.00000000    0.00000000
     atom    6 type  2   force =     0.00000000    0.00000000    0.00000000
     atom    7 type  1   force =     0.00000000    0.00000000    0.00000000
     atom    8 type  2   force =     0.00000000    0.00000000    0.00000000
     atom    9 type  2   force =     0.00000000    0.00000000    0.00000000
     atom   10 type  1   force =     0.00000000    0.00000000    0.00000000
     atom   11 type  2   force =     0.00000000    0.00000000    0.00000000
     atom   12 type  2   force =     0.00000000    0.00000000    0.00000000
     atom   13 type  1   force =     0.00000000    0.00000000    0.00000000
     atom   14 type  2   force =     0.00000000    0.00000000    0.00000000
     atom   15 type  2   force =     0.00000000    0.00000000    0.00000000
     atom   16 type  1   force =     0.00000000    0.00000000    0.00000000
     atom   17 type  2   force =     0.00000000    0.00000000    0.00000000
     atom   18 type  2   force =     0.00000000    0.00000000    0.00000000
     atom   19 type  1   force =     0.00000000    0.00000000    0.00000000
     atom   20 type  2   force =     0.00000000    0.00000000    0.00000000
     atom   21 type  1   force =     0.00000000    0.00000000    0.00000000
     atom   22 type  2   force =     0.00000000    0.00000000    0.00000000
     atom   23 type  2   force =     0.00000000    0.00000000    0.00000000
     atom   24 type  1   force =     0.00000000    0.00000000    0.00000000
     atom   25 type  2   force =     0.00000000    0.00000000    0.00000000
     atom   26 type  2   force =     0.00000000    0.00000000    0.00000000
     atom   27 type  1   force =     0.00000000    0.00000000    0.00000000
     atom   28 type  2   force =     0.00000000    0.00000000    0.00000000
     atom   29 type  2   force =     0.00000000    0.00000000    0.00000000
     atom   30 type  1   force =     0.00000000    0.00000000    0.00000000
     atom   31 type  2   force =     0.00000000    0.00000000    0.00000000
     atom   32 type  2   force =     0.00000000    0.00000000    0.00000000
     atom   33 type  1   force =     0.00000000    0.00000000    0.00000000
     atom   34 type  2   force =     0.00000000    0.00000000    0.00000000
     atom   35 type  2   force =     0.00000000    0.00000000    0.00000000
     atom   36 type  3   force =     0.00000000    0.00000000    0.00000000
     The SCF correction term to forces
     atom    1 type  1   force =     0.00005751    0.00001501    0.00089290
     atom    2 type  2   force =     0.00001887    0.00002836    0.00030712
     atom    3 type  2   force =     0.00002410    0.00001599    0.00032359
     atom    4 type  1   force =     0.00007952   -0.00014452    0.00091321
     atom    5 type  2   force =     0.00002260   -0.00002973    0.00031044
     atom    6 type  2   force =     0.00001775   -0.00001184    0.00030804
     atom    7 type  1   force =     0.00001794   -0.00008931    0.00082442
     atom    8 type  2   force =     0.00009567   -0.00006184    0.00036836
     atom    9 type  2   force =     0.00007663   -0.00005242    0.00023776
     atom   10 type  1   force =     0.00010171    0.00015864    0.00086289
     atom   11 type  2   force =     0.00002669    0.00008321    0.00037288
     atom   12 type  2   force =     0.00001580    0.00008769    0.00022641
     atom   13 type  1   force =    -0.00004178   -0.00002012    0.00088895
     atom   14 type  2   force =    -0.00000544    0.00002532    0.00032088
     atom   15 type  2   force =    -0.00000685    0.00000486    0.00030234
     atom   16 type  1   force =    -0.00002112   -0.00005887    0.00087632
     atom   17 type  2   force =    -0.00000479   -0.00002503    0.00031475
     atom   18 type  2   force =    -0.00000260   -0.00001740    0.00029207
     atom   19 type  1   force =    -0.00010554   -0.00008489    0.00084689
     atom   20 type  2   force =    -0.00004842   -0.00005095    0.00024476
     atom   21 type  1   force =    -0.00007503    0.00020188    0.00085160
     atom   22 type  2   force =    -0.00002067    0.00001983    0.00032383
     atom   23 type  2   force =    -0.00001356    0.00003083    0.00025893
     atom   24 type  1   force =    -0.00000907    0.00003724    0.00088192
     atom   25 type  2   force =    -0.00001578    0.00003738    0.00030680
     atom   26 type  2   force =    -0.00001590    0.00002043    0.00031563
     atom   27 type  1   force =    -0.00008177   -0.00006109    0.00091197
     atom   28 type  2   force =    -0.00001703   -0.00001819    0.00031312
     atom   29 type  2   force =    -0.00001433   -0.00002433    0.00031588
     atom   30 type  1   force =     0.00005990   -0.00004593    0.00087862
     atom   31 type  2   force =    -0.00003079   -0.00001813    0.00032572
     atom   32 type  2   force =    -0.00002884   -0.00000561    0.00027196
     atom   33 type  1   force =    -0.00002848    0.00009413    0.00086424
     atom   34 type  2   force =    -0.00000372    0.00000807    0.00031353
     atom   35 type  2   force =     0.00000315    0.00001095    0.00028653
     atom   36 type  3   force =    -0.00000695    0.00000053    0.00004126

     Total force =     0.108376     Total SCF correction =     0.003399

     BFGS Geometry Optimization
     Energy error            =      0.0E+00 Ry
     Gradient error          =      4.3E-02 Ry/Bohr

     number of scf cycles    =   1
     number of bfgs steps    =   0

     energy             new  =   -2205.4821421426 Ry

     new trust radius        =       0.0437530993 bohr
     new conv_thr            =       0.0000010000 Ry


ATOMIC_POSITIONS (angstrom)
Mo            6.5817055864        1.7739350171        2.8264664752
S             8.1688859643        0.8185647163        4.4347365060
S             8.1873225224        0.8162410490        1.2762782700
Mo            8.0975570602        4.4971826412        2.7166916382
S             6.4991708727        3.7197428479        4.3432546079
S             6.5538594778        3.5173533631        1.1218030496
Mo            6.4951454569        7.2089365438        2.6671448348
S             8.0825338432        6.3421310436        4.2515121174
S             8.0870530618        6.3081655441        1.0903272711
Mo            8.1539653160        9.9071522145        2.8290497706
S             6.4989980416        8.9437244622        4.3784354705
S             6.6171623575        9.0488037340        1.1424068877
Mo            3.4239250247        1.7495956692        2.7727500091
S             4.9797133380        0.8170385485        4.3574066986
S             5.0515684782        0.8485801831        1.2213797502
Mo            4.9824377526        4.5168262286        2.6329235644
S             3.4313756578        3.6716062478        4.2799075082
S             3.4355736102        3.5448060846        1.0653761553
Mo            3.4547875020        7.2078457494        2.6369619633
S             4.9853318240        6.3243367730        1.0379786453
Mo            5.0075428975        9.9020396020        2.7479980628
S             3.4721554106        8.9424310253        4.3342595629
S             3.4083789584        9.0660519998        1.1009825822
Mo            0.2907186357        1.7461347475        2.8380171514
S             1.8596664496        0.8019279229        4.4024578057
S             1.8551050859        0.8535130045        1.2078683528
Mo            1.8593048283        4.4968964126        2.6643312419
S             0.2729510835        3.6539186802        4.3346162576
S             0.2326263829        3.5267414380        1.1707497089
Mo            0.2694314550        7.2215951029        2.6984156804
S             1.8998730671        6.3130379253        4.2300878297
S             1.8581078245        6.3139960969        1.0490954595
Mo            1.8486546065        9.9404216873        2.7621053427
S             0.2976460437        9.0673222164        4.4095242482
S             0.2721731859        9.0468929570        1.1585690548
H             4.2029427930        7.2913902641        5.4628920021



     Writing config-only to output data dir ./MoS2-V-O.save/
     NEW-OLD atomic charge density approx. for the potential

     negative rho (up, down):  1.408E-04 0.000E+00

     total cpu time spent up to now is       93.2 secs

     Self-consistent Calculation

     iteration #  1     ecut=    80.00 Ry     beta= 0.70
     Davidson diagonalization with overlap
     c_bands:  1 eigenvalues not converged
     ethr =  1.00E-06,  avg # of iterations = 20.0

     negative rho (up, down):  9.716E-05 0.000E+00

     total cpu time spent up to now is      106.9 secs

     total energy              =   -2205.49183940 Ry
     estimated scf accuracy    <       0.00080313 Ry

     iteration #  2     ecut=    80.00 Ry     beta= 0.70
     Davidson diagonalization with overlap
     ethr =  2.62E-07,  avg # of iterations = 17.0

     negative rho (up, down):  9.526E-05 0.000E+00

     total cpu time spent up to now is      121.0 secs

     total energy              =   -2205.49190913 Ry
     estimated scf accuracy    <       0.00017263 Ry

     iteration #  3     ecut=    80.00 Ry     beta= 0.70
     Davidson diagonalization with overlap
     ethr =  5.62E-08,  avg # of iterations =  2.0

     negative rho (up, down):  8.675E-05 0.000E+00

     total cpu time spent up to now is      134.7 secs

     total energy              =   -2205.49192698 Ry
     estimated scf accuracy    <       0.00004199 Ry

     iteration #  4     ecut=    80.00 Ry     beta= 0.70
     Davidson diagonalization with overlap
     ethr =  1.37E-08,  avg # of iterations =  5.0

     negative rho (up, down):  8.656E-05 0.000E+00

     total cpu time spent up to now is      155.6 secs

     total energy              =   -2205.49193806 Ry
     estimated scf accuracy    <       0.00000367 Ry

     iteration #  5     ecut=    80.00 Ry     beta= 0.70
     Davidson diagonalization with overlap
     ethr =  1.20E-09,  avg # of iterations =  4.0

     negative rho (up, down):  8.919E-05 0.000E+00

     total cpu time spent up to now is      171.9 secs

     total energy              =   -2205.49193925 Ry
     estimated scf accuracy    <       0.00000115 Ry

     iteration #  6     ecut=    80.00 Ry     beta= 0.70
     Davidson diagonalization with overlap
     ethr =  3.74E-10,  avg # of iterations =  2.0

     negative rho (up, down):  1.367E-04 0.000E+00

     total cpu time spent up to now is      174.0 secs

     End of self-consistent calculation

          k = 0.0000 0.0000 0.0000 (105382 PWs)   bands (ev):

   -62.9518 -62.9426 -62.9273 -62.9240 -62.9023 -62.8923 -62.8881 -62.8780
   -62.8688 -62.8502 -62.8297 -62.8280 -37.3127 -37.2456 -37.2114 -37.2032
   -37.1933 -37.1680 -37.1551 -37.1438 -37.1296 -37.1261 -37.1216 -37.1063
   -37.1010 -37.0968 -37.0873 -37.0721 -37.0698 -37.0659 -37.0601 -37.0556
   -37.0532 -37.0432 -37.0228 -37.0147 -37.0051 -36.9925 -36.9848 -36.9813
   -36.9660 -36.9434 -36.9307 -36.9063 -36.8929 -36.8671 -36.8313 -36.8233
   -16.0303 -15.2553 -15.1844 -15.0333 -14.9515 -14.8686 -14.5806 -14.5374
   -14.4860 -14.4657 -14.4402 -14.3967 -14.3852 -14.3515 -14.2002 -14.1802
   -14.1655 -14.1499 -14.0848 -13.9210 -13.9092 -13.8904 -13.8518  -7.7268
    -7.5522  -7.3471  -7.3450  -7.3060  -7.2639  -7.2513  -7.1882  -6.9577
    -6.8810  -6.8148  -6.7892  -6.7663  -6.6027  -6.5476  -6.4973  -6.4489
    -6.3321  -6.3141  -6.0294  -6.0073  -5.9496  -5.9229  -5.8808  -5.8178
    -5.8052  -5.7577  -5.7181  -5.7156  -5.6728  -5.5883  -5.5762  -5.5102
    -5.4813  -5.4208  -5.2012  -5.1992  -5.1020  -5.0559  -5.0495  -4.9857
    -4.9603  -4.8965  -4.7486  -4.6053  -4.3815  -4.3606  -4.3299  -4.2936
    -4.2803  -4.1454  -4.0629  -3.8744  -3.8678  -3.8207  -3.7719  -3.7270
    -3.7051  -3.6221  -3.5833  -3.5630  -3.5283  -3.5164  -3.4770  -3.4349
    -3.4153  -3.2494  -3.1631  -2.9757  -2.9339  -2.8898  -2.8344  -2.7826
    -2.7654  -2.7171  -2.7052  -2.6903  -2.6480  -2.4180  -2.1047  -2.0477
    -2.0239  -1.1646  -0.8647  -0.8066  -0.2312  -0.2035  -0.1573  -0.1044
    -0.0004   0.0749   0.1086   0.1718   0.1991   0.2341   0.3054   0.3544
     0.4077   0.4787   0.4855   0.5062   0.5346   0.6122   0.6680   0.6756
     0.6976   0.7545   0.7729   0.8194   0.8670   0.9131   0.9397   1.0016
     1.3489

     the Fermi energy is    -1.1648 ev

!    total energy              =   -2205.49193907 Ry
     estimated scf accuracy    <       0.00000020 Ry
     smearing contrib. (-TS)   =      -0.00569087 Ry
     internal energy E=F+TS    =   -2205.48624821 Ry

     The total energy is F=E-TS. E is the sum of the following terms:
     one-electron contribution =  -18040.11053756 Ry
     hartree contribution      =    9006.22200687 Ry
     xc contribution           =    -385.12912929 Ry
     ewald contribution        =    7213.53141178 Ry

     convergence has been achieved in   6 iterations

     negative rho (up, down):  1.367E-04 0.000E+00

     Forces acting on atoms (cartesian axes, Ry/au):

     atom    1 type  1   force =     0.00358329   -0.01291905    0.00003209
     atom    2 type  2   force =    -0.00897326    0.01041089   -0.00159114
     atom    3 type  2   force =    -0.01031453    0.00755835   -0.00924775
     atom    4 type  1   force =     0.00457922    0.00258798    0.00070419
     atom    5 type  2   force =     0.00051076   -0.00540669   -0.00607542
     atom    6 type  2   force =     0.00131373    0.00633033    0.00232351
     atom    7 type  1   force =     0.00788960   -0.01177894   -0.00248419
     atom    8 type  2   force =     0.00192680   -0.00355317    0.01258698
     atom    9 type  2   force =     0.01105452    0.00515232    0.00665245
     atom   10 type  1   force =    -0.00513428    0.00717523   -0.00964249
     atom   11 type  2   force =     0.00673409    0.00014979   -0.01071709
     atom   12 type  2   force =    -0.00452403   -0.00055672    0.00161721
     atom   13 type  1   force =     0.00344471    0.00296650   -0.00241805
     atom   14 type  2   force =     0.00602193    0.00005081    0.00929609
     atom   15 type  2   force =    -0.00844746    0.00202910   -0.00686847
     atom   16 type  1   force =     0.00410119    0.00387406    0.00084333
     atom   17 type  2   force =     0.00624449    0.00044412    0.00036661
     atom   18 type  2   force =    -0.00358360   -0.00365156    0.01060799
     atom   19 type  1   force =     0.00260230   -0.00984621    0.01265938
     atom   20 type  2   force =     0.00242536   -0.00432694   -0.00038453
     atom   21 type  1   force =    -0.00677093    0.00028915    0.00780733
     atom   22 type  2   force =     0.00106224   -0.00322965    0.01358942
     atom   23 type  2   force =     0.00165752   -0.00130277    0.00760997
     atom   24 type  1   force =    -0.00567885   -0.00184831   -0.00870641
     atom   25 type  2   force =     0.01175236    0.01300698    0.00011506
     atom   26 type  2   force =    -0.00727045   -0.00063864   -0.00522429
     atom   27 type  1   force =    -0.00222988    0.00127908    0.00674544
     atom   28 type  2   force =     0.00042384   -0.00214099   -0.00589075
     atom   29 type  2   force =     0.00230799    0.00104646   -0.00364534
     atom   30 type  1   force =    -0.00266941    0.00260018    0.00197412
     atom   31 type  2   force =    -0.00568920    0.00011721    0.01143322
     atom   32 type  2   force =    -0.00555841    0.00557040    0.00755485
     atom   33 type  1   force =     0.00431728    0.00069130   -0.00455892
     atom   34 type  2   force =     0.00085172   -0.03045392   -0.01420514
     atom   35 type  2   force =    -0.00731851    0.00716456    0.00734769
     atom   36 type  3   force =    -0.00064217    0.01115875   -0.03020698
     The non-local contrib.  to forces
     atom    1 type  1   force =     0.00265621    0.02962410   -0.01166392
     atom    2 type  2   force =    -0.00716567   -0.00217178   -0.27128970
     atom    3 type  2   force =    -0.01233880   -0.00545246    0.26522538
     atom    4 type  1   force =     0.00057605    0.00590355    0.00412842
     atom    5 type  2   force =     0.00692824   -0.03458232   -0.25609667
     atom    6 type  2   force =    -0.00218357    0.00797075    0.26585870
     atom    7 type  1   force =    -0.01421564    0.00016233   -0.02206842
     atom    8 type  2   force =     0.00412689   -0.00318503   -0.25839136
     atom    9 type  2   force =     0.00507145   -0.00863523    0.27415126
     atom   10 type  1   force =     0.00647591    0.00050961    0.00278913
     atom   11 type  2   force =     0.01374073    0.00051071   -0.26506995
     atom   12 type  2   force =    -0.01418676   -0.01808065    0.26294725
     atom   13 type  1   force =    -0.00163904    0.02114309   -0.00768385
     atom   14 type  2   force =     0.00875298   -0.01027947   -0.26591752
     atom   15 type  2   force =    -0.01110088   -0.00728374    0.26227720
     atom   16 type  1   force =    -0.00006928    0.03087107   -0.02518958
     atom   17 type  2   force =     0.00162026   -0.02861468   -0.25124762
     atom   18 type  2   force =    -0.00336595   -0.00134497    0.27238786
     atom   19 type  1   force =     0.00597185   -0.00022344   -0.02698670
     atom   20 type  2   force =    -0.00075006   -0.02076932    0.26396898
     atom   21 type  1   force =     0.00012186    0.02281873    0.00471720
     atom   22 type  2   force =     0.04468902   -0.09447174   -0.22385938
     atom   23 type  2   force =     0.00746361   -0.01813855    0.26818850
     atom   24 type  1   force =     0.00425622    0.01283909   -0.01124479
     atom   25 type  2   force =     0.00646015    0.00184467   -0.26632503
     atom   26 type  2   force =    -0.00032465   -0.01176244    0.26257325
     atom   27 type  1   force =    -0.00385306    0.00628641    0.00808897
     atom   28 type  2   force =    -0.00320201   -0.02259773   -0.27480205
     atom   29 type  2   force =     0.00624648    0.00302261    0.26417312
     atom   30 type  1   force =    -0.00056025    0.01761564    0.00488611
     atom   31 type  2   force =    -0.00731672   -0.00825219   -0.26126925
     atom   32 type  2   force =     0.00163090   -0.00874828    0.27416646
     atom   33 type  1   force =     0.00311279    0.00479627    0.00876093
     atom   34 type  2   force =    -0.00782544   -0.02638363   -0.27363148
     atom   35 type  2   force =    -0.00013826   -0.01216601    0.26405992
     atom   36 type  3   force =    -0.00169030    0.00380911   -0.00568483
     The ionic contribution  to forces
     atom    1 type  1   force =     0.15003506    0.53065231    5.77032963
     atom    2 type  2   force =    -0.44573481    0.30916583   39.36638946
     atom    3 type  2   force =    -0.15266342    0.04749443  -36.20813900
     atom    4 type  1   force =     0.12193055    0.36531018    0.64048968
     atom    5 type  2   force =    -0.89983719    1.35933675   38.65061019
     atom    6 type  2   force =     0.32424848   -0.59626961  -37.96089598
     atom    7 type  1   force =    -2.44059282   -2.52553270    2.08454480
     atom    8 type  2   force =    -0.89342187    0.00425822   37.48011365
     atom    9 type  2   force =     0.36889646   -0.07939756  -38.03784719
     atom   10 type  1   force =    -0.81391054   -0.25509805    5.26744082
     atom   11 type  2   force =    -0.28427038   -1.44678646   38.95184533
     atom   12 type  2   force =     0.34145993    0.67555824  -37.86167212
     atom   13 type  1   force =     0.43535971    0.92868698    2.74223044
     atom   14 type  2   force =    -0.00189032    0.10087562   38.56870941
     atom   15 type  2   force =     0.17646582   -0.04143923  -36.84893383
     atom   16 type  1   force =     0.01854287    3.48958008    0.28506223
     atom   17 type  2   force =     0.77550280    1.30683297   37.88207225
     atom   18 type  2   force =    -0.16023491   -0.62435939  -38.50709480
     atom   19 type  1   force =     2.55951985   -2.29284269    0.22056607
     atom   20 type  2   force =     0.17319267   -0.16706670  -38.60438386
     atom   21 type  1   force =     0.08220843    0.23659014    1.18964522
     atom   22 type  2   force =     0.15370072   -1.12962020   38.12654687
     atom   23 type  2   force =    -0.04024190    0.60412126  -38.29550710
     atom   24 type  1   force =    -0.34442221    1.02754943    5.56184449
     atom   25 type  2   force =     0.49749447    0.26073480   39.22572243
     atom   26 type  2   force =    -0.24365508    0.10877690  -37.32344222
     atom   27 type  1   force =    -0.05841779    0.20875092   -2.14740301
     atom   28 type  2   force =     0.02797011    0.86209672   38.18215088
     atom   29 type  2   force =    -0.23913371   -0.39119949  -37.29054775
     atom   30 type  1   force =    -0.35463032   -0.94505591   -0.22540691
     atom   31 type  2   force =     0.87693196   -0.18069980   37.24528457
     atom   32 type  2   force =    -0.45474323   -0.03552350  -38.64884154
     atom   33 type  1   force =     0.56604725   -0.55944909    1.75773214
     atom   34 type  2   force =     0.14437911   -1.14136825   39.22463565
     atom   35 type  2   force =    -0.26739327    0.49070420  -37.77813539
     atom   36 type  3   force =     0.30130751   -0.50536736    7.31428449
     The local contribution  to forces
     atom    1 type  1   force =    -0.14873017   -0.57362290   -5.75837803
     atom    2 type  2   force =     0.44370119   -0.29653742  -39.11764335
     atom    3 type  2   force =     0.15409747   -0.03465464   35.95455782
     atom    4 type  1   force =    -0.11786343   -0.36869347   -0.64386732
     atom    5 type  2   force =     0.89414935   -1.33221453  -38.42116480
     atom    6 type  2   force =    -0.32096966    0.59557592   37.71836977
     atom    7 type  1   force =     2.46286782    2.51375357   -2.06506701
     atom    8 type  2   force =     0.89136697   -0.00503926  -37.22979590
     atom    9 type  2   force =    -0.36295108    0.09276723   37.79144948
     atom   10 type  1   force =     0.80222188    0.26191859   -5.27992230
     atom   11 type  2   force =     0.27794638    1.44691112  -38.71866347
     atom   12 type  2   force =    -0.33292368   -0.65944067   37.62126602
     atom   13 type  1   force =    -0.43023473   -0.94706474   -2.73688655
     atom   14 type  2   force =    -0.00028076   -0.09062338  -38.31432367
     atom   15 type  2   force =    -0.17440786    0.05025541   36.60044047
     atom   16 type  1   force =    -0.01412091   -3.51664962   -0.25896192
     atom   17 type  2   force =    -0.77089081   -1.27943025  -37.65085801
     atom   18 type  2   force =     0.15995064    0.62245687   38.26638144
     atom   19 type  1   force =    -2.56280897    2.28345393   -0.18080912
     atom   20 type  2   force =    -0.17002924    0.18279969   38.36127245
     atom   21 type  1   force =    -0.08909276   -0.25908611   -1.18644428
     atom   22 type  2   force =    -0.19502725    1.21684582  -37.90786636
     atom   23 type  2   force =     0.03501777   -0.58856592   38.05599039
     atom   24 type  1   force =     0.33424015   -1.04248074   -5.55929424
     atom   25 type  2   force =    -0.49222375   -0.24933590  -38.98016982
     atom   26 type  2   force =     0.23687969   -0.09835160   37.07656916
     atom   27 type  1   force =     0.05975850   -0.21390166    2.14616662
     atom   28 type  2   force =    -0.02460744   -0.84336592  -37.93429689
     atom   29 type  2   force =     0.23567370    0.38973101   37.04341465
     atom   30 type  1   force =     0.35231676    0.93033974    0.22260270
     atom   31 type  2   force =    -0.87588001    0.18864639  -36.99355861
     atom   32 type  2   force =     0.44784464    0.04938391   38.40338403
     atom   33 type  1   force =    -0.56492670    0.55547504   -1.77098752
     atom   34 type  2   force =    -0.13638377    1.13661379  -38.98633014
     atom   35 type  2   force =     0.26032872   -0.47236945   37.54236989
     atom   36 type  3   force =    -0.30026885    0.51274141   -7.33884515
     The core correction contribution to forces
     atom    1 type  1   force =     0.00000000    0.00000000    0.00000000
     atom    2 type  2   force =     0.00024823   -0.00004885    0.02086982
     atom    3 type  2   force =     0.00055550    0.00016228   -0.02079338
     atom    4 type  1   force =     0.00000000    0.00000000    0.00000000
     atom    5 type  2   force =    -0.00065297    0.00188943    0.02049197
     atom    6 type  2   force =     0.00030020   -0.00102760   -0.02093995
     atom    7 type  1   force =     0.00000000    0.00000000    0.00000000
     atom    8 type  2   force =    -0.00010700    0.00047617    0.02060253
     atom    9 type  2   force =     0.00002442    0.00046957   -0.02098533
     atom   10 type  1   force =     0.00000000    0.00000000    0.00000000
     atom   11 type  2   force =    -0.00059542   -0.00041681    0.02097408
     atom   12 type  2   force =     0.00112734    0.00144123   -0.02082518
     atom   13 type  1   force =     0.00000000    0.00000000    0.00000000
     atom   14 type  2   force =    -0.00053030    0.00007989    0.02079712
     atom   15 type  2   force =     0.00065388    0.00044620   -0.02059680
     atom   16 type  1   force =     0.00000000    0.00000000    0.00000000
     atom   17 type  2   force =     0.00002755    0.00148466    0.02036525
     atom   18 type  2   force =     0.00004684   -0.00052129   -0.02099159
     atom   19 type  1   force =     0.00000000    0.00000000    0.00000000
     atom   20 type  2   force =     0.00010689    0.00081369   -0.02119259
     atom   21 type  1   force =     0.00000000    0.00000000    0.00000000
     atom   22 type  2   force =    -0.00233143    0.00412070    0.01869203
     atom   23 type  2   force =    -0.00052749    0.00135246   -0.02095732
     atom   24 type  1   force =     0.00000000    0.00000000    0.00000000
     atom   25 type  2   force =    -0.00003765   -0.00028792    0.02086204
     atom   26 type  2   force =    -0.00023708    0.00067967   -0.02082964
     atom   27 type  1   force =     0.00000000    0.00000000    0.00000000
     atom   28 type  2   force =     0.00020607    0.00160544    0.02099355
     atom   29 type  2   force =    -0.00051888   -0.00059954   -0.02062772
     atom   30 type  1   force =     0.00000000    0.00000000    0.00000000
     atom   31 type  2   force =     0.00046015    0.00050131    0.02095779
     atom   32 type  2   force =    -0.00035696    0.00050116   -0.02107329
     atom   33 type  1   force =     0.00000000    0.00000000    0.00000000
     atom   34 type  2   force =     0.00066497    0.00078298    0.02105893
     atom   35 type  2   force =    -0.00016976    0.00108289   -0.02083167
     atom   36 type  3   force =     0.00000000    0.00000000    0.00000000
     The Hubbard contrib.    to forces
     atom    1 type  1   force =     0.00000000    0.00000000    0.00000000
     atom    2 type  2   force =     0.00000000    0.00000000    0.00000000
     atom    3 type  2   force =     0.00000000    0.00000000    0.00000000
     atom    4 type  1   force =     0.00000000    0.00000000    0.00000000
     atom    5 type  2   force =     0.00000000    0.00000000    0.00000000
     atom    6 type  2   force =     0.00000000    0.00000000    0.00000000
     atom    7 type  1   force =     0.00000000    0.00000000    0.00000000
     atom    8 type  2   force =     0.00000000    0.00000000    0.00000000
     atom    9 type  2   force =     0.00000000    0.00000000    0.00000000
     atom   10 type  1   force =     0.00000000    0.00000000    0.00000000
     atom   11 type  2   force =     0.00000000    0.00000000    0.00000000
     atom   12 type  2   force =     0.00000000    0.00000000    0.00000000
     atom   13 type  1   force =     0.00000000    0.00000000    0.00000000
     atom   14 type  2   force =     0.00000000    0.00000000    0.00000000
     atom   15 type  2   force =     0.00000000    0.00000000    0.00000000
     atom   16 type  1   force =     0.00000000    0.00000000    0.00000000
     atom   17 type  2   force =     0.00000000    0.00000000    0.00000000
     atom   18 type  2   force =     0.00000000    0.00000000    0.00000000
     atom   19 type  1   force =     0.00000000    0.00000000    0.00000000
     atom   20 type  2   force =     0.00000000    0.00000000    0.00000000
     atom   21 type  1   force =     0.00000000    0.00000000    0.00000000
     atom   22 type  2   force =     0.00000000    0.00000000    0.00000000
     atom   23 type  2   force =     0.00000000    0.00000000    0.00000000
     atom   24 type  1   force =     0.00000000    0.00000000    0.00000000
     atom   25 type  2   force =     0.00000000    0.00000000    0.00000000
     atom   26 type  2   force =     0.00000000    0.00000000    0.00000000
     atom   27 type  1   force =     0.00000000    0.00000000    0.00000000
     atom   28 type  2   force =     0.00000000    0.00000000    0.00000000
     atom   29 type  2   force =     0.00000000    0.00000000    0.00000000
     atom   30 type  1   force =     0.00000000    0.00000000    0.00000000
     atom   31 type  2   force =     0.00000000    0.00000000    0.00000000
     atom   32 type  2   force =     0.00000000    0.00000000    0.00000000
     atom   33 type  1   force =     0.00000000    0.00000000    0.00000000
     atom   34 type  2   force =     0.00000000    0.00000000    0.00000000
     atom   35 type  2   force =     0.00000000    0.00000000    0.00000000
     atom   36 type  3   force =     0.00000000    0.00000000    0.00000000
     The SCF correction term to forces
     atom    1 type  1   force =    -0.00037662    0.00042615   -0.00025607
     atom    2 type  2   force =    -0.00002102    0.00000182    0.00008215
     atom    3 type  2   force =     0.00003590    0.00000744   -0.00009906
     atom    4 type  1   force =    -0.00006276    0.00006643   -0.00004707
     atom    5 type  2   force =    -0.00007549    0.00016269    0.00008339
     atom    6 type  2   force =    -0.00008055    0.00007959   -0.00006952
     atom    7 type  1   force =    -0.00016858   -0.00016343    0.00010595
     atom    8 type  2   force =    -0.00003701   -0.00006455    0.00005756
     atom    9 type  2   force =     0.00001445   -0.00005298   -0.00011626
     atom   10 type  1   force =     0.00007966   -0.00015621    0.00004937
     atom   11 type  2   force =    -0.00008603   -0.00007006    0.00019643
     atom   12 type  2   force =     0.00000032   -0.00003617   -0.00009926
     atom   13 type  1   force =    -0.00004005    0.00019987   -0.00007859
     atom   14 type  2   force =    -0.00002850   -0.00000314    0.00003027
     atom   15 type  2   force =    -0.00005724    0.00004917   -0.00005599
     atom   16 type  1   force =    -0.00025030    0.00007123   -0.00006789
     atom   17 type  2   force =    -0.00001413    0.00017012    0.00003425
     atom   18 type  2   force =     0.00002097    0.00011593   -0.00007540
     atom   19 type  1   force =    -0.00007925   -0.00023531   -0.00011136
     atom   20 type  2   force =    -0.00009374   -0.00010559   -0.00005001
     atom   21 type  1   force =    -0.00000728   -0.00003491   -0.00011130
     atom   22 type  2   force =     0.00003236   -0.00010551    0.00007577
     atom   23 type  2   force =    -0.00005330   -0.00007331   -0.00010499
     atom   24 type  1   force =     0.00024816    0.00024262   -0.00001236
     atom   25 type  2   force =     0.00006031    0.00005005    0.00002495
     atom   26 type  2   force =     0.00006786    0.00001755   -0.00009533
     atom   27 type  1   force =     0.00028364    0.00014212   -0.00010762
     atom   28 type  2   force =     0.00005829    0.00011922    0.00006327
     atom   29 type  2   force =     0.00004157    0.00009058   -0.00005814
     atom   30 type  1   force =     0.00020558   -0.00030059   -0.00010827
     atom   31 type  2   force =     0.00011660   -0.00007981    0.00001823
     atom   32 type  2   force =     0.00006742   -0.00004418   -0.00008128
     atom   33 type  1   force =     0.00008512   -0.00013222   -0.00006496
     atom   34 type  2   force =     0.00001803   -0.00010011    0.00006142
     atom   35 type  2   force =     0.00005523   -0.00008837   -0.00011554
     atom   36 type  3   force =     0.00001065   -0.00002571    0.00003802

     Total force =     0.078132     Total SCF correction =     0.001235
     Energy error            =      9.8E-03 Ry
     Gradient error          =      3.0E-02 Ry/Bohr

     number of scf cycles    =   2
     number of bfgs steps    =   1

     energy             old  =   -2205.4821421426 Ry
     energy             new  =   -2205.4919390743 Ry

     CASE: energy            _new < energy            _old

     new trust radius        =       0.0481284093 bohr
     new conv_thr            =       0.0000000305 Ry


ATOMIC_POSITIONS (angstrom)
Mo            6.5856004953        1.7628571672        2.8271869042
S             8.1616415489        0.8269160937        4.4338458105
S             8.1797610136        0.8219480129        1.2704165872
Mo            8.1008570275        4.4992395458        2.7168276867
S             6.4992891472        3.7158859651        4.3388194845
S             6.5547621571        3.5224880746        1.1233054987
Mo            6.5010889602        7.1996180071        2.6644998188
S             8.0838723301        6.3395998143        4.2611961357
S             8.0951075675        6.3120695751        1.0958630643
Mo            8.1492792798        9.9126260288        2.8197731166
S             6.5039277001        8.9440111188        4.3709443501
S             6.6142949024        9.0484978523        1.1439832229
Mo            3.4265227234        1.7520039088        2.7703971024
S             4.9844005402        0.8170927473        4.3646058549
S             5.0450217679        0.8503547382        1.2160109000
Mo            4.9855265307        4.5200211187        2.6334314334
S             3.4359424457        3.6718702336        4.2801732467
S             3.4328735924        3.5417986833        1.0733877684
Mo            3.4565547497        7.1999228264        2.6460016917
S             4.9872856912        6.3211358928        1.0379315942
Mo            5.0023702209        9.9023196151        2.7537521846
S             3.4730803676        8.9401951790        4.3444407710
S             3.4093456226        9.0655462690        1.1066989191
Mo            0.2860293825        1.7447013446        2.8300349310
S             1.8688956196        0.8119056056        4.4035812592
S             1.8493953594        0.8529089340        1.2044014862
Mo            1.8576431152        4.4979575014        2.6693429884
S             0.2733846203        3.6525346497        4.3303990931
S             0.2343363981        3.5272334530        1.1682812399
Mo            0.2674270686        7.2243606506        2.6987667590
S             1.8959246924        6.3131665641        4.2387407727
S             1.8537981544        6.3181940683        1.0546852965
Mo            1.8522752213        9.9409002510        2.7567189033
S             0.2985797654        9.0436986548        4.4000533550
S             0.2667075467        9.0519618242        1.1649388954
H             4.2025481303        7.2993377745        5.4413234104



     Writing config-only to output data dir ./MoS2-V-O.save/
     NEW-OLD atomic charge density approx. for the potential

     negative rho (up, down):  1.422E-04 0.000E+00

     total cpu time spent up to now is      177.6 secs

     Self-consistent Calculation

     iteration #  1     ecut=    80.00 Ry     beta= 0.70
     Davidson diagonalization with overlap
     ethr =  1.00E-06,  avg # of iterations =  8.0

     negative rho (up, down):  8.295E-05 0.000E+00

     total cpu time spent up to now is      200.4 secs

     total energy              =   -2205.49932533 Ry
     estimated scf accuracy    <       0.00106122 Ry

     iteration #  2     ecut=    80.00 Ry     beta= 0.70
     Davidson diagonalization with overlap
     ethr =  3.46E-07,  avg # of iterations =  5.0

     negative rho (up, down):  8.242E-05 0.000E+00

     total cpu time spent up to now is      212.3 secs

     total energy              =   -2205.49943819 Ry
     estimated scf accuracy    <       0.00021146 Ry

     iteration #  3     ecut=    80.00 Ry     beta= 0.70
     Davidson diagonalization with overlap
     ethr =  6.89E-08,  avg # of iterations =  3.0

     negative rho (up, down):  7.479E-05 0.000E+00

     total cpu time spent up to now is      225.1 secs

     total energy              =   -2205.49946226 Ry
     estimated scf accuracy    <       0.00004322 Ry

     iteration #  4     ecut=    80.00 Ry     beta= 0.70
     Davidson diagonalization with overlap
     ethr =  1.41E-08,  avg # of iterations =  5.0

     negative rho (up, down):  7.330E-05 0.000E+00

     total cpu time spent up to now is      242.1 secs

     total energy              =   -2205.49947195 Ry
     estimated scf accuracy    <       0.00000435 Ry

     iteration #  5     ecut=    80.00 Ry     beta= 0.70
     Davidson diagonalization with overlap
     ethr =  1.42E-09,  avg # of iterations =  6.0

     negative rho (up, down):  7.451E-05 0.000E+00

     total cpu time spent up to now is      260.8 secs

     total energy              =   -2205.49947379 Ry
     estimated scf accuracy    <       0.00000148 Ry

     iteration #  6     ecut=    80.00 Ry     beta= 0.70
     Davidson diagonalization with overlap
     ethr =  4.83E-10,  avg # of iterations =  2.0

     negative rho (up, down):  8.023E-05 0.000E+00

     total cpu time spent up to now is      274.3 secs

     total energy              =   -2205.49947384 Ry
     estimated scf accuracy    <       0.00000044 Ry

     iteration #  7     ecut=    80.00 Ry     beta= 0.70
     Davidson diagonalization with overlap
     ethr =  1.45E-10,  avg # of iterations =  4.0

     negative rho (up, down):  8.615E-05 0.000E+00

     total cpu time spent up to now is      288.2 secs

     total energy              =   -2205.49947389 Ry
     estimated scf accuracy    <       0.00000019 Ry

     iteration #  8     ecut=    80.00 Ry     beta= 0.70
     Davidson diagonalization with overlap
     ethr =  6.26E-11,  avg # of iterations =  2.0

     negative rho (up, down):  1.129E-04 0.000E+00

     total cpu time spent up to now is      301.4 secs

     total energy              =   -2205.49947377 Ry
     estimated scf accuracy    <       0.00000009 Ry

     iteration #  9     ecut=    80.00 Ry     beta= 0.70
     Davidson diagonalization with overlap
     ethr =  2.99E-11,  avg # of iterations =  6.0

     negative rho (up, down):  1.373E-04 0.000E+00

     total cpu time spent up to now is      303.8 secs

     End of self-consistent calculation

          k = 0.0000 0.0000 0.0000 (105382 PWs)   bands (ev):

   -62.9471 -62.9374 -62.9218 -62.9196 -62.8961 -62.8835 -62.8814 -62.8735
   -62.8610 -62.8417 -62.8244 -62.8207 -37.3046 -37.2375 -37.2035 -37.1974
   -37.1861 -37.1611 -37.1501 -37.1383 -37.1249 -37.1210 -37.1147 -37.1020
   -37.0941 -37.0912 -37.0819 -37.0654 -37.0634 -37.0600 -37.0525 -37.0504
   -37.0482 -37.0351 -37.0141 -37.0075 -36.9994 -36.9867 -36.9792 -36.9758
   -36.9592 -36.9371 -36.9249 -36.9005 -36.8876 -36.8615 -36.8245 -36.8174
   -16.0246 -15.2518 -15.1800 -15.0278 -14.9404 -14.8642 -14.5765 -14.5293
   -14.4706 -14.4620 -14.4428 -14.3944 -14.3760 -14.3466 -14.1917 -14.1764
   -14.1619 -14.1487 -14.0804 -13.9173 -13.9027 -13.8897 -13.8452  -7.7234
    -7.5474  -7.3435  -7.3426  -7.2928  -7.2627  -7.2472  -7.1853  -6.9593
    -6.8748  -6.8112  -6.7868  -6.7612  -6.5990  -6.5462  -6.4926  -6.4358
    -6.3297  -6.3137  -6.0226  -6.0138  -5.9447  -5.9162  -5.8718  -5.8159
    -5.8023  -5.7482  -5.7100  -5.7033  -5.6760  -5.5925  -5.5675  -5.5054
    -5.4643  -5.4071  -5.2017  -5.1894  -5.0882  -5.0531  -5.0353  -4.9873
    -4.9648  -4.8957  -4.7398  -4.6025  -4.3787  -4.3484  -4.3415  -4.2851
    -4.2726  -4.1464  -4.0613  -3.8684  -3.8649  -3.8124  -3.7566  -3.7168
    -3.7088  -3.6096  -3.5827  -3.5634  -3.5274  -3.5108  -3.4727  -3.4311
    -3.4114  -3.2517  -3.1599  -2.9642  -2.9279  -2.8805  -2.8312  -2.7850
    -2.7614  -2.7185  -2.7017  -2.6853  -2.6401  -2.4147  -2.1024  -2.0432
    -2.0303  -1.1674  -0.8473  -0.7942  -0.2237  -0.2061  -0.1462  -0.0955
     0.0258   0.0794   0.1046   0.1747   0.2136   0.2535   0.3159   0.3611
     0.4133   0.4855   0.4970   0.5139   0.5403   0.6181   0.6594   0.6762
     0.7032   0.7501   0.7939   0.8297   0.8735   0.9221   0.9422   1.0005
     1.3588

     the Fermi energy is    -1.1675 ev

!    total energy              =   -2205.49947374 Ry
     estimated scf accuracy    <       0.00000002 Ry
     smearing contrib. (-TS)   =      -0.00566710 Ry
     internal energy E=F+TS    =   -2205.49380664 Ry

     The total energy is F=E-TS. E is the sum of the following terms:
     one-electron contribution =  -18042.07071968 Ry
     hartree contribution      =    9007.24953787 Ry
     xc contribution           =    -385.13372878 Ry
     ewald contribution        =    7214.46110395 Ry

     convergence has been achieved in   9 iterations

     negative rho (up, down):  1.373E-04 0.000E+00

     Forces acting on atoms (cartesian axes, Ry/au):

     atom    1 type  1   force =    -0.00348447   -0.00276508   -0.00416874
     atom    2 type  2   force =    -0.00417605    0.00526308   -0.00201335
     atom    3 type  2   force =    -0.00838691    0.00534337   -0.01147075
     atom    4 type  1   force =     0.00415487    0.00114748    0.00144102
     atom    5 type  2   force =     0.00199868   -0.00520918   -0.00474299
     atom    6 type  2   force =     0.00160386    0.00320370    0.00270144
     atom    7 type  1   force =     0.00585738   -0.00670230    0.00087962
     atom    8 type  2   force =     0.00174879   -0.00406044    0.00935351
     atom    9 type  2   force =     0.00966066    0.00352523    0.00252654
     atom   10 type  1   force =    -0.00107163    0.00542257   -0.00049331
     atom   11 type  2   force =     0.00588331   -0.00078837   -0.01000673
     atom   12 type  2   force =    -0.00618593   -0.00098214    0.00055410
     atom   13 type  1   force =     0.00211921    0.00092845    0.00001996
     atom   14 type  2   force =     0.00360156    0.00002483    0.00607270
     atom   15 type  2   force =    -0.00586481   -0.00037010   -0.00382882
     atom   16 type  1   force =     0.00326461    0.00142693    0.00105090
     atom   17 type  2   force =     0.00550448    0.00092164    0.00087651
     atom   18 type  2   force =    -0.00273055   -0.00092189    0.00788812
     atom   19 type  1   force =     0.00293463   -0.00497500    0.01222394
     atom   20 type  2   force =     0.00111547   -0.00328279   -0.00039313
     atom   21 type  1   force =    -0.00435348    0.00005990    0.00577338
     atom   22 type  2   force =     0.00051190   -0.00340032    0.01213789
     atom   23 type  2   force =     0.00248788   -0.00383577    0.00720468
     atom   24 type  1   force =    -0.00292539   -0.00084037   -0.00226921
     atom   25 type  2   force =     0.00676184    0.00881265   -0.00393986
     atom   26 type  2   force =    -0.00378496   -0.00019161   -0.00487758
     atom   27 type  1   force =    -0.00157606    0.00050223    0.00495944
     atom   28 type  2   force =    -0.00020337   -0.00297573   -0.00451706
     atom   29 type  2   force =     0.00207207    0.00229034   -0.00345578
     atom   30 type  1   force =    -0.00193541   -0.00172942    0.00498304
     atom   31 type  2   force =    -0.00602988   -0.00079627    0.00917022
     atom   32 type  2   force =    -0.00285780    0.00417301    0.00747214
     atom   33 type  1   force =     0.00145017    0.00052222    0.00362992
     atom   34 type  2   force =    -0.00071600   -0.01842281   -0.01442377
     atom   35 type  2   force =    -0.00519350    0.00658559    0.00242057
     atom   36 type  3   force =    -0.00125518    0.01209636   -0.03273860
     The non-local contrib.  to forces
     atom    1 type  1   force =     0.00380337    0.02682566   -0.01154139
     atom    2 type  2   force =    -0.00378085   -0.00595464   -0.26990771
     atom    3 type  2   force =    -0.00974543   -0.00771543    0.26223088
     atom    4 type  1   force =     0.00088339    0.00744837    0.00376447
     atom    5 type  2   force =     0.00801594   -0.03471283   -0.25624479
     atom    6 type  2   force =    -0.00203128    0.00490309    0.26707801
     atom    7 type  1   force =    -0.01441679   -0.00034822   -0.02212827
     atom    8 type  2   force =     0.00470707   -0.00338279   -0.25968839
     atom    9 type  2   force =     0.00349157   -0.00985969    0.27086152
     atom   10 type  1   force =     0.00562793    0.00093556    0.00282902
     atom   11 type  2   force =     0.01209595   -0.00099044   -0.26493968
     atom   12 type  2   force =    -0.01450035   -0.01874337    0.26355104
     atom   13 type  1   force =    -0.00093286    0.02217293   -0.00753849
     atom   14 type  2   force =     0.00646229   -0.01041327   -0.26728107
     atom   15 type  2   force =    -0.00897641   -0.00909141    0.26347466
     atom   16 type  1   force =    -0.00038483    0.03212621   -0.02550899
     atom   17 type  2   force =     0.00071776   -0.02730701   -0.25145427
     atom   18 type  2   force =    -0.00247891    0.00058363    0.27100437
     atom   19 type  1   force =     0.00737432   -0.00021259   -0.02861135
     atom   20 type  2   force =    -0.00120551   -0.01948011    0.26339671
     atom   21 type  1   force =    -0.00087685    0.02252924    0.00384399
     atom   22 type  2   force =     0.04996447   -0.10231924   -0.22416448
     atom   23 type  2   force =     0.00707775   -0.01999042    0.26819307
     atom   24 type  1   force =     0.00277357    0.01316055   -0.01036259
     atom   25 type  2   force =     0.00274555   -0.00155910   -0.26889558
     atom   26 type  2   force =     0.00204405   -0.01094281    0.26295910
     atom   27 type  1   force =    -0.00418378    0.00601632    0.00732645
     atom   28 type  2   force =    -0.00329661   -0.02233014   -0.27441865
     atom   29 type  2   force =     0.00579959    0.00258641    0.26511443
     atom   30 type  1   force =    -0.00116804    0.01863726    0.00457983
     atom   31 type  2   force =    -0.00676593   -0.00947671   -0.26224192
     atom   32 type  2   force =     0.00362696   -0.00965641    0.27403207
     atom   33 type  1   force =     0.00376828    0.00467624    0.00823076
     atom   34 type  2   force =    -0.00968478   -0.01720129   -0.27447129
     atom   35 type  2   force =     0.00130289   -0.01227150    0.26168108
     atom   36 type  3   force =    -0.00188635    0.00415644   -0.00608782
     The ionic contribution  to forces
     atom    1 type  1   force =    -0.05288417    0.73490064    5.71963588
     atom    2 type  2   force =    -0.28738314    0.21230092   39.42443597
     atom    3 type  2   force =    -0.13111757    0.04697592  -36.35927196
     atom    4 type  1   force =     0.08108040    0.25317250    0.64528588
     atom    5 type  2   force =    -0.89397131    1.32497399   38.57399860
     atom    6 type  2   force =     0.30053625   -0.64134035  -37.90914706
     atom    7 type  1   force =    -2.56711266   -2.27851335    1.94867303
     atom    8 type  2   force =    -0.91205173    0.01652963   37.62331289
     atom    9 type  2   force =     0.36898471   -0.09592170  -38.06543265
     atom   10 type  1   force =    -0.66050507   -0.27540749    5.00336734
     atom   11 type  2   force =    -0.25563910   -1.46433980   38.84320058
[...]
     atom   27 type  1   force =    -0.00335607    0.00710154    0.00136693
     atom   28 type  2   force =    -0.00111739   -0.01263216   -0.26920637
     atom   29 type  2   force =     0.00047087   -0.00775918    0.26822347
     atom   30 type  1   force =     0.00035487    0.02095307   -0.00180869
     atom   31 type  2   force =    -0.00784852   -0.00068165   -0.26400647
     atom   32 type  2   force =     0.00565566   -0.01214870    0.26706495
     atom   33 type  1   force =    -0.00205311    0.00947742    0.00213966
     atom   34 type  2   force =    -0.00064938   -0.01115697   -0.27070659
     atom   35 type  2   force =     0.00121995   -0.01302736    0.26692356
     atom   36 type  3   force =     0.00023633    0.00087968   -0.01742545
     The ionic contribution  to forces
     atom    1 type  1   force =    -0.09180730    0.45693430    2.43664113
     atom    2 type  2   force =    -0.13347161    0.06938115   38.93165615
     atom    3 type  2   force =     0.08428579   -0.07517160  -37.53801140
     atom    4 type  1   force =    -0.20829562    0.54777626    1.34461611
     atom    5 type  2   force =    -0.76128960    1.14871409   38.61451155
     atom    6 type  2   force =     0.21777881   -0.17960280  -38.08001311
     atom    7 type  1   force =    -2.10407798   -1.74843109    2.53583469
     atom    8 type  2   force =    -1.10956518    0.03531609   38.49806633
     atom    9 type  2   force =     0.21136698   -0.02254680  -37.72043643
     atom   10 type  1   force =    -0.26483805   -0.34364181    2.99920860
     atom   11 type  2   force =    -0.49840896   -1.27267880   38.79017240
     atom   12 type  2   force =     0.18303187    0.19993014  -37.97351203
     atom   13 type  1   force =     0.02537826    0.54678167    2.07188031
     atom   14 type  2   force =    -0.01367340   -0.05407996   38.61638635
     atom   15 type  2   force =     0.02354632   -0.10943706  -37.64618804
     atom   16 type  1   force =    -0.17321716    3.09148338    1.15132960
     atom   17 type  2   force =     0.71603590    1.17193090   38.44384726
     atom   18 type  2   force =    -0.18949096   -0.14833588  -38.07286767
     atom   19 type  1   force =     2.10042044   -1.95310924    1.77213171
     atom   20 type  2   force =    -0.01180983   -0.07763954  -38.51079376
     atom   21 type  1   force =     0.05258584   -0.27523626    0.91234645
     atom   22 type  2   force =     0.46305443   -1.28570639   38.76377650
     atom   23 type  2   force =    -0.14759733    0.23919051  -38.11954241
     atom   24 type  1   force =     0.00825103    0.36739835    2.23124929
     atom   25 type  2   force =     0.17298634    0.08042719   38.83381598
     atom   26 type  2   force =    -0.08840749   -0.05436988  -37.60145249
     atom   27 type  1   force =     0.33756488    0.54949631    0.92126496
     atom   28 type  2   force =     0.05585875    0.45751751   38.38378801
     atom   29 type  2   force =     0.00110878   -0.04378272  -37.62405377
     atom   30 type  1   force =     0.00234267   -0.58574690    2.71978373
     atom   31 type  2   force =     1.17861320    0.00327284   38.38654902
     atom   32 type  2   force =    -0.23476704   -0.05583013  -37.82221820
     atom   33 type  1   force =     0.22188829   -0.30066525    2.60410709
     atom   34 type  2   force =     0.01944091   -0.39725064   38.92813994
     atom   35 type  2   force =    -0.03106601    0.08937226  -37.43855852
     atom   36 type  3   force =    -0.01375598   -0.07166021    5.25654467
     The local contribution  to forces
     atom    1 type  1   force =     0.09210094   -0.47862096   -2.43225401
     atom    2 type  2   force =     0.13523142   -0.05740462  -38.68639648
     atom    3 type  2   force =    -0.08170690    0.08609232   37.29173940
     atom    4 type  1   force =     0.20448351   -0.55408492   -1.34607498
     atom    5 type  2   force =     0.75844983   -1.12988867  -38.37808104
     atom    6 type  2   force =    -0.21545402    0.18682343   37.83528569
     atom    7 type  1   force =     2.09820808    1.73689014   -2.52336479
     atom    8 type  2   force =     1.10227905   -0.03574598  -38.25416692
     atom    9 type  2   force =    -0.20774189    0.03397453   37.47356325
     atom   10 type  1   force =     0.26303914    0.33332863   -3.00154393
     atom   11 type  2   force =     0.49315243    1.27685483  -38.55080483
     atom   12 type  2   force =    -0.17752356   -0.18684192   37.73000025
     atom   13 type  1   force =    -0.02421398   -0.56840956   -2.06720356
     atom   14 type  2   force =     0.01342597    0.06415312  -38.36895129
     atom   15 type  2   force =    -0.02295358    0.12091036   37.40270596
     atom   16 type  1   force =     0.17415657   -3.10336471   -1.13399567
     atom   17 type  2   force =    -0.71313375   -1.15359999  -38.20779252
     atom   18 type  2   force =     0.18648002    0.15476266   37.82737606
     atom   19 type  1   force =    -2.09604693    1.94264812   -1.76240672
     atom   20 type  2   force =     0.01227766    0.09055714   38.26840600
     atom   21 type  1   force =    -0.05183640    0.25168359   -0.91614312
     atom   22 type  2   force =    -0.45801178    1.28866523  -38.52446836
     atom   23 type  2   force =     0.14336382   -0.22610437   37.87663810
     atom   24 type  1   force =    -0.00794039   -0.38347192   -2.23046068
     atom   25 type  2   force =    -0.17414916   -0.06827945  -38.58750810
     atom   26 type  2   force =     0.08573089    0.06524339   37.35490575
     atom   27 type  1   force =    -0.33440900   -0.55654479   -0.92215513
     atom   28 type  2   force =    -0.05543966   -0.44468153  -38.13527911
     atom   29 type  2   force =    -0.00169922    0.05135534   37.37667430
     atom   30 type  1   force =    -0.00277999    0.56515453   -2.71846006
     atom   31 type  2   force =    -1.17059723   -0.00337455  -38.14288394
     atom   32 type  2   force =     0.23008112    0.06621778   37.57539554
     atom   33 type  1   force =    -0.21925782    0.29141360   -2.60623129
     atom   34 type  2   force =    -0.01873001    0.40716372  -38.67779105
     atom   35 type  2   force =     0.03072708   -0.07602788   37.19200828
     atom   36 type  3   force =     0.01422280    0.07127321   -5.23905517
     The core correction contribution to forces
     atom    1 type  1   force =     0.00000000    0.00000000    0.00000000
     atom    2 type  2   force =     0.00005997    0.00062305    0.02085620
     atom    3 type  2   force =     0.00011146    0.00051652   -0.02090603
     atom    4 type  1   force =     0.00000000    0.00000000    0.00000000
     atom    5 type  2   force =    -0.00030058    0.00083119    0.02048316
     atom    6 type  2   force =     0.00037161   -0.00005400   -0.02089725
     atom    7 type  1   force =     0.00000000    0.00000000    0.00000000
     atom    8 type  2   force =    -0.00043346    0.00013318    0.02077096
     atom    9 type  2   force =     0.00043634    0.00055960   -0.02085352
     atom   10 type  1   force =     0.00000000    0.00000000    0.00000000
     atom   11 type  2   force =    -0.00019567   -0.00000616    0.02060310
     atom   12 type  2   force =     0.00048153    0.00089427   -0.02089161
     atom   13 type  1   force =     0.00000000    0.00000000    0.00000000
     atom   14 type  2   force =    -0.00007495    0.00021586    0.02089909
     atom   15 type  2   force =     0.00005743    0.00062044   -0.02071469
     atom   16 type  1   force =     0.00000000    0.00000000    0.00000000
     atom   17 type  2   force =     0.00035985    0.00084700    0.02042375
     atom   18 type  2   force =    -0.00029416   -0.00002332   -0.02089457
     atom   19 type  1   force =     0.00000000    0.00000000    0.00000000
     atom   20 type  2   force =     0.00004428    0.00059435   -0.02087577
     atom   21 type  1   force =     0.00000000    0.00000000    0.00000000
     atom   22 type  2   force =     0.00016926   -0.00011967    0.02063619
     atom   23 type  2   force =    -0.00047648    0.00094054   -0.02087523
     atom   24 type  1   force =     0.00000000    0.00000000    0.00000000
     atom   25 type  2   force =     0.00000865    0.00057271    0.02084066
     atom   26 type  2   force =    -0.00015880    0.00054894   -0.02091155
     atom   27 type  1   force =     0.00000000    0.00000000    0.00000000
     atom   28 type  2   force =     0.00008134    0.00078499    0.02093059
     atom   29 type  2   force =    -0.00003016    0.00021184   -0.02084305
     atom   30 type  1   force =     0.00000000    0.00000000    0.00000000
     atom   31 type  2   force =     0.00050750    0.00015025    0.02076685
     atom   32 type  2   force =    -0.00051779    0.00062121   -0.02087570
     atom   33 type  1   force =     0.00000000    0.00000000    0.00000000
     atom   34 type  2   force =     0.00004505    0.00050628    0.02106180
     atom   35 type  2   force =    -0.00008210    0.00068260   -0.02089562
     atom   36 type  3   force =     0.00000000    0.00000000    0.00000000
     The Hubbard contrib.    to forces
     atom    1 type  1   force =     0.00000000    0.00000000    0.00000000
     atom    2 type  2   force =     0.00000000    0.00000000    0.00000000
     atom    3 type  2   force =     0.00000000    0.00000000    0.00000000
     atom    4 type  1   force =     0.00000000    0.00000000    0.00000000
     atom    5 type  2   force =     0.00000000    0.00000000    0.00000000
     atom    6 type  2   force =     0.00000000    0.00000000    0.00000000
     atom    7 type  1   force =     0.00000000    0.00000000    0.00000000
     atom    8 type  2   force =     0.00000000    0.00000000    0.00000000
     atom    9 type  2   force =     0.00000000    0.00000000    0.00000000
     atom   10 type  1   force =     0.00000000    0.00000000    0.00000000
     atom   11 type  2   force =     0.00000000    0.00000000    0.00000000
     atom   12 type  2   force =     0.00000000    0.00000000    0.00000000
     atom   13 type  1   force =     0.00000000    0.00000000    0.00000000
     atom   14 type  2   force =     0.00000000    0.00000000    0.00000000
     atom   15 type  2   force =     0.00000000    0.00000000    0.00000000
     atom   16 type  1   force =     0.00000000    0.00000000    0.00000000
     atom   17 type  2   force =     0.00000000    0.00000000    0.00000000
     atom   18 type  2   force =     0.00000000    0.00000000    0.00000000
     atom   19 type  1   force =     0.00000000    0.00000000    0.00000000
     atom   20 type  2   force =     0.00000000    0.00000000    0.00000000
     atom   21 type  1   force =     0.00000000    0.00000000    0.00000000
     atom   22 type  2   force =     0.00000000    0.00000000    0.00000000
     atom   23 type  2   force =     0.00000000    0.00000000    0.00000000
     atom   24 type  1   force =     0.00000000    0.00000000    0.00000000
     atom   25 type  2   force =     0.00000000    0.00000000    0.00000000
     atom   26 type  2   force =     0.00000000    0.00000000    0.00000000
     atom   27 type  1   force =     0.00000000    0.00000000    0.00000000
     atom   28 type  2   force =     0.00000000    0.00000000    0.00000000
     atom   29 type  2   force =     0.00000000    0.00000000    0.00000000
     atom   30 type  1   force =     0.00000000    0.00000000    0.00000000
     atom   31 type  2   force =     0.00000000    0.00000000    0.00000000
     atom   32 type  2   force =     0.00000000    0.00000000    0.00000000
     atom   33 type  1   force =     0.00000000    0.00000000    0.00000000
     atom   34 type  2   force =     0.00000000    0.00000000    0.00000000
     atom   35 type  2   force =     0.00000000    0.00000000    0.00000000
     atom   36 type  3   force =     0.00000000    0.00000000    0.00000000
     The SCF correction term to forces
     atom    1 type  1   force =     0.00000355    0.00001577   -0.00000880
     atom    2 type  2   force =    -0.00000625   -0.00000081   -0.00001525
     atom    3 type  2   force =    -0.00000686   -0.00000196    0.00000809
     atom    4 type  1   force =    -0.00002740   -0.00001144    0.00001635
     atom    5 type  2   force =     0.00000043    0.00001166   -0.00001598
     atom    6 type  2   force =    -0.00001110    0.00000172    0.00001885
     atom    7 type  1   force =    -0.00000816   -0.00004997    0.00001977
     atom    8 type  2   force =     0.00000302   -0.00001429    0.00000741
     atom    9 type  2   force =     0.00001335   -0.00001081    0.00000197
     atom   10 type  1   force =     0.00001905    0.00002996   -0.00000610
     atom   11 type  2   force =     0.00000276    0.00000815    0.00001105
     atom   12 type  2   force =     0.00000023    0.00002289   -0.00001280
     atom   13 type  1   force =     0.00002002    0.00001325   -0.00003006
     atom   14 type  2   force =     0.00001119    0.00000067   -0.00000878
     atom   15 type  2   force =     0.00000230   -0.00000081   -0.00000441
     atom   16 type  1   force =     0.00001699   -0.00002444   -0.00000584
     atom   17 type  2   force =     0.00001850    0.00001316   -0.00000707
     atom   18 type  2   force =     0.00001267    0.00000240   -0.00000486
     atom   19 type  1   force =     0.00000320   -0.00000019    0.00001103
     atom   20 type  2   force =    -0.00000813   -0.00002168   -0.00000069
     atom   21 type  1   force =    -0.00000790    0.00003150   -0.00001392
     atom   22 type  2   force =     0.00000032   -0.00000460    0.00000241
     atom   23 type  2   force =    -0.00000556    0.00001019   -0.00000913
     atom   24 type  1   force =    -0.00002854    0.00000477   -0.00001084
     atom   25 type  2   force =    -0.00000432   -0.00000339    0.00000073
     atom   26 type  2   force =     0.00000102   -0.00000661   -0.00001422
     atom   27 type  1   force =    -0.00000972    0.00000354   -0.00001441
     atom   28 type  2   force =    -0.00001217    0.00001207   -0.00000145
     atom   29 type  2   force =     0.00000011    0.00000129    0.00000052
     atom   30 type  1   force =     0.00001513   -0.00000409   -0.00000269
     atom   31 type  2   force =    -0.00000766    0.00000259    0.00000763
     atom   32 type  2   force =    -0.00000702   -0.00000013   -0.00000924
     atom   33 type  1   force =     0.00000227   -0.00001081   -0.00002605
     atom   34 type  2   force =    -0.00000482   -0.00000756   -0.00000425
     atom   35 type  2   force =     0.00000401    0.00000243    0.00000172
     atom   36 type  3   force =    -0.00000162   -0.00000414    0.00000174

     Total force =     0.005737     Total SCF correction =     0.000132
     Energy error            =      7.6E-05 Ry
     Gradient error          =      1.5E-03 Ry/Bohr

     bfgs converged in  35 scf cycles and  34 bfgs steps
     (criteria: energy <  1.0E-04 Ry, force <  1.0E-02 Ry/Bohr)

     End of BFGS Geometry Optimization

     Final energy             =   -2205.7085256242 Ry

     File ./MoS2-V-O.bfgs deleted, as requested
Begin final coordinates

ATOMIC_POSITIONS (angstrom)
Mo            6.5414681697        1.7840517117        2.8126004340
S             8.1117214480        0.8780178993        4.4212710250
S             8.1184350495        0.8663452941        1.2282461548
Mo            8.1110888532        4.5147375139        2.7833871434
S             6.5148974009        3.6633551075        4.3757411910
S             6.5557875975        3.5852904967        1.1708360701
Mo            6.5116077015        7.2294025506        2.7408465280
S             8.0678190063        6.3373771483        4.3723471608
S             8.1294538078        6.3459725321        1.1871746472
Mo            8.1115407986        9.9654587029        2.8268450281
S             6.5066437167        9.0058242294        4.3912301263
S             6.5675514856        9.0668559500        1.1827607705
Mo            3.4030418466        1.7851214701        2.8055466273
S             4.9666511232        0.8482694089        4.3930252962
S             4.9739529244        0.8755217702        1.2137704256
Mo            4.9848089374        4.5339066932        2.7160627976
S             3.4441618627        3.6674509115        4.3645060833
S             3.4048611934        3.5908708958        1.1667675430
Mo            3.4343742157        7.2397918823        2.7267384670
S             4.9794093554        6.3444955537        1.1010748646
Mo            4.9695486282        9.9413125461        2.7820161736
S             3.4331882025        9.0055237981        4.3863900811
S             3.3720594816        9.0746161518        1.1746551173
Mo            0.2438745603        1.7705424906        2.8191169163
S             1.8337648541        0.8745141517        4.4124419509
S             1.8211560453        0.8700117799        1.2226932738
Mo            1.8450119878        4.5195299049        2.7748274010
S             0.2550184031        3.6275245793        4.3790641518
S             0.2475619446        3.5903617021        1.2057181768
Mo            0.2446423404        7.2387858199        2.8087074565
S             1.8841215650        6.3413312918        4.3640611611
S             1.8152321580        6.3529942098        1.1778168324
Mo            1.8276205964        9.9645847059        2.8188577449
S             0.2438553203        9.0613809980        4.4154649964
S             0.2362548412        9.0699683103        1.2314239003
H             4.9631640334        6.3357795815        3.7007278188
End final coordinates



     Writing all to output data dir ./MoS2-V-O.save/
 
     init_run     :      3.08s CPU      3.36s WALL (       1 calls)
     electrons    :   3389.53s CPU   3796.76s WALL (      35 calls)
     update_pot   :     48.79s CPU     51.47s WALL (      34 calls)
     forces       :     50.00s CPU     59.10s WALL (      35 calls)

     Called by init_run:
     wfcinit      :      0.39s CPU      0.43s WALL (       1 calls)
     potinit      :      2.02s CPU      2.14s WALL (       1 calls)
     hinit0       :      0.17s CPU      0.18s WALL (       1 calls)

     Called by electrons:
     c_bands      :    411.90s CPU    418.71s WALL (     302 calls)
     sum_band     :     88.00s CPU    123.46s WALL (     302 calls)
     v_of_rho     :    140.12s CPU    174.36s WALL (     332 calls)
     newd         :     48.60s CPU     81.43s WALL (     332 calls)
     mix_rho      :   2716.92s CPU   3015.83s WALL (     302 calls)

     Called by c_bands:
     init_us_2    :      6.36s CPU      6.92s WALL (     605 calls)
     init_us_2:cp :      6.36s CPU      6.91s WALL (     605 calls)
     regterg      :    389.66s CPU    395.86s WALL (     302 calls)

     Called by *egterg:
     rdiaghg      :     33.79s CPU     34.15s WALL (    1908 calls)
     h_psi        :    210.92s CPU    212.84s WALL (    1948 calls)
     s_psi        :     26.58s CPU     26.72s WALL (    1948 calls)
     g_psi        :      2.29s CPU      2.32s WALL (    1645 calls)

     Called by h_psi:
     h_psi:calbec :     30.17s CPU     30.32s WALL (    1948 calls)
     vloc_psi     :    150.48s CPU    152.05s WALL (    1948 calls)
     add_vuspsi   :     26.52s CPU     26.69s WALL (    1948 calls)

     General routines
     calbec       :     42.27s CPU     42.48s WALL (    2390 calls)
     fft          :     88.33s CPU    103.58s WALL (   22286 calls)
     ffts         :   1214.18s CPU   1502.99s WALL (  664760 calls)
     fftw         :    127.94s CPU    129.12s WALL (  189832 calls)
     interpolate  :      2.39s CPU      2.82s WALL (     332 calls)
 
     Parallel routines
 
     PWSCF        :  58m17.84s CPU      1h 5m WALL

 
   This run was terminated on:   7:19:31   4Nov2023            

=------------------------------------------------------------------------------=
   JOB DONE.
=------------------------------------------------------------------------------=
