
     Program PWSCF v.7.2 starts on  4Nov2023 at 11:41: 2 

     This program is part of the open-source Quantum ESPRESSO suite
     for quantum simulation of materials; please cite
         "P. Giannozzi et al., J. Phys.:Condens. Matter 21 395502 (2009);
         "P. Giannozzi et al., J. Phys.:Condens. Matter 29 465901 (2017);
         "P. Giannozzi et al., J. Chem. Phys. 152 154105 (2020);
          URL http://www.quantum-espresso.org", 
     in publications or presentations arising from this work. More details at
     http://www.quantum-espresso.org/quote

     Parallel version (MPI & OpenMP), running on      48 processor cores
     Number of MPI processes:                48
     Threads/MPI process:                     1

     MPI processes distributed on     1 nodes
     17178 MiB available memory on the printing compute node when the environment starts
 
     Waiting for input...
     Reading input from standard input
Warning: card &CELL ignored
Warning: card CELL_DYNAMICS = 'BFGS', ignored
Warning: card CELL_DOFREE = '2DXY' ignored
Warning: card / ignored

     Current dimensions of program PWSCF are:
     Max number of different atomic species (ntypx) = 10
     Max number of k-points (npk) =  40000
     Max angular momentum in pseudopotentials (lmaxx) =  4

     IMPORTANT: XC functional enforced from input :
     Exchange-correlation= RVV10
                           (   1   4  13   4  26   0   0)
     Any further DFT definition will be discarded
     Please, verify this is what you really want


     gamma-point specific algorithms are used
     signal trapping enabled: kill the code with -SIGUSR1 to stop cleanly the simulation 
 
     R & G space division:  proc/nbgrp/npool/nimage =      48
     Subspace diagonalization in iterative solution of the eigenvalue problem:
     one sub-group per band group will be used
     scalapack distributed-memory algorithm (size of sub-group:  2*  2 procs)

 
     Parallelization info
     --------------------
     sticks:   dense  smooth     PW     G-vecs:    dense   smooth      PW
     Min         243     194     47                49060    35090    4376
     Max         246     196     50                49086    35128    4410
     Sum       11735    9389   2349              2355467  1685513  210763
 
     Using Slab Decomposition
 


     bravais-lattice index     =            0
     lattice parameter (alat)  =      17.8707  a.u.
     unit-cell volume          =   17436.2743 (a.u.)^3
     number of atoms/cell      =           36
     number of atomic types    =            3
     number of electrons       =       307.00
     number of Kohn-Sham states=          185
     kinetic-energy cutoff     =      80.0000  Ry
     charge density cutoff     =     400.0000  Ry
     scf convergence threshold =      1.0E-06
     mixing beta               =       0.7000
     number of iterations used =            8  local-TF  mixing
     energy convergence thresh.=      1.0E-04
     force convergence thresh. =      1.0E-02
     Exchange-correlation= RVV10
                           (   1   4  13   4  26   0   0)
     nstep                     =          200


     celldm(1)=  17.870686  celldm(2)=   0.000000  celldm(3)=   0.000000
     celldm(4)=   0.000000  celldm(5)=   0.000000  celldm(6)=   0.000000

     crystal axes: (cart. coord. in units of alat)
               a(1) = (   1.000000   0.000000   0.000000 )  
               a(2) = (   0.000000   1.155671   0.000000 )  
               a(3) = (   0.000000   0.000000   2.643601 )  

     reciprocal axes: (cart. coord. in units 2 pi/alat)
               b(1) = (  1.000000  0.000000  0.000000 )  
               b(2) = (  0.000000  0.865298  0.000000 )  
               b(3) = (  0.000000  0.000000  0.378272 )  


     PseudoPot. # 1 for Mo read from file:
     ../pseudo/Mo_ONCV_PBE-1.0.oncvpsp.upf
     MD5 check sum: 1b5d28e075c9ccadda658a603575cd1f
     Pseudo is Norm-conserving, Zval = 14.0
     Generated using ONCVPSP code by D. R. Hamann
     Using radial grid of 1526 points,  6 beta functions with: 
                l(1) =   0
                l(2) =   0
                l(3) =   1
                l(4) =   1
                l(5) =   2
                l(6) =   2

     PseudoPot. # 2 for S  read from file:
     ../pseudo/s_pbe_v1.4.uspp.F.UPF
     MD5 check sum: 88d86576ff6df21479756cfb9bdac1df
     Pseudo is Ultrasoft + core correction, Zval =  6.0
     Generated by new atomic code, or converted to UPF format
     Using radial grid of  907 points,  6 beta functions with: 
                l(1) =   0
                l(2) =   0
                l(3) =   1
                l(4) =   1
                l(5) =   2
                l(6) =   2
     Q(r) pseudized with  8 coefficients,  rinner =    1.300   1.300   1.300
                                                       1.300   1.300

     PseudoPot. # 3 for H  read from file:
     ../pseudo/H_ONCV_PBE-1.0.oncvpsp.upf
     MD5 check sum: 1790becc920ee074925cf490c71280fe
     Pseudo is Norm-conserving, Zval =  1.0
     Generated using ONCVPSP code by D. R. Hamann
     Using radial grid of 1166 points,  2 beta functions with: 
                l(1) =   0
                l(2) =   0

     atomic species   valence    mass     pseudopotential
        Mo            14.00    95.94000     Mo( 1.00)
        S              6.00    32.06500     S ( 1.00)
        H              1.00     1.00794     H ( 1.00)

     No symmetry found



   Cartesian axes

     site n.     atom                  positions (alat units)
         1           Mo  tau(   1) = (   0.6952221   0.1890506   0.2985846  )
         2           S   tau(   2) = (   0.8646417   0.0856217   0.4689279  )
         3           S   tau(   3) = (   0.8663890   0.0857843   0.1351291  )
         4           Mo  tau(   4) = (   0.8560186   0.4753274   0.2873942  )
         5           S   tau(   5) = (   0.6873294   0.3936244   0.4596353  )
         6           S   tau(   6) = (   0.6929804   0.3713468   0.1185692  )
         7           Mo  tau(   7) = (   0.6862796   0.7633098   0.2825370  )
         8           S   tau(   8) = (   0.8545980   0.6708292   0.4486168  )
         9           S   tau(   9) = (   0.8545123   0.6666874   0.1146125  )
        10           Mo  tau(  10) = (   0.8629403   1.0471007   0.3006803  )
        11           S   tau(  11) = (   0.6868280   0.9456650   0.4634891  )
        12           S   tau(  12) = (   0.6998113   0.9568511   0.1205389  )
        13           Mo  tau(  13) = (   0.3618216   0.1847309   0.2935964  )
        14           S   tau(  14) = (   0.5260962   0.0863870   0.4600448  )
        15           S   tau(  15) = (   0.5348379   0.0894875   0.1297123  )
        16           Mo  tau(  16) = (   0.5265817   0.4772436   0.2784130  )
        17           S   tau(  17) = (   0.3624753   0.3882513   0.4525556  )
        18           S   tau(  18) = (   0.3635411   0.3752055   0.1119148  )
        19           Mo  tau(  19) = (   0.3652268   0.7630864   0.2781795  )
        20           S   tau(  20) = (   0.5269494   0.6690381   0.1096838  )
        21           Mo  tau(  21) = (   0.5300192   1.0470394   0.2900995  )
        22           S   tau(  22) = (   0.3670346   0.9457522   0.4574073  )
        23           S   tau(  23) = (   0.3604225   0.9585725   0.1159032  )
        24           Mo  tau(  24) = (   0.0313099   0.1847895   0.3013130  )
        25           S   tau(  25) = (   0.1956761   0.0838230   0.4650863  )
        26           S   tau(  26) = (   0.1967693   0.0903508   0.1278874  )
        27           Mo  tau(  27) = (   0.1967578   0.4753919   0.2813011  )
        28           S   tau(  28) = (   0.0287851   0.3864324   0.4586755  )
        29           S   tau(  29) = (   0.0244514   0.3729871   0.1239344  )
        30           Mo  tau(  30) = (   0.0286728   0.7631204   0.2856894  )
        31           S   tau(  31) = (   0.2011512   0.6675435   0.4465001  )
        32           S   tau(  32) = (   0.1969214   0.6672839   0.1104564  )
        33           Mo  tau(  33) = (   0.1950294   1.0511147   0.2932237  )
        34           S   tau(  34) = (   0.0312912   0.9612169   0.4667423  )
        35           S   tau(  35) = (   0.0292670   0.9563028   0.1216485  )
        36           H   tau(  36) = (   0.8888889   1.1556707   0.5656742  )

     number of k points=     1  Gaussian smearing, width (Ry)=  0.0100
                       cart. coord. in units 2pi/alat
        k(    1) = (   0.0000000   0.0000000   0.0000000), wk =   2.0000000

     Dense  grid:  1177734 G-vectors     FFT dimensions: ( 120, 135, 320)

     Smooth grid:   842757 G-vectors     FFT dimensions: ( 108, 120, 270)

     Estimated max dynamical RAM per process >     146.59 MB

     Estimated total dynamical RAM >       6.87 GB

     Initial potential from superposition of free atoms

     starting charge     306.9873, renormalised to     307.0000

     negative rho (up, down):  1.412E-04 0.000E+00


---------------------------------------------------------------------------------
Carrying out rVV10 run using the following parameters:
Nqs =      20    Nr_points =    1024   r_max =   100.000
b_value =  6.30000    beta =  0.00901
     q_mesh =  0.00010000  0.00030000  0.00058939  0.00100810
               0.00161396  0.00249058  0.00375900  0.00559430
               0.00824984  0.01209221  0.01765183  0.02569619
               0.03733578  0.05417739  0.07854596  0.11380545
               0.16482331  0.23864234  0.34545298  0.50000000

Gradients computed in Reciprocal space

---------------------------------------------------------------------------------


     Starting wfcs are  213 randomized atomic wfcs

     total cpu time spent up to now is        3.5 secs

     Self-consistent Calculation

     iteration #  1     ecut=    80.00 Ry     beta= 0.70
     Davidson diagonalization with overlap
     ethr =  1.00E-02,  avg # of iterations =  2.0

     Threshold (ethr) on eigenvalues was too large:
     Diagonalizing with lowered threshold

     Davidson diagonalization with overlap
     ethr =  3.91E-04,  avg # of iterations =  4.0

     negative rho (up, down):  2.114E-08 0.000E+00

     total cpu time spent up to now is       17.0 secs

     total energy              =   -2205.60903101 Ry
     estimated scf accuracy    <       1.49147344 Ry

     iteration #  2     ecut=    80.00 Ry     beta= 0.70
     Davidson diagonalization with overlap
     ethr =  4.86E-04,  avg # of iterations =  1.0

     total cpu time spent up to now is       19.3 secs

     total energy              =   -2205.43817891 Ry
     estimated scf accuracy    <       0.61048838 Ry

     iteration #  3     ecut=    80.00 Ry     beta= 0.70
     Davidson diagonalization with overlap
     ethr =  1.99E-04,  avg # of iterations =  2.0

     total cpu time spent up to now is       21.7 secs

     total energy              =   -2205.52657242 Ry
     estimated scf accuracy    <       0.07464436 Ry

     iteration #  4     ecut=    80.00 Ry     beta= 0.70
     Davidson diagonalization with overlap
     ethr =  2.43E-05,  avg # of iterations = 14.0

     total cpu time spent up to now is       24.7 secs

     total energy              =   -2205.53161934 Ry
     estimated scf accuracy    <       0.03475318 Ry

     iteration #  5     ecut=    80.00 Ry     beta= 0.70
     Davidson diagonalization with overlap
     ethr =  1.13E-05,  avg # of iterations =  2.0

     total cpu time spent up to now is       27.0 secs

     total energy              =   -2205.53132439 Ry
     estimated scf accuracy    <       0.02198146 Ry

     iteration #  6     ecut=    80.00 Ry     beta= 0.70
     Davidson diagonalization with overlap
     ethr =  7.16E-06,  avg # of iterations =  2.0

     total cpu time spent up to now is       29.2 secs

     total energy              =   -2205.53094624 Ry
     estimated scf accuracy    <       0.01306302 Ry

     iteration #  7     ecut=    80.00 Ry     beta= 0.70
     Davidson diagonalization with overlap
     ethr =  4.26E-06,  avg # of iterations =  1.0

     total cpu time spent up to now is       32.1 secs

     total energy              =   -2205.52858115 Ry
     estimated scf accuracy    <       0.00971705 Ry

     iteration #  8     ecut=    80.00 Ry     beta= 0.70
     Davidson diagonalization with overlap
     ethr =  3.17E-06,  avg # of iterations =  2.0

     negative rho (up, down):  4.803E-03 0.000E+00

     total cpu time spent up to now is       36.6 secs

     total energy              =   -2205.52831738 Ry
     estimated scf accuracy    <       0.00458333 Ry

     iteration #  9     ecut=    80.00 Ry     beta= 0.70
     Davidson diagonalization with overlap
     ethr =  1.49E-06,  avg # of iterations =  2.0

     negative rho (up, down):  1.504E-02 0.000E+00

     total cpu time spent up to now is       41.4 secs

     total energy              =   -2205.52794064 Ry
     estimated scf accuracy    <       0.00308737 Ry

     iteration # 10     ecut=    80.00 Ry     beta= 0.70
     Davidson diagonalization with overlap
     ethr =  1.01E-06,  avg # of iterations =  2.0

     negative rho (up, down):  3.361E-02 0.000E+00

     total cpu time spent up to now is       45.9 secs

     total energy              =   -2205.52795582 Ry
     estimated scf accuracy    <       0.00177002 Ry

     iteration # 11     ecut=    80.00 Ry     beta= 0.70
     Davidson diagonalization with overlap
     ethr =  5.77E-07,  avg # of iterations =  2.0

     negative rho (up, down):  2.101E-02 0.000E+00

     total cpu time spent up to now is       50.3 secs

     total energy              =   -2205.52795467 Ry
     estimated scf accuracy    <       0.00056913 Ry

     iteration # 12     ecut=    80.00 Ry     beta= 0.70
     Davidson diagonalization with overlap
     ethr =  1.85E-07,  avg # of iterations =  5.0

     negative rho (up, down):  8.560E-03 0.000E+00

     total cpu time spent up to now is       56.2 secs

     total energy              =   -2205.52802753 Ry
     estimated scf accuracy    <       0.00016468 Ry

     iteration # 13     ecut=    80.00 Ry     beta= 0.70
     Davidson diagonalization with overlap
     ethr =  5.36E-08,  avg # of iterations =  5.0

     negative rho (up, down):  3.134E-03 0.000E+00

     total cpu time spent up to now is       62.1 secs

     total energy              =   -2205.52807338 Ry
     estimated scf accuracy    <       0.00002016 Ry

     iteration # 14     ecut=    80.00 Ry     beta= 0.70
     Davidson diagonalization with overlap
     ethr =  6.57E-09,  avg # of iterations = 16.0

     negative rho (up, down):  1.187E-03 0.000E+00

     total cpu time spent up to now is       71.5 secs

     total energy              =   -2205.52807567 Ry
     estimated scf accuracy    <       0.00000816 Ry

     iteration # 15     ecut=    80.00 Ry     beta= 0.70
     Davidson diagonalization with overlap
     ethr =  2.66E-09,  avg # of iterations =  2.0

     negative rho (up, down):  4.051E-04 0.000E+00

     total cpu time spent up to now is       81.2 secs

     total energy              =   -2205.52807513 Ry
     estimated scf accuracy    <       0.00000273 Ry

     iteration # 16     ecut=    80.00 Ry     beta= 0.70
     Davidson diagonalization with overlap
     ethr =  8.91E-10,  avg # of iterations =  2.0

     negative rho (up, down):  3.272E-04 0.000E+00

     total cpu time spent up to now is       98.4 secs

     total energy              =   -2205.52807619 Ry
     estimated scf accuracy    <       0.00000104 Ry

     iteration # 17     ecut=    80.00 Ry     beta= 0.70
     Davidson diagonalization with overlap
     ethr =  3.38E-10,  avg # of iterations =  2.0

     negative rho (up, down):  1.373E-04 0.000E+00

     total cpu time spent up to now is      100.4 secs

     End of self-consistent calculation

          k = 0.0000 0.0000 0.0000 (105382 PWs)   bands (ev):

   -62.8727 -62.8215 -62.8072 -62.7953 -62.7898 -62.7791 -62.7600 -62.7593
   -62.7083 -62.5770 -62.5608 -62.4864 -37.1717 -37.1272 -37.1068 -37.0838
   -37.0690 -37.0586 -37.0553 -37.0280 -37.0121 -37.0088 -36.9889 -36.9859
   -36.9783 -36.9605 -36.9556 -36.9506 -36.9441 -36.9382 -36.9347 -36.9310
   -36.8962 -36.8721 -36.8502 -36.8304 -36.8208 -36.7919 -36.7897 -36.7801
   -36.7527 -36.7397 -36.7278 -36.7096 -36.6756 -36.6321 -36.5267 -36.5136
   -16.7439 -15.7416 -15.0985 -15.0164 -14.8902 -14.7843 -14.6466 -14.4206
   -14.3906 -14.3666 -14.3304 -14.2885 -14.2737 -14.2037 -14.1080 -14.0718
   -14.0346 -14.0102 -13.9495 -13.8881 -13.7515 -13.7435 -13.7089  -9.4914
    -7.5598  -7.3914  -7.2975  -7.2171  -7.2019  -7.1284  -7.1064  -7.0859
    -6.7887  -6.7384  -6.6972  -6.6457  -6.5220  -6.4802  -6.4255  -6.3701
    -6.2629  -6.2509  -6.1771  -5.9209  -5.8731  -5.8277  -5.7745  -5.7445
    -5.7023  -5.6617  -5.5846  -5.5738  -5.5283  -5.4886  -5.4745  -5.3943
    -5.3831  -5.2844  -5.2329  -5.1200  -5.0048  -4.9777  -4.9021  -4.8855
    -4.8552  -4.7412  -4.5973  -4.5264  -4.4094  -4.3009  -4.2226  -4.1713
    -4.1571  -4.0182  -3.9534  -3.8509  -3.7842  -3.7012  -3.6659  -3.6570
    -3.6087  -3.5320  -3.4963  -3.4593  -3.4312  -3.4058  -3.3561  -3.3063
    -3.2993  -3.1483  -3.0768  -2.8548  -2.8108  -2.7538  -2.7020  -2.6594
    -2.6398  -2.6252  -2.5895  -2.5250  -2.4453  -2.1879  -1.9368  -1.9129
    -1.8166  -0.6987  -0.5835  -0.4953  -0.1218  -0.0766  -0.0173   0.0165
     0.0918   0.2009   0.2140   0.2716   0.3195   0.3511   0.4296   0.5376
     0.5879   0.5968   0.6408   0.6510   0.6947   0.7430   0.7693   0.8027
     0.8523   0.8871   0.9176   0.9591   1.0315   1.0414   1.1001   1.2399
     1.4411

     the Fermi energy is    -0.7200 ev

!    total energy              =   -2205.52807593 Ry
     estimated scf accuracy    <       0.00000029 Ry
     smearing contrib. (-TS)   =      -0.00793534 Ry
     internal energy E=F+TS    =   -2205.52014059 Ry

     The total energy is F=E-TS. E is the sum of the following terms:
     one-electron contribution =  -18051.05830663 Ry
     hartree contribution      =    9012.98261177 Ry
     xc contribution           =    -385.45345532 Ry
     ewald contribution        =    7218.00900958 Ry

     convergence has been achieved in  17 iterations

     negative rho (up, down):  1.373E-04 0.000E+00

     Forces acting on atoms (cartesian axes, Ry/au):

     atom    1 type  1   force =    -0.01400546   -0.00934368   -0.01113084
     atom    2 type  2   force =    -0.03217549    0.10665905   -0.09788862
     atom    3 type  2   force =    -0.01307934    0.00868588   -0.00119702
     atom    4 type  1   force =     0.00876477   -0.00805603    0.00177861
     atom    5 type  2   force =    -0.00508311    0.00058691   -0.00688904
     atom    6 type  2   force =     0.00103731    0.00650450    0.00457235
     atom    7 type  1   force =     0.00017019    0.00050561   -0.01076359
     atom    8 type  2   force =     0.00153417   -0.00619402    0.01808709
     atom    9 type  2   force =     0.01421195    0.00501864    0.01216545
     atom   10 type  1   force =    -0.01458895   -0.00891264   -0.05398049
     atom   11 type  2   force =     0.00169921   -0.00449397   -0.00509350
     atom   12 type  2   force =    -0.00029153    0.00052875    0.00767557
     atom   13 type  1   force =     0.00657421    0.00584373   -0.00042106
     atom   14 type  2   force =     0.00287546    0.00135413    0.00731697
     atom   15 type  2   force =    -0.00874352   -0.00005625   -0.00910561
     atom   16 type  1   force =     0.00005652    0.00219012    0.00131197
     atom   17 type  2   force =     0.00552272    0.00220285    0.00090693
     atom   18 type  2   force =    -0.00543715   -0.00524285    0.01598169
     atom   19 type  1   force =     0.01000948   -0.00292420   -0.00375299
     atom   20 type  2   force =     0.00363622   -0.00510444    0.00119608
     atom   21 type  1   force =    -0.00168215    0.00775343   -0.00257179
     atom   22 type  2   force =    -0.00228043   -0.00119592   -0.00110660
     atom   23 type  2   force =    -0.00055356    0.00075600    0.00839140
     atom   24 type  1   force =     0.00951427   -0.00566063   -0.01558984
     atom   25 type  2   force =     0.02014548    0.01971333    0.00461703
     atom   26 type  2   force =    -0.01446097   -0.00067829   -0.00390929
     atom   27 type  1   force =    -0.00564079   -0.00856922    0.00909012
     atom   28 type  2   force =     0.00245769    0.00576965   -0.00711278
     atom   29 type  2   force =     0.00280392    0.00063631   -0.00247026
     atom   30 type  1   force =    -0.00688528    0.01345151   -0.00614437
     atom   31 type  2   force =     0.00202553   -0.00128685    0.01627008
     atom   32 type  2   force =    -0.01083267    0.00526866    0.00814506
     atom   33 type  1   force =     0.01273551   -0.00335413   -0.01027505
     atom   34 type  2   force =     0.00674762   -0.04756641   -0.01030273
     atom   35 type  2   force =    -0.00881481    0.00711919    0.01475547
     atom   36 type  3   force =     0.03203296   -0.08190869    0.12744360
     The non-local contrib.  to forces
     atom    1 type  1   force =    -0.00599736    0.02779987   -0.02205699
     atom    2 type  2   force =     0.04489862   -0.10770901   -0.00981731
     atom    3 type  2   force =    -0.01371893   -0.00260720    0.27901160
     atom    4 type  1   force =    -0.00483406    0.01773383    0.00498228
     atom    5 type  2   force =     0.00734597   -0.02573182   -0.24991961
     atom    6 type  2   force =    -0.00305206    0.00598734    0.26334000
     atom    7 type  1   force =    -0.03164610   -0.01415164   -0.01502608
     atom    8 type  2   force =     0.00332629   -0.00391107   -0.25110675
     atom    9 type  2   force =     0.01179148   -0.01307305    0.27591299
     atom   10 type  1   force =    -0.00045438   -0.00953240   -0.00464318
     atom   11 type  2   force =     0.01767550    0.00720525   -0.25038599
     atom   12 type  2   force =    -0.01155609   -0.01468431    0.26295943
     atom   13 type  1   force =    -0.00035362    0.02458521   -0.00897946
     atom   14 type  2   force =     0.00740312   -0.00458005   -0.25517194
     atom   15 type  2   force =    -0.01004594    0.00161260    0.26429680
     atom   16 type  1   force =     0.00040615    0.04834242   -0.02076764
     atom   17 type  2   force =     0.00071207   -0.03028313   -0.25080646
     atom   18 type  2   force =    -0.00530421   -0.00677743    0.27332907
     atom   19 type  1   force =     0.02434382   -0.01462285   -0.01278866
     atom   20 type  2   force =     0.00020350   -0.02083535    0.26363734
     atom   21 type  1   force =     0.00028921    0.01284983    0.00554453
     atom   22 type  2   force =    -0.00674509    0.00744468   -0.25734480
     atom   23 type  2   force =     0.00637048   -0.01063781    0.26851670
     atom   24 type  1   force =     0.00389854    0.01462618   -0.01967438
     atom   25 type  2   force =     0.00391460    0.00892133   -0.25801024
     atom   26 type  2   force =    -0.00578407   -0.00608012    0.26366807
     atom   27 type  1   force =     0.00578234    0.01737682    0.00942539
     atom   28 type  2   force =    -0.00399721   -0.02710032   -0.27021891
     atom   29 type  2   force =     0.00793801   -0.00065491    0.26412709
     atom   30 type  1   force =     0.00414920    0.00972006    0.00481237
     atom   31 type  2   force =    -0.00747072    0.00030745   -0.25184606
     atom   32 type  2   force =    -0.00698933   -0.01269006    0.27284544
     atom   33 type  1   force =    -0.00247439    0.00155418    0.00690389
     atom   34 type  2   force =    -0.00002706   -0.04127816   -0.25276299
     atom   35 type  2   force =    -0.00422406   -0.01109773    0.27289621
     atom   36 type  3   force =    -0.01496083    0.05663537   -0.06117762
     The ionic contribution  to forces
     atom    1 type  1   force =     0.14205146    0.49250839    5.39032108
     atom    2 type  2   force =    -1.06033707    1.81173345   37.70957185
     atom    3 type  2   force =    -0.17110589    0.04682218  -36.20696903
     atom    4 type  1   force =     0.07924443    0.69301358    0.62027763
     atom    5 type  2   force =    -1.02625984    1.60865035   38.73071967
     atom    6 type  2   force =     0.32884770   -0.46788952  -38.04023852
     atom    7 type  1   force =    -2.69496947   -2.92338051    2.50379938
     atom    8 type  2   force =    -0.99370476   -0.04095877   37.37717395
     atom    9 type  2   force =     0.33912504   -0.05299560  -38.00924597
     atom   10 type  1   force =    -1.18619559   -0.69184489    4.81922261
     atom   11 type  2   force =    -0.78813303   -1.85443651   39.03690644
     atom   12 type  2   force =     0.41228910    0.65449596  -37.90637133
     atom   13 type  1   force =     0.50887308    1.07704256    2.78909774
     atom   14 type  2   force =    -0.09689199    0.04672123   38.47204197
     atom   15 type  2   force =     0.12781765   -0.04917375  -36.84012714
     atom   16 type  1   force =    -0.06255880    4.00473830    0.48557362
     atom   17 type  2   force =     0.81988229    1.54949158   37.93427263
     atom   18 type  2   force =    -0.15844167   -0.62608688  -38.56158585
     atom   19 type  1   force =     2.72956632   -2.51788570    0.64976562
     atom   20 type  2   force =     0.22047148   -0.20744560  -38.47002146
     atom   21 type  1   force =    -0.13281279   -0.03527089    1.02349209
     atom   22 type  2   force =     0.47358027   -1.77699306   38.41888622
     atom   23 type  2   force =    -0.08168575    0.64526461  -38.30179667
     atom   24 type  1   force =    -0.31206645    1.46846681    5.43286896
     atom   25 type  2   force =     0.90611444    0.36257047   39.19163023
     atom   26 type  2   force =    -0.25261557    0.08125878  -37.37785523
     atom   27 type  1   force =     0.07551198    0.47112102   -2.25912460
     atom   28 type  2   force =     0.10525155    1.14840201   38.18043720
     atom   29 type  2   force =    -0.25177872   -0.39089250  -37.28592119
     atom   30 type  1   force =    -0.27419861   -1.07242095   -0.11824727
     atom   31 type  2   force =     1.25744842   -0.08936875   37.32852809
     atom   32 type  2   force =    -0.47007666   -0.01710582  -38.62911069
     atom   33 type  1   force =     1.03261407   -0.96307397    1.85934569
     atom   34 type  2   force =     0.51842942   -1.83464852   39.17210780
     atom   35 type  2   force =    -0.27439166    0.43519435  -37.87723238
     atom   36 type  3   force =     0.21110561   -0.98562343    8.75780684
     The local contribution  to forces
     atom    1 type  1   force =    -0.15004983   -0.52973699   -5.37876862
     atom    2 type  2   force =     0.98662380   -1.60634763  -37.80094040
     atom    3 type  2   force =     0.17115760   -0.03562016   35.94841602
     atom    4 type  1   force =    -0.06559575   -0.71867502   -0.62288741
     atom    5 type  2   force =     1.01466202   -1.58400253  -38.50747510
     atom    6 type  2   force =    -0.32493570    0.46917401   37.80255442
     atom    7 type  1   force =     2.72667310    2.93810254   -2.49884770
     atom    8 type  2   force =     0.99200740    0.03822439  -37.12793916
     atom    9 type  2   force =    -0.33629567    0.07031395   37.76671614
     atom   10 type  1   force =     1.17204855    0.69232568   -4.86801164
     atom   11 type  2   force =     0.77322306    1.84366052  -38.81133351
     atom   12 type  2   force =    -0.40210450   -0.64051624   37.67220908
     atom   13 type  1   force =    -0.50206471   -1.09590619   -2.77992034
     atom   14 type  2   force =     0.09292084   -0.04054555  -38.22946546
     atom   15 type  2   force =    -0.12713308    0.04743762   36.58767963
     atom   16 type  1   force =     0.06217067   -4.05060350   -0.46286932
     atom   17 type  2   force =    -0.81523963   -1.51869291  -37.70248660
     atom   18 type  2   force =     0.15802939    0.62783291   38.32544143
     atom   19 type  1   force =    -2.74380758    2.52964310   -0.64006939
     atom   20 type  2   force =    -0.21716339    0.22250416   38.22897899
     atom   21 type  1   force =     0.13077135    0.02998275   -1.03100303
     atom   22 type  2   force =    -0.46930234    1.76905721  -38.18284363
     atom   23 type  2   force =     0.07527009   -0.63487513   38.06290286
     atom   24 type  1   force =     0.31780263   -1.48880729   -5.42818155
     atom   25 type  2   force =    -0.89028687   -0.35122129  -38.94918272
     atom   26 type  2   force =     0.24393325   -0.07625672   37.13143699
     atom   27 type  1   force =    -0.08693943   -0.49695309    2.25939157
     atom   28 type  2   force =    -0.09913617   -1.11758437  -37.93771522
     atom   29 type  2   force =     0.24727543    0.39256802   37.04021855
     atom   30 type  1   force =     0.26318923    1.07620387    0.10791328
     atom   31 type  2   force =    -1.24838020    0.08771876  -37.08059658
     atom   32 type  2   force =     0.46614114    0.03432611   38.38568621
     atom   33 type  1   force =    -1.01733707    0.95811267   -1.87594182
     atom   34 type  2   force =    -0.51233162    1.82751441  -38.94920976
     atom   35 type  2   force =     0.26978730   -0.41790848   37.64054131
     atom   36 type  3   force =    -0.16411183    0.84707409   -8.56911861
     The core correction contribution to forces
     atom    1 type  1   force =     0.00000000    0.00000000    0.00000000
     atom    2 type  2   force =    -0.00335645    0.00897035    0.00360377
     atom    3 type  2   force =     0.00060960    0.00002212   -0.02141935
     atom    4 type  1   force =     0.00000000    0.00000000    0.00000000
     atom    5 type  2   force =    -0.00077520    0.00168798    0.02010087
     atom    6 type  2   force =     0.00024489   -0.00075353   -0.02087112
     atom    7 type  1   force =     0.00000000    0.00000000    0.00000000
     atom    8 type  2   force =    -0.00013242    0.00048416    0.02019968
     atom    9 type  2   force =    -0.00041264    0.00078376   -0.02093310
     atom   10 type  1   force =     0.00000000    0.00000000    0.00000000
     atom   11 type  2   force =    -0.00106305   -0.00096836    0.01994071
     atom   12 type  2   force =     0.00107902    0.00120829   -0.02080510
     atom   13 type  1   force =     0.00000000    0.00000000    0.00000000
     atom   14 type  2   force =    -0.00058488   -0.00028144    0.02020235
     atom   15 type  2   force =     0.00057883    0.00001320   -0.02070716
     atom   16 type  1   force =     0.00000000    0.00000000    0.00000000
     atom   17 type  2   force =     0.00010029    0.00168144    0.02022926
     atom   18 type  2   force =     0.00020693   -0.00022532   -0.02097662
     atom   19 type  1   force =     0.00000000    0.00000000    0.00000000
     atom   20 type  2   force =     0.00009382    0.00077028   -0.02107043
     atom   21 type  1   force =     0.00000000    0.00000000    0.00000000
     atom   22 type  2   force =     0.00019194   -0.00075385    0.02038424
     atom   23 type  2   force =    -0.00051480    0.00096363   -0.02090007
     atom   24 type  1   force =     0.00000000    0.00000000    0.00000000
     atom   25 type  2   force =     0.00041833   -0.00058403    0.02043441
     atom   26 type  2   force =     0.00002268    0.00035342   -0.02088419
     atom   27 type  1   force =     0.00000000    0.00000000    0.00000000
     atom   28 type  2   force =     0.00035344    0.00206678    0.02065974
     atom   29 type  2   force =    -0.00062510   -0.00035943   -0.02064518
     atom   30 type  1   force =     0.00000000    0.00000000    0.00000000
     atom   31 type  2   force =     0.00049129    0.00008308    0.02041315
     atom   32 type  2   force =     0.00012957    0.00076219   -0.02098037
     atom   33 type  1   force =     0.00000000    0.00000000    0.00000000
     atom   34 type  2   force =     0.00067661    0.00084228    0.01979828
     atom   35 type  2   force =     0.00002233    0.00095007   -0.02116607
     atom   36 type  3   force =     0.00000000    0.00000000    0.00000000
     The Hubbard contrib.    to forces
     atom    1 type  1   force =     0.00000000    0.00000000    0.00000000
     atom    2 type  2   force =     0.00000000    0.00000000    0.00000000
     atom    3 type  2   force =     0.00000000    0.00000000    0.00000000
     atom    4 type  1   force =     0.00000000    0.00000000    0.00000000
     atom    5 type  2   force =     0.00000000    0.00000000    0.00000000
     atom    6 type  2   force =     0.00000000    0.00000000    0.00000000
     atom    7 type  1   force =     0.00000000    0.00000000    0.00000000
     atom    8 type  2   force =     0.00000000    0.00000000    0.00000000
     atom    9 type  2   force =     0.00000000    0.00000000    0.00000000
     atom   10 type  1   force =     0.00000000    0.00000000    0.00000000
     atom   11 type  2   force =     0.00000000    0.00000000    0.00000000
     atom   12 type  2   force =     0.00000000    0.00000000    0.00000000
     atom   13 type  1   force =     0.00000000    0.00000000    0.00000000
     atom   14 type  2   force =     0.00000000    0.00000000    0.00000000
     atom   15 type  2   force =     0.00000000    0.00000000    0.00000000
     atom   16 type  1   force =     0.00000000    0.00000000    0.00000000
     atom   17 type  2   force =     0.00000000    0.00000000    0.00000000
     atom   18 type  2   force =     0.00000000    0.00000000    0.00000000
     atom   19 type  1   force =     0.00000000    0.00000000    0.00000000
     atom   20 type  2   force =     0.00000000    0.00000000    0.00000000
     atom   21 type  1   force =     0.00000000    0.00000000    0.00000000
     atom   22 type  2   force =     0.00000000    0.00000000    0.00000000
     atom   23 type  2   force =     0.00000000    0.00000000    0.00000000
     atom   24 type  1   force =     0.00000000    0.00000000    0.00000000
     atom   25 type  2   force =     0.00000000    0.00000000    0.00000000
     atom   26 type  2   force =     0.00000000    0.00000000    0.00000000
     atom   27 type  1   force =     0.00000000    0.00000000    0.00000000
     atom   28 type  2   force =     0.00000000    0.00000000    0.00000000
     atom   29 type  2   force =     0.00000000    0.00000000    0.00000000
     atom   30 type  1   force =     0.00000000    0.00000000    0.00000000
     atom   31 type  2   force =     0.00000000    0.00000000    0.00000000
     atom   32 type  2   force =     0.00000000    0.00000000    0.00000000
     atom   33 type  1   force =     0.00000000    0.00000000    0.00000000
     atom   34 type  2   force =     0.00000000    0.00000000    0.00000000
     atom   35 type  2   force =     0.00000000    0.00000000    0.00000000
     atom   36 type  3   force =     0.00000000    0.00000000    0.00000000
     The SCF correction term to forces
     atom    1 type  1   force =    -0.00000956    0.00008179   -0.00059570
     atom    2 type  2   force =    -0.00000423    0.00000863   -0.00027592
     atom    3 type  2   force =    -0.00002155    0.00006568   -0.00020565
     atom    4 type  1   force =    -0.00004970   -0.00013168   -0.00056328
     atom    5 type  2   force =    -0.00005589   -0.00002034   -0.00028426
     atom    6 type  2   force =    -0.00006736   -0.00001707   -0.00018183
     atom    7 type  1   force =     0.00011282   -0.00006804   -0.00065858
     atom    8 type  2   force =     0.00003783   -0.00003600   -0.00021002
     atom    9 type  2   force =     0.00000390   -0.00001368   -0.00025400
     atom   10 type  1   force =     0.00001263    0.00013570   -0.00051766
     atom   11 type  2   force =    -0.00000312    0.00004186   -0.00019053
     atom   12 type  2   force =     0.00000109    0.00002179   -0.00028590
     atom   13 type  1   force =     0.00011961    0.00011889   -0.00058838
     atom   14 type  2   force =     0.00002853    0.00003667   -0.00025934
     atom   15 type  2   force =     0.00003918    0.00005081   -0.00021713
     atom   16 type  1   force =     0.00003865   -0.00029037   -0.00059408
     atom   17 type  2   force =     0.00006786    0.00000261   -0.00027128
     atom   18 type  2   force =     0.00007257    0.00001060   -0.00019572
     atom   19 type  1   force =    -0.00009292   -0.00006201   -0.00062994
     atom   20 type  2   force =     0.00003097   -0.00010119   -0.00029775
     atom   21 type  1   force =     0.00007023    0.00018848   -0.00057477
     atom   22 type  2   force =    -0.00000506    0.00004584   -0.00015801
     atom   23 type  2   force =     0.00000658    0.00003744   -0.00030081
     atom   24 type  1   force =    -0.00012028    0.00005041   -0.00057226
     atom   25 type  2   force =    -0.00001486    0.00002358   -0.00022403
     atom   26 type  2   force =    -0.00001709    0.00004309   -0.00024431
     atom   27 type  1   force =     0.00000448   -0.00011724   -0.00057164
     atom   28 type  2   force =    -0.00001376   -0.00001771   -0.00024498
     atom   29 type  2   force =    -0.00000553   -0.00002814   -0.00021892
     atom   30 type  1   force =    -0.00002495   -0.00005473   -0.00059213
     atom   31 type  2   force =    -0.00006310   -0.00003067   -0.00019790
     atom   32 type  2   force =    -0.00003723   -0.00002702   -0.00026492
     atom   33 type  1   force =    -0.00006694    0.00004972   -0.00055219
     atom   34 type  2   force =     0.00000042    0.00000031   -0.00020544
     atom   35 type  2   force =    -0.00000856   -0.00002229   -0.00025298
     atom   36 type  3   force =     0.00000016    0.00000201   -0.00003640

     Total force =     0.239867     Total SCF correction =     0.002401

     BFGS Geometry Optimization
     Energy error            =      0.0E+00 Ry
     Gradient error          =      1.3E-01 Ry/Bohr

     number of scf cycles    =   1
     number of bfgs steps    =   0

     energy             new  =   -2205.5280759313 Ry

     new trust radius        =       0.1548451316 bohr
     new conv_thr            =       0.0000010000 Ry


ATOMIC_POSITIONS (angstrom)
Mo            6.5671370380        1.7828617666        2.8177528444
S             8.1596828032        0.8661455617        4.3827379235
S             8.1863117998        0.8158381127        1.2772499888
Mo            8.0998006794        4.4907938773        2.7187595921
S             6.4972193925        3.7227220665        4.3430151257
S             6.5538987216        3.5151795877        1.1236998101
Mo            6.4900717576        7.2187048437        2.6661886355
S             8.0825395779        6.3405932598        4.2520328383
S             8.0884382895        6.3073580650        1.0903006793
Mo            8.1528989070        9.8974640447        2.8148965183
S             6.4960667769        8.9405487068        4.3804101684
S             6.6177929288        9.0489910180        1.1439690379
Mo            3.4251385844        1.7500482193        2.7762483484
S             4.9766871170        0.8176577837        4.3544050683
S             5.0532068853        0.8462323419        1.2218399774
Mo            4.9797865888        4.5143369631        2.6335788126
S             3.4307641600        3.6727653823        4.2801895070
S             3.4350433631        3.5454542985        1.0668088292
Mo            3.4591585306        7.2147771200        2.6286908675
S             4.9851583958        6.3242311348        1.0378866702
Mo            5.0113737620        9.9057029873        2.7420400286
S             3.4697513674        8.9431184131        4.3250057220
S             3.4081362368        9.0653900407        1.1005088384
Mo            0.3011252244        1.7445140545        2.8411949216
S             1.8611227420        0.8031258505        4.4006526664
S             1.8531476202        0.8540669824        1.2073321477
Mo            1.8577063319        4.4911321227        2.6650076643
S             0.2735144049        3.6574519912        4.3338201789
S             0.2327149759        3.5275859480        1.1707106778
Mo            0.2675086157        7.2237643290        2.6984449692
S             1.9033101131        6.3121178636        4.2310538770
S             1.8565058126        6.3131318686        1.0488694637
Mo            1.8510860043        9.9383642253        2.7675089292
S             0.2994835883        9.0648267678        4.4084174983
S             0.2721068017        9.0472930260        1.1582090382
H             8.4229600027       10.8855557857        5.4168849551



     Writing config-only to output data dir ./MoS2-V-O.save/
     NEW-OLD atomic charge density approx. for the potential

     negative rho (up, down):  1.517E-04 0.000E+00

     total cpu time spent up to now is      103.8 secs

     Self-consistent Calculation

     iteration #  1     ecut=    80.00 Ry     beta= 0.70
     Davidson diagonalization with overlap
     ethr =  1.00E-06,  avg # of iterations = 11.0

     negative rho (up, down):  2.527E-04 0.000E+00

     total cpu time spent up to now is      121.9 secs

     total energy              =   -2205.55265449 Ry
     estimated scf accuracy    <       0.00791761 Ry

     iteration #  2     ecut=    80.00 Ry     beta= 0.70
     Davidson diagonalization with overlap
     ethr =  2.58E-06,  avg # of iterations =  3.0

     negative rho (up, down):  4.132E-04 0.000E+00

     total cpu time spent up to now is      138.7 secs

     total energy              =   -2205.55277810 Ry
     estimated scf accuracy    <       0.00117808 Ry

     iteration #  3     ecut=    80.00 Ry     beta= 0.70
     Davidson diagonalization with overlap
     ethr =  3.84E-07,  avg # of iterations =  6.0

     negative rho (up, down):  4.847E-04 0.000E+00

     total cpu time spent up to now is      157.5 secs

     total energy              =   -2205.55293298 Ry
     estimated scf accuracy    <       0.00016090 Ry

     iteration #  4     ecut=    80.00 Ry     beta= 0.70
     Davidson diagonalization with overlap
     ethr =  5.24E-08,  avg # of iterations =  2.0

     negative rho (up, down):  5.110E-04 0.000E+00

     total cpu time spent up to now is      174.4 secs

     total energy              =   -2205.55294988 Ry
     estimated scf accuracy    <       0.00002040 Ry

     iteration #  5     ecut=    80.00 Ry     beta= 0.70
     Davidson diagonalization with overlap
     ethr =  6.65E-09,  avg # of iterations = 10.0

     negative rho (up, down):  5.029E-04 0.000E+00

     total cpu time spent up to now is      190.2 secs

     total energy              =   -2205.55295472 Ry
     estimated scf accuracy    <       0.00001352 Ry

     iteration #  6     ecut=    80.00 Ry     beta= 0.70
     Davidson diagonalization with overlap
     ethr =  4.41E-09,  avg # of iterations =  2.0

     negative rho (up, down):  4.479E-04 0.000E+00

     total cpu time spent up to now is      202.6 secs

     total energy              =   -2205.55295554 Ry
     estimated scf accuracy    <       0.00000326 Ry

     iteration #  7     ecut=    80.00 Ry     beta= 0.70
     Davidson diagonalization with overlap
     ethr =  1.06E-09,  avg # of iterations =  5.0

     negative rho (up, down):  1.374E-04 0.000E+00

     total cpu time spent up to now is      204.7 secs

     End of self-consistent calculation

          k = 0.0000 0.0000 0.0000 (105382 PWs)   bands (ev):

   -62.8599 -62.8198 -62.8085 -62.7952 -62.7896 -62.7856 -62.7683 -62.7612
   -62.7077 -62.5994 -62.5833 -62.5082 -37.1675 -37.1250 -37.1051 -37.0879
   -37.0710 -37.0596 -37.0567 -37.0332 -37.0131 -37.0066 -36.9946 -36.9864
   -36.9767 -36.9683 -36.9602 -36.9515 -36.9483 -36.9446 -36.9420 -36.9390
   -36.9002 -36.8774 -36.8554 -36.8310 -36.8213 -36.8063 -36.7934 -36.7889
   -36.7662 -36.7582 -36.7467 -36.7342 -36.6964 -36.6542 -36.5461 -36.5362
   -16.3275 -15.6550 -15.1180 -15.0161 -14.8934 -14.7963 -14.6340 -14.4273
   -14.3967 -14.3653 -14.3432 -14.3056 -14.2878 -14.2190 -14.1091 -14.0829
   -14.0442 -14.0280 -13.9642 -13.8830 -13.7669 -13.7440 -13.7282  -9.0493
    -7.5724  -7.3895  -7.2944  -7.2404  -7.2122  -7.1439  -7.1254  -7.0767
    -6.8039  -6.7474  -6.7097  -6.6583  -6.5289  -6.4878  -6.4250  -6.3816
    -6.2831  -6.2450  -6.1595  -5.9204  -5.8720  -5.8462  -5.7881  -5.7583
    -5.7141  -5.6720  -5.6002  -5.5901  -5.5500  -5.5037  -5.4832  -5.3957
    -5.3743  -5.2804  -5.2360  -5.1138  -5.0074  -4.9904  -4.9090  -4.9015
    -4.8716  -4.7565  -4.6069  -4.4919  -4.4086  -4.3208  -4.2287  -4.1865
    -4.1661  -4.0314  -3.9710  -3.8637  -3.7980  -3.7024  -3.6642  -3.6624
    -3.6141  -3.5416  -3.4908  -3.4834  -3.4422  -3.4145  -3.3707  -3.3177
    -3.3130  -3.1511  -3.0811  -2.8623  -2.8235  -2.7479  -2.7115  -2.6651
    -2.6456  -2.6372  -2.6011  -2.5362  -2.4615  -2.1892  -1.9415  -1.9264
    -1.8464  -0.7245  -0.5930  -0.5441  -0.1222  -0.0743  -0.0106   0.0077
     0.1052   0.1986   0.2144   0.2965   0.3210   0.3550   0.4504   0.5297
     0.5795   0.6040   0.6383   0.6615   0.6941   0.7352   0.7412   0.7987
     0.8417   0.8734   0.9273   0.9495   1.0372   1.0440   1.0919   1.2426
     1.4459

     the Fermi energy is    -0.7435 ev

!    total energy              =   -2205.55295629 Ry
     estimated scf accuracy    <       0.00000065 Ry
     smearing contrib. (-TS)   =      -0.00785436 Ry
     internal energy E=F+TS    =   -2205.54510193 Ry

     The total energy is F=E-TS. E is the sum of the following terms:
     one-electron contribution =  -18059.34688090 Ry
     hartree contribution      =    9017.02893531 Ry
     xc contribution           =    -385.40333299 Ry
     ewald contribution        =    7222.17617666 Ry

     convergence has been achieved in   7 iterations

     negative rho (up, down):  1.374E-04 0.000E+00

     Forces acting on atoms (cartesian axes, Ry/au):

     atom    1 type  1   force =    -0.01735799   -0.00162761   -0.01403866
     atom    2 type  2   force =     0.00680023   -0.02104460    0.03447451
     atom    3 type  2   force =    -0.01092793    0.00799349   -0.01018608
     atom    4 type  1   force =     0.00614663   -0.00291537    0.00261163
     atom    5 type  2   force =    -0.00440281    0.00029224   -0.00611904
     atom    6 type  2   force =     0.00045250    0.00630718    0.00209508
     atom    7 type  1   force =     0.00047619   -0.00321463   -0.00197230
     atom    8 type  2   force =     0.00039829   -0.00492479    0.01072041
     atom    9 type  2   force =     0.01237659    0.00352824    0.00856562
     atom   10 type  1   force =    -0.00596791    0.00080688   -0.02137620
     atom   11 type  2   force =     0.00287537   -0.00204153   -0.00827593
     atom   12 type  2   force =    -0.00431198   -0.00097127   -0.00178391
     atom   13 type  1   force =     0.00443687    0.00280274   -0.00186603
     atom   14 type  2   force =     0.00206901    0.00068910    0.00662647
     atom   15 type  2   force =    -0.00979019   -0.00060696   -0.01070833
     atom   16 type  1   force =     0.00011660    0.00384763    0.00120792
     atom   17 type  2   force =     0.00508857    0.00199028    0.00199017
     atom   18 type  2   force =    -0.00466049   -0.00368818    0.01244528
     atom   19 type  1   force =     0.00686065   -0.00288711    0.00104245
     atom   20 type  2   force =     0.00314012   -0.00475066   -0.00200328
     atom   21 type  1   force =    -0.00167746    0.00445465    0.00133039
     atom   22 type  2   force =    -0.00046201   -0.00068225   -0.00249954
     atom   23 type  2   force =     0.00080921   -0.00028074    0.00388030
     atom   24 type  1   force =     0.00732598    0.00205013   -0.01476455
     atom   25 type  2   force =     0.01416291    0.01376810    0.00104843
     atom   26 type  2   force =    -0.00734316   -0.00110027   -0.00506975
     atom   27 type  1   force =    -0.00323686   -0.00242690    0.00718211
     atom   28 type  2   force =     0.00246160    0.00224488   -0.00467884
     atom   29 type  2   force =     0.00319227    0.00059678   -0.00387106
     atom   30 type  1   force =    -0.00222641    0.00263267    0.00181165
     atom   31 type  2   force =     0.00128477   -0.00031787    0.00949159
     atom   32 type  2   force =    -0.00888142    0.00396823    0.00789197
     atom   33 type  1   force =     0.00503776   -0.00133516    0.00031619
     atom   34 type  2   force =    -0.00089996   -0.03035637   -0.01427634
     atom   35 type  2   force =    -0.00501188    0.00664316    0.00461714
     atom   36 type  3   force =     0.00164637    0.02055590    0.00414054
     The non-local contrib.  to forces
     atom    1 type  1   force =    -0.00369765    0.02720296   -0.02211329
     atom    2 type  2   force =     0.06942298   -0.22370336    0.09312465
     atom    3 type  2   force =    -0.01195546   -0.00463531    0.27449171
     atom    4 type  1   force =    -0.00304784    0.01665164    0.00443517
     atom    5 type  2   force =     0.00787643   -0.02598767   -0.25032823
     atom    6 type  2   force =    -0.00287983    0.00584226    0.26222053
     atom    7 type  1   force =    -0.02970264   -0.01312971   -0.01654416
     atom    8 type  2   force =     0.00216680   -0.00374318   -0.25568961
     atom    9 type  2   force =     0.00941661   -0.01404218    0.27413215
     atom   10 type  1   force =    -0.00194036   -0.01080853   -0.00311400
     atom   11 type  2   force =     0.01543138    0.00682214   -0.25263440
     atom   12 type  2   force =    -0.01364988   -0.01454622    0.25797110
     atom   13 type  1   force =    -0.00010576    0.02507689   -0.01037412
     atom   14 type  2   force =     0.00639628   -0.00471679   -0.25500487
     atom   15 type  2   force =    -0.00997561   -0.00049073    0.26194759
     atom   16 type  1   force =     0.00008854    0.04696588   -0.02245988
     atom   17 type  2   force =     0.00011461   -0.02993704   -0.24963712
     atom   18 type  2   force =    -0.00444671   -0.00517920    0.27130328
     atom   19 type  1   force =     0.02381415   -0.01432605   -0.01482240
     atom   20 type  2   force =     0.00012320   -0.02000291    0.26213826
     atom   21 type  1   force =     0.00076541    0.01457811    0.00368965
     atom   22 type  2   force =    -0.00435594    0.00694157   -0.25829298
     atom   23 type  2   force =     0.00778094   -0.01156344    0.26587956
     atom   24 type  1   force =     0.00358979    0.01235183   -0.01862385
     atom   25 type  2   force =     0.00128265    0.00397542   -0.25941816
     atom   26 type  2   force =    -0.00030051   -0.00810952    0.26215404
     atom   27 type  1   force =     0.00421525    0.01545938    0.00892928
     atom   28 type  2   force =    -0.00370918   -0.02885062   -0.27045342
     atom   29 type  2   force =     0.00737808   -0.00177467    0.26334208
     atom   30 type  1   force =     0.00234976    0.01212626    0.00367712
     atom   31 type  2   force =    -0.00718127    0.00062558   -0.25679414
     atom   32 type  2   force =    -0.00439207   -0.01346954    0.27363204
     atom   33 type  1   force =    -0.00237387    0.00071694    0.00520393
     atom   34 type  2   force =    -0.00517191   -0.02493012   -0.25364838
     atom   35 type  2   force =    -0.00226728   -0.01040722    0.26742600
     atom   36 type  3   force =    -0.00985061    0.03693369   -0.04034807
     The ionic contribution  to forces
     atom    1 type  1   force =     0.02572949    0.64407833    5.09245442
     atom    2 type  2   force =    -0.80507825    1.07961753   37.65643488
     atom    3 type  2   force =    -0.11422188    0.12408045  -36.23532129
     atom    4 type  1   force =    -0.00134271    0.82027263    0.74513472
     atom    5 type  2   force =    -1.00108457    1.61845988   38.72376662
     atom    6 type  2   force =     0.33252241   -0.41177973  -38.01058115
     atom    7 type  1   force =    -2.65375827   -3.02510171    2.44182560
     atom    8 type  2   force =    -1.02187511   -0.00874588   37.46990530
     atom    9 type  2   force =     0.31717356   -0.13536395  -37.93502115
     atom   10 type  1   force =    -0.85032811   -0.45293695    4.29822221
     atom   11 type  2   force =    -0.66770674   -1.76401972   39.07174118
     atom   12 type  2   force =     0.26925729    0.58141861  -37.95489965
     atom   13 type  1   force =     0.39588834    0.96853861    2.86846057
     atom   14 type  2   force =    -0.08687593   -0.01235850   38.62775168
     atom   15 type  2   force =     0.06961218   -0.05163698  -36.95550936
     atom   16 type  1   force =    -0.04627476    4.09001094    0.55788413
     atom   17 type  2   force =     0.81477212    1.57103791   37.99886860
     atom   18 type  2   force =    -0.16695711   -0.55232889  -38.50405040
     atom   19 type  1   force =     2.57426627   -2.58309118    0.66989046
     atom   20 type  2   force =     0.19121968   -0.23602900  -38.49979641
     atom   21 type  1   force =    -0.17062154   -0.12805677    1.22273994
     atom   22 type  2   force =     0.46156234   -1.77151329   38.46072376
     atom   23 type  2   force =    -0.07881977    0.59294559  -38.28137275
     atom   24 type  1   force =    -0.17012636    1.26134073    5.25206490
     atom   25 type  2   force =     0.72717411    0.22122618   39.25141433
     atom   26 type  2   force =    -0.18623809    0.06624786  -37.38286450
     atom   27 type  1   force =     0.12900125    0.72662720   -1.98740501
     atom   28 type  2   force =     0.09164823    1.07362394   38.22835023
     atom   29 type  2   force =    -0.24598519   -0.33824540  -37.33544277
     atom   30 type  1   force =    -0.12514176   -1.27284849   -0.07364045
     atom   31 type  2   force =     1.25017283   -0.04251265   37.35725674
     atom   32 type  2   force =    -0.42808321   -0.05808590  -38.52103707
     atom   33 type  1   force =     0.80064383   -0.82946119    2.00583451
     atom   34 type  2   force =     0.36401297   -1.49606805   39.10791097
     atom   35 type  2   force =    -0.13321100    0.42460266  -37.83855948
     atom   36 type  3   force =     0.13907345   -0.69394484    8.40686570
     The local contribution  to forces
     atom    1 type  1   force =    -0.03901390   -0.67341302   -5.08362478
     atom    2 type  2   force =     0.74701029   -0.89110628  -37.71376442
     atom    3 type  2   force =     0.11471508   -0.11168334   35.97196736
     atom    4 type  1   force =     0.01067612   -0.84007491   -0.74651144
     atom    5 type  2   force =     0.98967668   -1.59407038  -38.49919026
     atom    6 type  2   force =    -0.32935182    0.41275837   37.77116166
     atom    7 type  1   force =     2.68385137    3.03540770   -2.42666578
     atom    8 type  2   force =     1.02025345    0.00721326  -37.22339498
     atom    9 type  2   force =    -0.31384486    0.15224496   37.69025890
     atom   10 type  1   force =     0.84640991    0.46488338   -4.31587789
     atom   11 type  2   force =     0.65603147    1.75618694  -38.84695706
     atom   12 type  2   force =    -0.26093422   -0.56888765   37.71580374
     atom   13 type  1   force =    -0.39151853   -0.99129911   -2.85938994
     atom   14 type  2   force =     0.08317503    0.01798964  -38.38594479
     atom   15 type  2   force =    -0.06992334    0.05137251   36.70350850
     atom   16 type  1   force =     0.04625035   -4.13315227   -0.53379298
     atom   17 type  2   force =    -0.81002663   -1.54091901  -37.76694738
     atom   18 type  2   force =     0.16650568    0.55396405   38.26596122
     atom   19 type  1   force =    -2.59135634    2.59488113   -0.65349436
     atom   20 type  2   force =    -0.18840336    0.25073341   38.25659842
     atom   21 type  1   force =     0.16811154    0.11797307   -1.22453873
     atom   22 type  2   force =    -0.45777821    1.76465711  -38.22502745
     atom   23 type  2   force =     0.07237208   -0.58265095   38.04022975
     atom   24 type  1   force =     0.17367542   -1.27209336   -5.24746446
     atom   25 type  2   force =    -0.71490574   -0.21105376  -39.01101797
     atom   26 type  2   force =     0.17929827   -0.05972962   37.13649752
     atom   27 type  1   force =    -0.13654622   -0.74448654    1.98604757
     atom   28 type  2   force =    -0.08580733   -1.04480794  -37.98287012
     atom   29 type  2   force =     0.24238969    0.34073883   37.08883931
     atom   30 type  1   force =     0.12076378    1.26369053    0.07233899
     atom   31 type  2   force =    -1.24212326    0.04162137  -37.11116776
     atom   32 type  2   force =     0.42362496    0.07489547   38.27626218
     atom   33 type  1   force =    -0.79331877    0.82751664   -2.01009489
     atom   34 type  2   force =    -0.36047854    1.49037605  -38.88789715
     atom   35 type  2   force =     0.13043799   -0.40839034   37.59678089
     atom   36 type  3   force =    -0.12756433    0.67755511   -8.36227085
     The core correction contribution to forces
     atom    1 type  1   force =     0.00000000    0.00000000    0.00000000
     atom    2 type  2   force =    -0.00450855    0.01425947   -0.00112655
     atom    3 type  2   force =     0.00055100    0.00022018   -0.02120070
     atom    4 type  1   force =     0.00000000    0.00000000    0.00000000
     atom    5 type  2   force =    -0.00077530    0.00164869    0.02010326
     atom    6 type  2   force =     0.00025147   -0.00072465   -0.02081427
     atom    7 type  1   force =     0.00000000    0.00000000    0.00000000
     atom    8 type  2   force =    -0.00008335    0.00048163    0.02032492
     atom    9 type  2   force =    -0.00029471    0.00075565   -0.02089449
     atom   10 type  1   force =     0.00000000    0.00000000    0.00000000
     atom   11 type  2   force =    -0.00086067   -0.00089994    0.02004921
     atom   12 type  2   force =     0.00103026    0.00116751   -0.02070605
     atom   13 type  1   force =     0.00000000    0.00000000    0.00000000
     atom   14 type  2   force =    -0.00055212   -0.00028793    0.02022805
     atom   15 type  2   force =     0.00053272    0.00009832   -0.02065058
     atom   16 type  1   force =     0.00000000    0.00000000    0.00000000
     atom   17 type  2   force =     0.00013511    0.00166734    0.02019280
     atom   18 type  2   force =     0.00015026   -0.00027147   -0.02093495
     atom   19 type  1   force =     0.00000000    0.00000000    0.00000000
     atom   20 type  2   force =     0.00009107    0.00070817   -0.02104964
     atom   21 type  1   force =     0.00000000    0.00000000    0.00000000
     atom   22 type  2   force =     0.00007523   -0.00074064    0.02043889
     atom   23 type  2   force =    -0.00055269    0.00099361   -0.02084270
     atom   24 type  1   force =     0.00000000    0.00000000    0.00000000
     atom   25 type  2   force =     0.00048566   -0.00042675    0.02048137
     atom   26 type  2   force =    -0.00016807    0.00045132   -0.02082718
     atom   27 type  1   force =     0.00000000    0.00000000    0.00000000
     atom   28 type  2   force =     0.00031718    0.00205050    0.02072645
     atom   29 type  2   force =    -0.00059026   -0.00028510   -0.02064383
     atom   30 type  1   force =     0.00000000    0.00000000    0.00000000
     atom   31 type  2   force =     0.00044671    0.00011094    0.02051558
     atom   32 type  2   force =     0.00000659    0.00074668   -0.02097742
     atom   33 type  1   force =     0.00000000    0.00000000    0.00000000
     atom   34 type  2   force =     0.00077464    0.00032689    0.01979415
     atom   35 type  2   force =     0.00004198    0.00091598   -0.02103135
     atom   36 type  3   force =     0.00000000    0.00000000    0.00000000
     The Hubbard contrib.    to forces
     atom    1 type  1   force =     0.00000000    0.00000000    0.00000000
     atom    2 type  2   force =     0.00000000    0.00000000    0.00000000
     atom    3 type  2   force =     0.00000000    0.00000000    0.00000000
     atom    4 type  1   force =     0.00000000    0.00000000    0.00000000
     atom    5 type  2   force =     0.00000000    0.00000000    0.00000000
     atom    6 type  2   force =     0.00000000    0.00000000    0.00000000
     atom    7 type  1   force =     0.00000000    0.00000000    0.00000000
     atom    8 type  2   force =     0.00000000    0.00000000    0.00000000
     atom    9 type  2   force =     0.00000000    0.00000000    0.00000000
     atom   10 type  1   force =     0.00000000    0.00000000    0.00000000
     atom   11 type  2   force =     0.00000000    0.00000000    0.00000000
     atom   12 type  2   force =     0.00000000    0.00000000    0.00000000
     atom   13 type  1   force =     0.00000000    0.00000000    0.00000000
     atom   14 type  2   force =     0.00000000    0.00000000    0.00000000
     atom   15 type  2   force =     0.00000000    0.00000000    0.00000000
     atom   16 type  1   force =     0.00000000    0.00000000    0.00000000
     atom   17 type  2   force =     0.00000000    0.00000000    0.00000000
     atom   18 type  2   force =     0.00000000    0.00000000    0.00000000
     atom   19 type  1   force =     0.00000000    0.00000000    0.00000000
     atom   20 type  2   force =     0.00000000    0.00000000    0.00000000
     atom   21 type  1   force =     0.00000000    0.00000000    0.00000000
     atom   22 type  2   force =     0.00000000    0.00000000    0.00000000
     atom   23 type  2   force =     0.00000000    0.00000000    0.00000000
     atom   24 type  1   force =     0.00000000    0.00000000    0.00000000
     atom   25 type  2   force =     0.00000000    0.00000000    0.00000000
     atom   26 type  2   force =     0.00000000    0.00000000    0.00000000
     atom   27 type  1   force =     0.00000000    0.00000000    0.00000000
     atom   28 type  2   force =     0.00000000    0.00000000    0.00000000
     atom   29 type  2   force =     0.00000000    0.00000000    0.00000000
     atom   30 type  1   force =     0.00000000    0.00000000    0.00000000
     atom   31 type  2   force =     0.00000000    0.00000000    0.00000000
     atom   32 type  2   force =     0.00000000    0.00000000    0.00000000
     atom   33 type  1   force =     0.00000000    0.00000000    0.00000000
     atom   34 type  2   force =     0.00000000    0.00000000    0.00000000
     atom   35 type  2   force =     0.00000000    0.00000000    0.00000000
     atom   36 type  3   force =     0.00000000    0.00000000    0.00000000
     The SCF correction term to forces
     atom    1 type  1   force =    -0.00037697    0.00050081   -0.00073415
     atom    2 type  2   force =    -0.00004727   -0.00011527   -0.00017318
     atom    3 type  2   force =    -0.00001770    0.00000819   -0.00010228
     atom    4 type  1   force =    -0.00013997    0.00023194   -0.00042594
     atom    5 type  2   force =    -0.00009708    0.00023841   -0.00044955
     atom    6 type  2   force =    -0.00009077    0.00020763    0.00012917
     atom    7 type  1   force =     0.00008470   -0.00039423   -0.00056708
     atom    8 type  2   force =    -0.00006454   -0.00013392   -0.00040434
     atom    9 type  2   force =    -0.00007504   -0.00006955    0.00011109
     atom   10 type  1   force =    -0.00011037   -0.00033432   -0.00058564
     atom   11 type  2   force =    -0.00002111   -0.00013426   -0.00045399
     atom   12 type  2   force =    -0.00001647   -0.00012683    0.00006782
     atom   13 type  1   force =     0.00017178    0.00048303   -0.00054166
     atom   14 type  2   force =    -0.00007528    0.00005938   -0.00038273
     atom   15 type  2   force =    -0.00003718    0.00004660    0.00001640
     atom   16 type  1   force =     0.00005144    0.00001976   -0.00040247
     atom   17 type  2   force =     0.00009231    0.00013776   -0.00046586
     atom   18 type  2   force =     0.00008635    0.00012401    0.00018701
     atom   19 type  1   force =     0.00013552   -0.00035432   -0.00051039
     atom   20 type  2   force =     0.00010849   -0.00016364    0.00012696
     atom   21 type  1   force =     0.00006609   -0.00004308   -0.00053959
     atom   22 type  2   force =     0.00003353   -0.00003030   -0.00032089
     atom   23 type  2   force =     0.00002761   -0.00000886    0.00000732
     atom   24 type  1   force =     0.00018609    0.00044762   -0.00072026
     atom   25 type  2   force =     0.00012520    0.00004370   -0.00039026
     atom   26 type  2   force =     0.00006421    0.00003638   -0.00000876
     atom   27 type  1   force =     0.00009183   -0.00003024   -0.00036887
     atom   28 type  2   force =     0.00001167    0.00022569   -0.00041112
     atom   29 type  2   force =    -0.00000108    0.00015981    0.00005502
     atom   30 type  1   force =    -0.00019922   -0.00033894   -0.00054313
     atom   31 type  2   force =    -0.00003128   -0.00016643   -0.00029795
     atom   32 type  2   force =    -0.00003872   -0.00012179    0.00003311
     atom   33 type  1   force =     0.00008553   -0.00011086   -0.00060650
     atom   34 type  2   force =    -0.00003815   -0.00006445   -0.00041506
     atom   35 type  2   force =    -0.00001459   -0.00008123    0.00002195
     atom   36 type  3   force =    -0.00001316    0.00000862   -0.00008537

     Total force =     0.084294     Total SCF correction =     0.002742
     Energy error            =      2.5E-02 Ry
     Gradient error          =      3.4E-02 Ry/Bohr

     number of scf cycles    =   2
     number of bfgs steps    =   1

     energy             old  =   -2205.5280759313 Ry
     energy             new  =   -2205.5529562880 Ry

     CASE: energy            _new < energy            _old

     new trust radius        =       0.0392727908 bohr
     new conv_thr            =       0.0000000345 Ry


ATOMIC_POSITIONS (angstrom)
Mo            6.5570735457        1.7813969294        2.8096265171
S             8.1611808612        0.8619694431        4.3945661141
S             8.1796995824        0.8206175731        1.2718002365
Mo            8.1036112400        4.4887334585        2.7202523877
S             6.4945674649        3.7229142829        4.3393408613
S             6.5542046941        3.5189281196        1.1251015030
Mo            6.4903339424        7.2170422868        2.6644498547
S             8.0828492063        6.3375939417        4.2588606369
S             8.0958880313        6.3095445632        1.0956077161
Mo            8.1488045898        9.8973111169        2.8001192937
S             6.4976935121        8.9391803424        4.3757149147
S             6.6154998992        9.0485130963        1.1435263947
Mo            3.4279052498        1.7519056472        2.7752368922
S             4.9779649252        0.8181091009        4.3583747231
S             5.0474761185        0.8459085822        1.2156014877
Mo            4.9798517514        4.5165083239        2.6343010106
S             3.4338062810        3.6739580141        4.2812979713
S             3.4322325598        3.5431688929        1.0744096589
Mo            3.4634264442        7.2130646879        2.6289970597
S             4.9870504782        6.3213943692        1.0369077865
Mo            5.0103799009        9.9085555659        2.7425747484
S             3.4693596950        8.9426809768        4.3236156597
S             3.4085270782        9.0652910503        1.1030999202
Mo            0.3056064089        1.7452278793        2.8323963580
S             1.8698996887        0.8116665281        4.4015052660
S             1.8483363093        0.8534426863        1.2044046684
Mo            1.8556331252        4.4892960128        2.6693854434
S             0.2749721512        3.6590104019        4.3308909405
S             0.2345805408        3.5279419837        1.1685087796
Mo            0.2658875399        7.2260258430        2.6990016214
S             1.9041191565        6.3118666977        4.2371156729
S             1.8511187269        6.3155666448        1.0535602810
Mo            1.8545694714        9.9374423751        2.7670087879
S             0.2994469075        9.0457297733        4.4002195700
S             0.2688914546        9.0512586475        1.1616017797
H             8.4259073684       10.8910805718        5.4273403020



     Writing config-only to output data dir ./MoS2-V-O.save/
     NEW-OLD atomic charge density approx. for the potential

     negative rho (up, down):  1.410E-04 0.000E+00

     total cpu time spent up to now is      208.1 secs

     Self-consistent Calculation

     iteration #  1     ecut=    80.00 Ry     beta= 0.70
     Davidson diagonalization with overlap
     ethr =  1.00E-06,  avg # of iterations =  7.0

     negative rho (up, down):  1.114E-04 0.000E+00

     total cpu time spent up to now is      220.5 secs

     total energy              =   -2205.55882756 Ry
     estimated scf accuracy    <       0.00070378 Ry

     iteration #  2     ecut=    80.00 Ry     beta= 0.70
     Davidson diagonalization with overlap
     ethr =  2.29E-07,  avg # of iterations =  6.0

     negative rho (up, down):  1.022E-04 0.000E+00

     total cpu time spent up to now is      233.9 secs

     total energy              =   -2205.55890764 Ry
     estimated scf accuracy    <       0.00016815 Ry

     iteration #  3     ecut=    80.00 Ry     beta= 0.70
     Davidson diagonalization with overlap
     ethr =  5.48E-08,  avg # of iterations =  2.0

     negative rho (up, down):  9.025E-05 0.000E+00

     total cpu time spent up to now is      250.7 secs

     total energy              =   -2205.55892381 Ry
     estimated scf accuracy    <       0.00006265 Ry

     iteration #  4     ecut=    80.00 Ry     beta= 0.70
     Davidson diagonalization with overlap
     ethr =  2.04E-08,  avg # of iterations =  4.0

     negative rho (up, down):  8.763E-05 0.000E+00

     total cpu time spent up to now is      266.4 secs

     total energy              =   -2205.55893348 Ry
     estimated scf accuracy    <       0.00000503 Ry

     iteration #  5     ecut=    80.00 Ry     beta= 0.70
     Davidson diagonalization with overlap
     ethr =  1.64E-09,  avg # of iterations =  7.0

     negative rho (up, down):  8.956E-05 0.000E+00

     total cpu time spent up to now is      282.7 secs

     total energy              =   -2205.55893588 Ry
     estimated scf accuracy    <       0.00000143 Ry

     iteration #  6     ecut=    80.00 Ry     beta= 0.70
     Davidson diagonalization with overlap
     ethr =  4.64E-10,  avg # of iterations =  2.0

     negative rho (up, down):  9.353E-05 0.000E+00

     total cpu time spent up to now is      295.9 secs

     total energy              =   -2205.55893593 Ry
     estimated scf accuracy    <       0.00000041 Ry

     iteration #  7     ecut=    80.00 Ry     beta= 0.70
     Davidson diagonalization with overlap
     ethr =  1.32E-10,  avg # of iterations =  4.0

     negative rho (up, down):  9.738E-05 0.000E+00

     total cpu time spent up to now is      307.9 secs

     total energy              =   -2205.55893594 Ry
     estimated scf accuracy    <       0.00000020 Ry

     iteration #  8     ecut=    80.00 Ry     beta= 0.70
     Davidson diagonalization with overlap
     ethr =  6.47E-11,  avg # of iterations =  2.0

     negative rho (up, down):  1.061E-04 0.000E+00

     total cpu time spent up to now is      318.5 secs

     total energy              =   -2205.55893591 Ry
     estimated scf accuracy    <       0.00000010 Ry

     iteration #  9     ecut=    80.00 Ry     beta= 0.70
     Davidson diagonalization with overlap
     ethr =  3.20E-11,  avg # of iterations =  2.0

     negative rho (up, down):  1.375E-04 0.000E+00

     total cpu time spent up to now is      320.6 secs

     End of self-consistent calculation

          k = 0.0000 0.0000 0.0000 (105382 PWs)   bands (ev):

   -62.8650 -62.8199 -62.8079 -62.7954 -62.7918 -62.7885 -62.7691 -62.7632
   -62.7072 -62.6055 -62.5872 -62.5097 -37.1687 -37.1253 -37.1076 -37.0875
   -37.0715 -37.0605 -37.0577 -37.0330 -37.0145 -37.0067 -36.9965 -36.9873
   -36.9775 -36.9707 -36.9607 -36.9527 -36.9497 -36.9459 -36.9440 -36.9403
   -36.9032 -36.8802 -36.8560 -36.8315 -36.8214 -36.8093 -36.7954 -36.7923
   -36.7695 -36.7621 -36.7515 -36.7380 -36.6988 -36.6579 -36.5491 -36.5390
   -16.3005 -15.6540 -15.1262 -15.0188 -14.8923 -14.7998 -14.6315 -14.4295
   -14.3962 -14.3706 -14.3466 -14.3135 -14.2912 -14.2239 -14.1087 -14.0902
   -14.0449 -14.0329 -13.9715 -13.8824 -13.7725 -13.7504 -13.7271  -9.0201
    -7.5725  -7.3805  -7.2833  -7.2417  -7.2152  -7.1448  -7.1316  -7.0793
    -6.8042  -6.7519  -6.7163  -6.6610  -6.5248  -6.4843  -6.4275  -6.3870
    -6.2842  -6.2483  -6.1555  -5.9204  -5.8717  -5.8496  -5.7893  -5.7606
    -5.7174  -5.6725  -5.6017  -5.5936  -5.5592  -5.5126  -5.4839  -5.3989
    -5.3680  -5.2753  -5.2333  -5.1096  -5.0060  -4.9964  -4.9135  -4.9076
    -4.8799  -4.7625  -4.5976  -4.4948  -4.4132  -4.3153  -4.2332  -4.1922
    -4.1694  -4.0348  -3.9792  -3.8733  -3.7981  -3.7044  -3.6719  -3.6597
    -3.6152  -3.5435  -3.4960  -3.4813  -3.4391  -3.4183  -3.3737  -3.3192
    -3.3120  -3.1549  -3.0874  -2.8623  -2.8299  -2.7401  -2.7097  -2.6693
    -2.6493  -2.6393  -2.6120  -2.5349  -2.4654  -2.1870  -1.9435  -1.9288
    -1.8595  -0.7349  -0.5988  -0.5446  -0.1227  -0.0686  -0.0139   0.0030
     0.1057   0.1934   0.2158   0.2880   0.3239   0.3618   0.4391   0.5262
     0.5817   0.6082   0.6389   0.6658   0.6939   0.7250   0.7456   0.8012
     0.8384   0.8743   0.9251   0.9485   1.0353   1.0472   1.0883   1.2421
     1.4455

     the Fermi energy is    -0.7521 ev

!    total energy              =   -2205.55893579 Ry
     estimated scf accuracy    <       0.00000003 Ry
     smearing contrib. (-TS)   =      -0.00768895 Ry
     internal energy E=F+TS    =   -2205.55124684 Ry

     The total energy is F=E-TS. E is the sum of the following terms:
     one-electron contribution =  -18059.18221821 Ry
     hartree contribution      =    9016.98199039 Ry
     xc contribution           =    -385.40435445 Ry
     ewald contribution        =    7222.05333543 Ry

     convergence has been achieved in   9 iterations

     negative rho (up, down):  1.375E-04 0.000E+00

     Forces acting on atoms (cartesian axes, Ry/au):

     atom    1 type  1   force =    -0.01002911   -0.00146630   -0.00789067
     atom    2 type  2   force =     0.00567624   -0.01698899    0.02287335
     atom    3 type  2   force =    -0.00959265    0.00795747   -0.00985748
     atom    4 type  1   force =     0.00416754   -0.00207220    0.00249107
     atom    5 type  2   force =    -0.00338679   -0.00122344   -0.00562425
     atom    6 type  2   force =    -0.00024888    0.00588328    0.00066574
     atom    7 type  1   force =     0.00076723   -0.00302591   -0.00003917
     atom    8 type  2   force =    -0.00000107   -0.00423424    0.00736239
     atom    9 type  2   force =     0.01002201    0.00241243    0.00654645
     atom   10 type  1   force =    -0.00235768    0.00283002   -0.00630929
     atom   11 type  2   force =     0.00301977   -0.00130499   -0.00877383
     atom   12 type  2   force =    -0.00569674   -0.00180032   -0.00466906
     atom   13 type  1   force =     0.00271267    0.00001424   -0.00108021
     atom   14 type  2   force =     0.00133710    0.00102687    0.00438662
     atom   15 type  2   force =    -0.00970700   -0.00094080   -0.01084574
     atom   16 type  1   force =    -0.00042499    0.00444416    0.00067558
     atom   17 type  2   force =     0.00442777    0.00184576    0.00261113
     atom   18 type  2   force =    -0.00375729   -0.00187582    0.00937045
     atom   19 type  1   force =     0.00432023   -0.00347683    0.00233518
     atom   20 type  2   force =     0.00270686   -0.00386708   -0.00298179
     atom   21 type  1   force =    -0.00091170    0.00369257    0.00139444
     atom   22 type  2   force =     0.00043877   -0.00049262   -0.00187266
     atom   23 type  2   force =     0.00110469   -0.00108201    0.00242875
     atom   24 type  1   force =     0.00154052    0.00046542   -0.00569354
     atom   25 type  2   force =     0.01035131    0.01039670   -0.00181284
     atom   26 type  2   force =    -0.00324794   -0.00135687   -0.00509756
     atom   27 type  1   force =    -0.00158217    0.00055581    0.00560008
     atom   28 type  2   force =     0.00193801   -0.00061732   -0.00337820
     atom   29 type  2   force =     0.00333763    0.00097270   -0.00441848
     atom   30 type  1   force =    -0.00063787   -0.00136044    0.00427797
     atom   31 type  2   force =     0.00155097   -0.00010487    0.00639979
     atom   32 type  2   force =    -0.00639844    0.00295774    0.00742976
     atom   33 type  1   force =     0.00134378    0.00080077    0.00279879
     atom   34 type  2   force =    -0.00293793   -0.02139510   -0.01499814
     atom   35 type  2   force =    -0.00252953    0.00514088    0.00048767
     atom   36 type  3   force =     0.00268468    0.01728933    0.00520767
     The non-local contrib.  to forces
     atom    1 type  1   force =    -0.00556359    0.02723553   -0.02214471
     atom    2 type  2   force =     0.07271584   -0.22602808    0.08429953
     atom    3 type  2   force =    -0.01045147   -0.00531668    0.27469238
     atom    4 type  1   force =    -0.00199012    0.01601750    0.00401200
     atom    5 type  2   force =     0.00906799   -0.02595371   -0.24968961
     atom    6 type  2   force =    -0.00345594    0.00468906    0.26177961
     atom    7 type  1   force =    -0.02951684   -0.01334261   -0.01716052
     atom    8 type  2   force =     0.00209356   -0.00364193   -0.25795037
     atom    9 type  2   force =     0.00705211   -0.01488772    0.27285723
     atom   10 type  1   force =    -0.00274584   -0.01187042   -0.00365119
     atom   11 type  2   force =     0.01445321    0.00677689   -0.25280454
     atom   12 type  2   force =    -0.01434859   -0.01472532    0.25657903
     atom   13 type  1   force =     0.00063131    0.02581397   -0.01057104
     atom   14 type  2   force =     0.00435220   -0.00507223   -0.25508529
     atom   15 type  2   force =    -0.00964813   -0.00060555    0.26089090
     atom   16 type  1   force =     0.00045016    0.04702149   -0.02291678
     atom   17 type  2   force =    -0.00057815   -0.02966123   -0.24938260
     atom   18 type  2   force =    -0.00360922   -0.00409446    0.26955564
     atom   19 type  1   force =     0.02450920   -0.01419165   -0.01592343
     atom   20 type  2   force =    -0.00024899   -0.01881253    0.26135390
     atom   21 type  1   force =     0.00081550    0.01511143    0.00279270
     atom   22 type  2   force =    -0.00317279    0.00684278   -0.25819017
     atom   23 type  2   force =     0.00812831   -0.01214955    0.26535761
     atom   24 type  1   force =     0.00444794    0.01312564   -0.01881740
     atom   25 type  2   force =    -0.00089396    0.00059651   -0.26076836
     atom   26 type  2   force =     0.00295207   -0.00780260    0.26233464
     atom   27 type  1   force =     0.00362336    0.01470566    0.00845200
     atom   28 type  2   force =    -0.00370964   -0.02963300   -0.26942740
     atom   29 type  2   force =     0.00716921   -0.00249430    0.26325919
     atom   30 type  1   force =     0.00207607    0.01273263    0.00345677
     atom   31 type  2   force =    -0.00699440    0.00044599   -0.25930170
     atom   32 type  2   force =    -0.00186954   -0.01398039    0.27376907
     atom   33 type  1   force =    -0.00171291   -0.00016888    0.00440721
     atom   34 type  2   force =    -0.00606447   -0.01850580   -0.25516500
     atom   35 type  2   force =    -0.00094635   -0.01135696    0.26547789
     atom   36 type  3   force =    -0.01015994    0.03743444   -0.04139611
     The ionic contribution  to forces
     atom    1 type  1   force =     0.36527721    0.60555474    4.89266457
     atom    2 type  2   force =    -0.76967868    1.08950537   37.62837330
[...]
     atom   27 type  1   force =     0.00384564    0.01676386    0.00399195
     atom   28 type  2   force =    -0.00165976   -0.02632969   -0.25950275
     atom   29 type  2   force =    -0.00015785   -0.01051438    0.26656242
     atom   30 type  1   force =     0.00667742    0.01159406    0.00461933
     atom   31 type  2   force =    -0.01157542    0.00000205   -0.26382263
     atom   32 type  2   force =     0.00309285   -0.01304668    0.26797398
     atom   33 type  1   force =     0.00309190    0.00080162    0.00288179
     atom   34 type  2   force =    -0.00864737    0.00041936   -0.26323215
     atom   35 type  2   force =    -0.00142831   -0.01533718    0.26820625
     atom   36 type  3   force =    -0.00251134   -0.00541018   -0.06242923
     The ionic contribution  to forces
     atom    1 type  1   force =     0.32176242    0.02056301    2.62509289
     atom    2 type  2   force =    -0.24784227   -0.18834928   35.99136634
     atom    3 type  2   force =     0.01364023   -0.29430810  -36.60507046
     atom    4 type  1   force =    -0.13486943    0.63548671    0.05358602
     atom    5 type  2   force =    -0.85993091    1.36361975   38.59542660
     atom    6 type  2   force =     0.34598036   -0.36552190  -38.44567652
     atom    7 type  1   force =    -2.60690761   -1.90037202    3.60578083
     atom    8 type  2   force =    -1.08912765    0.21191391   38.10934369
     atom    9 type  2   force =     0.22888116    0.20767703  -37.69821468
     atom   10 type  1   force =    -0.58007645   -0.04397980    4.12919979
     atom   11 type  2   force =    -0.52661683   -1.42584038   38.79922247
     atom   12 type  2   force =     0.23969904    0.36053957  -37.59543513
     atom   13 type  1   force =     0.11673758    0.61772381    2.11440298
     atom   14 type  2   force =     0.00862591   -0.15662212   38.66703445
     atom   15 type  2   force =     0.19870961   -0.29025192  -37.63573447
     atom   16 type  1   force =    -0.66012278    4.04140174    0.75657867
     atom   17 type  2   force =     0.85109303    1.40918193   38.20377932
     atom   18 type  2   force =    -0.15401582   -0.21447927  -38.12182653
     atom   19 type  1   force =     2.64397451   -2.54485979    1.65245694
     atom   20 type  2   force =    -0.03098438    0.06495573  -38.55637917
     atom   21 type  1   force =     0.48702579   -0.32638689    1.45648995
     atom   22 type  2   force =     0.40869794   -1.51511583   38.69535325
     atom   23 type  2   force =    -0.15624010    0.35295029  -38.05899485
     atom   24 type  1   force =    -0.49690092   -0.13196130    2.10034900
     atom   25 type  2   force =     0.22768058   -0.05008572   38.90489502
     atom   26 type  2   force =    -0.18857599   -0.22958878  -37.65036222
     atom   27 type  1   force =     0.60057342    0.97304526    0.49337162
     atom   28 type  2   force =     0.03083413    0.67030154   38.31015524
     atom   29 type  2   force =    -0.10677793   -0.11351162  -37.96115839
     atom   30 type  1   force =    -0.13787909   -0.74605590    1.78483184
     atom   31 type  2   force =     1.37692761    0.09349067   38.08678975
     atom   32 type  2   force =    -0.24501522    0.03556024  -37.92105101
     atom   33 type  1   force =     0.11250542   -0.43715908    2.87904212
     atom   34 type  2   force =     0.09359629   -0.49643889   38.97382738
     atom   35 type  2   force =    -0.10681760    0.29198666  -37.45729976
     atom   36 type  3   force =     0.02175593    0.12049072    8.71882705
     The local contribution  to forces
     atom    1 type  1   force =    -0.30767018   -0.05091529   -2.61296794
     atom    2 type  2   force =     0.23365524    0.15924413  -36.24740691
     atom    3 type  2   force =    -0.01169387    0.30378986   36.33948240
     atom    4 type  1   force =     0.13801177   -0.64929986   -0.05733461
     atom    5 type  2   force =     0.85250803   -1.33227052  -38.36896322
     atom    6 type  2   force =    -0.34636833    0.37129653   38.20556585
     atom    7 type  1   force =     2.64994844    1.91539840   -3.58178195
     atom    8 type  2   force =     1.08287957   -0.21158498  -37.86490357
     atom    9 type  2   force =    -0.22661542   -0.18768285   37.45066072
     atom   10 type  1   force =     0.57904851    0.06284849   -4.11503916
     atom   11 type  2   force =     0.51714636    1.41831039  -38.56528572
     atom   12 type  2   force =    -0.23213125   -0.34788137   37.35042627
     atom   13 type  1   force =    -0.11669282   -0.64706149   -2.10690831
     atom   14 type  2   force =    -0.01566570    0.16043142  -38.43145867
     atom   15 type  2   force =    -0.19686408    0.29402715   37.39564338
     atom   16 type  1   force =     0.67013866   -4.09740451   -0.73615280
     atom   17 type  2   force =    -0.84348387   -1.38533885  -37.97156440
     atom   18 type  2   force =     0.15283522    0.22067628   37.87829304
     atom   19 type  1   force =    -2.67215048    2.55521899   -1.64512379
     atom   20 type  2   force =     0.03179598   -0.05049079   38.31589912
     atom   21 type  1   force =    -0.48237078    0.31340063   -1.45908560
     atom   22 type  2   force =    -0.40232505    1.50671377  -38.45937651
     atom   23 type  2   force =     0.15146074   -0.34539055   37.81724502
     atom   24 type  1   force =     0.48161627    0.10664443   -2.08949056
     atom   25 type  2   force =    -0.22014847    0.05572211  -38.66803234
     atom   26 type  2   force =     0.18541519    0.23657219   37.40489099
     atom   27 type  1   force =    -0.60516788   -0.98938054   -0.49721668
     atom   28 type  2   force =    -0.02940817   -0.64594847  -38.07008548
     atom   29 type  2   force =     0.10612523    0.12380381   37.71580216
     atom   30 type  1   force =     0.13078561    0.73428052   -1.78879923
     atom   31 type  2   force =    -1.36572518   -0.09240755  -37.84408657
     atom   32 type  2   force =     0.24128242   -0.02283622   37.67380395
     atom   33 type  1   force =    -0.11565543    0.43615260   -2.88204113
     atom   34 type  2   force =    -0.08617562    0.49664519  -38.73093714
     atom   35 type  2   force =     0.10776626   -0.27897941   37.21124542
     atom   36 type  3   force =    -0.01945004   -0.11481821   -8.65622002
     The core correction contribution to forces
     atom    1 type  1   force =     0.00000000    0.00000000    0.00000000
     atom    2 type  2   force =    -0.00095417   -0.00204104   -0.01091383
     atom    3 type  2   force =     0.00008065    0.00028770   -0.02155958
     atom    4 type  1   force =     0.00000000    0.00000000    0.00000000
     atom    5 type  2   force =    -0.00067738    0.00203933    0.01987423
     atom    6 type  2   force =     0.00019527    0.00004653   -0.02081234
     atom    7 type  1   force =     0.00000000    0.00000000    0.00000000
     atom    8 type  2   force =    -0.00026036    0.00018746    0.02060136
     atom    9 type  2   force =     0.00022626    0.00126446   -0.02074749
     atom   10 type  1   force =     0.00000000    0.00000000    0.00000000
     atom   11 type  2   force =    -0.00071138   -0.00080397    0.02017891
     atom   12 type  2   force =     0.00054043    0.00073717   -0.02084013
     atom   13 type  1   force =     0.00000000    0.00000000    0.00000000
     atom   14 type  2   force =    -0.00067014   -0.00016699    0.02026262
     atom   15 type  2   force =     0.00010527   -0.00005099   -0.02067383
     atom   16 type  1   force =     0.00000000    0.00000000    0.00000000
     atom   17 type  2   force =     0.00065964    0.00134028    0.02020220
     atom   18 type  2   force =    -0.00006561    0.00009009   -0.02073212
     atom   19 type  1   force =     0.00000000    0.00000000    0.00000000
     atom   20 type  2   force =    -0.00004123    0.00067817   -0.02105665
     atom   21 type  1   force =     0.00000000    0.00000000    0.00000000
     atom   22 type  2   force =     0.00018572   -0.00084978    0.02035308
     atom   23 type  2   force =    -0.00046837    0.00075429   -0.02072838
     atom   24 type  1   force =     0.00000000    0.00000000    0.00000000
     atom   25 type  2   force =     0.00069808    0.00014286    0.02025075
     atom   26 type  2   force =    -0.00021638    0.00013712   -0.02097052
     atom   27 type  1   force =     0.00000000    0.00000000    0.00000000
     atom   28 type  2   force =     0.00018214    0.00186356    0.02040896
     atom   29 type  2   force =     0.00002353    0.00052240   -0.02086810
     atom   30 type  1   force =     0.00000000    0.00000000    0.00000000
     atom   31 type  2   force =     0.00081194    0.00025878    0.02065909
     atom   32 type  2   force =    -0.00024134    0.00074272   -0.02084648
     atom   33 type  1   force =     0.00000000    0.00000000    0.00000000
     atom   34 type  2   force =     0.00073990   -0.00034608    0.02064685
     atom   35 type  2   force =     0.00011245    0.00089316   -0.02106495
     atom   36 type  3   force =     0.00000000    0.00000000    0.00000000
     The Hubbard contrib.    to forces
     atom    1 type  1   force =     0.00000000    0.00000000    0.00000000
     atom    2 type  2   force =     0.00000000    0.00000000    0.00000000
     atom    3 type  2   force =     0.00000000    0.00000000    0.00000000
     atom    4 type  1   force =     0.00000000    0.00000000    0.00000000
     atom    5 type  2   force =     0.00000000    0.00000000    0.00000000
     atom    6 type  2   force =     0.00000000    0.00000000    0.00000000
     atom    7 type  1   force =     0.00000000    0.00000000    0.00000000
     atom    8 type  2   force =     0.00000000    0.00000000    0.00000000
     atom    9 type  2   force =     0.00000000    0.00000000    0.00000000
     atom   10 type  1   force =     0.00000000    0.00000000    0.00000000
     atom   11 type  2   force =     0.00000000    0.00000000    0.00000000
     atom   12 type  2   force =     0.00000000    0.00000000    0.00000000
     atom   13 type  1   force =     0.00000000    0.00000000    0.00000000
     atom   14 type  2   force =     0.00000000    0.00000000    0.00000000
     atom   15 type  2   force =     0.00000000    0.00000000    0.00000000
     atom   16 type  1   force =     0.00000000    0.00000000    0.00000000
     atom   17 type  2   force =     0.00000000    0.00000000    0.00000000
     atom   18 type  2   force =     0.00000000    0.00000000    0.00000000
     atom   19 type  1   force =     0.00000000    0.00000000    0.00000000
     atom   20 type  2   force =     0.00000000    0.00000000    0.00000000
     atom   21 type  1   force =     0.00000000    0.00000000    0.00000000
     atom   22 type  2   force =     0.00000000    0.00000000    0.00000000
     atom   23 type  2   force =     0.00000000    0.00000000    0.00000000
     atom   24 type  1   force =     0.00000000    0.00000000    0.00000000
     atom   25 type  2   force =     0.00000000    0.00000000    0.00000000
     atom   26 type  2   force =     0.00000000    0.00000000    0.00000000
     atom   27 type  1   force =     0.00000000    0.00000000    0.00000000
     atom   28 type  2   force =     0.00000000    0.00000000    0.00000000
     atom   29 type  2   force =     0.00000000    0.00000000    0.00000000
     atom   30 type  1   force =     0.00000000    0.00000000    0.00000000
     atom   31 type  2   force =     0.00000000    0.00000000    0.00000000
     atom   32 type  2   force =     0.00000000    0.00000000    0.00000000
     atom   33 type  1   force =     0.00000000    0.00000000    0.00000000
     atom   34 type  2   force =     0.00000000    0.00000000    0.00000000
     atom   35 type  2   force =     0.00000000    0.00000000    0.00000000
     atom   36 type  3   force =     0.00000000    0.00000000    0.00000000
     The SCF correction term to forces
     atom    1 type  1   force =     0.00000416   -0.00000762    0.00000948
     atom    2 type  2   force =    -0.00001402   -0.00001645   -0.00001535
     atom    3 type  2   force =     0.00000315    0.00000026    0.00000860
     atom    4 type  1   force =    -0.00001625   -0.00000986   -0.00002325
     atom    5 type  2   force =    -0.00001071   -0.00000596   -0.00000195
     atom    6 type  2   force =    -0.00000262    0.00000613    0.00000596
     atom    7 type  1   force =     0.00000955    0.00000794    0.00001815
     atom    8 type  2   force =    -0.00001797    0.00000575   -0.00000205
     atom    9 type  2   force =    -0.00000366   -0.00000506    0.00000202
     atom   10 type  1   force =    -0.00002720    0.00001493    0.00002135
     atom   11 type  2   force =     0.00000182    0.00000932    0.00000114
     atom   12 type  2   force =     0.00000893    0.00000023    0.00002109
     atom   13 type  1   force =     0.00002288    0.00000601   -0.00001306
     atom   14 type  2   force =     0.00001288   -0.00000553    0.00001088
     atom   15 type  2   force =    -0.00000192    0.00000743    0.00000923
     atom   16 type  1   force =     0.00002077   -0.00001784   -0.00000195
     atom   17 type  2   force =     0.00001646   -0.00000247   -0.00001914
     atom   18 type  2   force =    -0.00000493    0.00000214    0.00000368
     atom   19 type  1   force =     0.00003750   -0.00000973    0.00000083
     atom   20 type  2   force =     0.00001193   -0.00001616    0.00000368
     atom   21 type  1   force =     0.00004036    0.00001911    0.00004002
     atom   22 type  2   force =     0.00002445    0.00001448    0.00001413
     atom   23 type  2   force =    -0.00000044    0.00001353   -0.00000469
     atom   24 type  1   force =    -0.00001504   -0.00000035   -0.00002343
     atom   25 type  2   force =     0.00000892   -0.00000270   -0.00001573
     atom   26 type  2   force =    -0.00000233    0.00000761   -0.00000714
     atom   27 type  1   force =     0.00001084   -0.00003492   -0.00003679
     atom   28 type  2   force =    -0.00000667   -0.00000055   -0.00001785
     atom   29 type  2   force =     0.00000339    0.00000133   -0.00000948
     atom   30 type  1   force =    -0.00003433    0.00000017   -0.00000676
     atom   31 type  2   force =    -0.00000614   -0.00000664   -0.00000157
     atom   32 type  2   force =    -0.00001302   -0.00002295   -0.00001644
     atom   33 type  1   force =    -0.00001071    0.00003181   -0.00001062
     atom   34 type  2   force =    -0.00002376    0.00001050   -0.00000777
     atom   35 type  2   force =    -0.00001139    0.00000992   -0.00000186
     atom   36 type  3   force =    -0.00000355   -0.00000144   -0.00000048

     Total force =     0.006339     Total SCF correction =     0.000152
     Energy error            =      9.9E-05 Ry
     Gradient error          =      1.5E-03 Ry/Bohr

     bfgs converged in  40 scf cycles and  39 bfgs steps
     (criteria: energy <  1.0E-04 Ry, force <  1.0E-02 Ry/Bohr)

     End of BFGS Geometry Optimization

     Final energy             =   -2205.5910051769 Ry

     File ./MoS2-V-O.bfgs deleted, as requested
Begin final coordinates

ATOMIC_POSITIONS (angstrom)
Mo            6.5359218698        1.7622996014        2.7662045970
S             8.1373327668        0.8305927471        4.2849856635
S             8.1428882362        0.8026222245        1.2197978760
Mo            8.1396895746        4.4514662211        2.7043456146
S             6.5294518763        3.6700759417        4.3198600630
S             6.5718268344        3.5301350298        1.0919935156
Mo            6.5059620595        7.1385777286        2.6876503958
S             8.1009125006        6.2615727013        4.2981354459
S             8.1451444055        6.2921391424        1.1209211883
Mo            8.1386517600        9.8589490459        2.7970907967
S             6.4977539770        8.8889461050        4.3542722084
S             6.5955098227        8.9915126937        1.1489049067
Mo            3.4309438632        1.7322377684        2.7513347475
S             4.9832791327        0.8043338867        4.3461035965
S             5.0005275046        0.8146323578        1.1625638961
Mo            5.0220757395        4.4948218432        2.6357848176
S             3.4841503855        3.6439159160        4.2952249134
S             3.4306279954        3.5365718696        1.1004370067
Mo            3.4763359291        7.1993618424        2.6504276172
S             4.9952569253        6.2876244190        1.0401585244
Mo            4.9988587412        9.8920742697        2.7383603904
S             3.4707097183        8.9397248836        4.3340234132
S             3.4051286829        9.0362901259        1.1216583602
Mo            0.3004177740        1.7437358399        2.7691798701
S             1.8683754793        0.8336817076        4.3672261066
S             1.8476297377        0.8198980902        1.1692974189
Mo            1.8749580737        4.4663921398        2.7072540768
S             0.2871960686        3.6021268546        4.3164817300
S             0.2853632346        3.5341146798        1.1297301555
Mo            0.2846325919        7.1841525971        2.7344458606
S             1.9347874023        6.2813512621        4.2927194777
S             1.8568891879        6.2959429697        1.1052010163
Mo            1.8521658982        9.9193631736        2.7688487447
S             0.2910327906        8.9707654115        4.3707192418
S             0.2648463136        9.0210728717        1.1761260570
H             8.1911210477       11.8767704483        5.6488535087
End final coordinates



     Writing all to output data dir ./MoS2-V-O.save/
 
     init_run     :      3.13s CPU      3.31s WALL (       1 calls)
     electrons    :   3864.70s CPU   4295.00s WALL (      40 calls)
     update_pot   :     54.78s CPU     57.30s WALL (      39 calls)
     forces       :     53.24s CPU     60.79s WALL (      40 calls)

     Called by init_run:
     wfcinit      :      0.40s CPU      0.43s WALL (       1 calls)
     potinit      :      2.04s CPU      2.13s WALL (       1 calls)
     hinit0       :      0.17s CPU      0.18s WALL (       1 calls)

     Called by electrons:
     c_bands      :    433.62s CPU    439.94s WALL (     345 calls)
     sum_band     :    104.45s CPU    131.30s WALL (     345 calls)
     v_of_rho     :    146.87s CPU    174.97s WALL (     371 calls)
     newd         :     49.92s CPU     75.04s WALL (     371 calls)
     mix_rho      :   3146.61s CPU   3490.71s WALL (     345 calls)

     Called by c_bands:
     init_us_2    :      7.56s CPU      7.85s WALL (     691 calls)
     init_us_2:cp :      7.55s CPU      7.85s WALL (     691 calls)
     regterg      :    408.55s CPU    414.52s WALL (     345 calls)

     Called by *egterg:
     rdiaghg      :     32.01s CPU     32.32s WALL (    1863 calls)
     h_psi        :    230.28s CPU    232.49s WALL (    1917 calls)
     s_psi        :     28.35s CPU     28.45s WALL (    1917 calls)
     g_psi        :      2.14s CPU      2.16s WALL (    1571 calls)

     Called by h_psi:
     h_psi:calbec :     31.93s CPU     32.07s WALL (    1917 calls)
     vloc_psi     :    166.55s CPU    168.43s WALL (    1917 calls)
     add_vuspsi   :     27.94s CPU     28.09s WALL (    1917 calls)

     General routines
     calbec       :     45.33s CPU     45.52s WALL (    2422 calls)
     fft          :     99.20s CPU    115.07s WALL (   24964 calls)
     ffts         :   1396.78s CPU   1729.19s WALL (  768829 calls)
     fftw         :    146.62s CPU    148.07s WALL (  210183 calls)
     interpolate  :      2.70s CPU      3.14s WALL (     371 calls)
 
     Parallel routines
 
     PWSCF        :      1h 6m CPU      1h13m WALL

 
   This run was terminated on:  12:54:50   4Nov2023            

=------------------------------------------------------------------------------=
   JOB DONE.
=------------------------------------------------------------------------------=
