
     Program PWSCF v.7.2 starts on  4Nov2023 at  2: 0:20 

     This program is part of the open-source Quantum ESPRESSO suite
     for quantum simulation of materials; please cite
         "P. Giannozzi et al., J. Phys.:Condens. Matter 21 395502 (2009);
         "P. Giannozzi et al., J. Phys.:Condens. Matter 29 465901 (2017);
         "P. Giannozzi et al., J. Chem. Phys. 152 154105 (2020);
          URL http://www.quantum-espresso.org", 
     in publications or presentations arising from this work. More details at
     http://www.quantum-espresso.org/quote

     Parallel version (MPI & OpenMP), running on      48 processor cores
     Number of MPI processes:                48
     Threads/MPI process:                     1

     MPI processes distributed on     1 nodes
     64616 MiB available memory on the printing compute node when the environment starts
 
     Waiting for input...
     Reading input from standard input
Warning: card &CELL ignored
Warning: card CELL_DYNAMICS = 'BFGS', ignored
Warning: card CELL_DOFREE = '2DXY' ignored
Warning: card / ignored

     Current dimensions of program PWSCF are:
     Max number of different atomic species (ntypx) = 10
     Max number of k-points (npk) =  40000
     Max angular momentum in pseudopotentials (lmaxx) =  4

     IMPORTANT: XC functional enforced from input :
     Exchange-correlation= RVV10
                           (   1   4  13   4  26   0   0)
     Any further DFT definition will be discarded
     Please, verify this is what you really want


     gamma-point specific algorithms are used
     signal trapping enabled: kill the code with -SIGUSR1 to stop cleanly the simulation 
 
     R & G space division:  proc/nbgrp/npool/nimage =      48
     Subspace diagonalization in iterative solution of the eigenvalue problem:
     one sub-group per band group will be used
     scalapack distributed-memory algorithm (size of sub-group:  2*  2 procs)

 
     Parallelization info
     --------------------
     sticks:   dense  smooth     PW     G-vecs:    dense   smooth      PW
     Min         243     194     47                49060    35090    4376
     Max         246     196     50                49086    35128    4410
     Sum       11735    9389   2349              2355467  1685513  210763
 
     Using Slab Decomposition
 


     bravais-lattice index     =            0
     lattice parameter (alat)  =      17.8707  a.u.
     unit-cell volume          =   17436.2743 (a.u.)^3
     number of atoms/cell      =           36
     number of atomic types    =            3
     number of electrons       =       307.00
     number of Kohn-Sham states=          185
     kinetic-energy cutoff     =      80.0000  Ry
     charge density cutoff     =     400.0000  Ry
     scf convergence threshold =      1.0E-06
     mixing beta               =       0.7000
     number of iterations used =            8  local-TF  mixing
     energy convergence thresh.=      1.0E-04
     force convergence thresh. =      1.0E-02
     Exchange-correlation= RVV10
                           (   1   4  13   4  26   0   0)
     nstep                     =          200


     celldm(1)=  17.870686  celldm(2)=   0.000000  celldm(3)=   0.000000
     celldm(4)=   0.000000  celldm(5)=   0.000000  celldm(6)=   0.000000

     crystal axes: (cart. coord. in units of alat)
               a(1) = (   1.000000   0.000000   0.000000 )  
               a(2) = (   0.000000   1.155671   0.000000 )  
               a(3) = (   0.000000   0.000000   2.643601 )  

     reciprocal axes: (cart. coord. in units 2 pi/alat)
               b(1) = (  1.000000  0.000000  0.000000 )  
               b(2) = (  0.000000  0.865298  0.000000 )  
               b(3) = (  0.000000  0.000000  0.378272 )  


     PseudoPot. # 1 for Mo read from file:
     ../pseudo/Mo_ONCV_PBE-1.0.oncvpsp.upf
     MD5 check sum: 1b5d28e075c9ccadda658a603575cd1f
     Pseudo is Norm-conserving, Zval = 14.0
     Generated using ONCVPSP code by D. R. Hamann
     Using radial grid of 1526 points,  6 beta functions with: 
                l(1) =   0
                l(2) =   0
                l(3) =   1
                l(4) =   1
                l(5) =   2
                l(6) =   2

     PseudoPot. # 2 for S  read from file:
     ../pseudo/s_pbe_v1.4.uspp.F.UPF
     MD5 check sum: 88d86576ff6df21479756cfb9bdac1df
     Pseudo is Ultrasoft + core correction, Zval =  6.0
     Generated by new atomic code, or converted to UPF format
     Using radial grid of  907 points,  6 beta functions with: 
                l(1) =   0
                l(2) =   0
                l(3) =   1
                l(4) =   1
                l(5) =   2
                l(6) =   2
     Q(r) pseudized with  8 coefficients,  rinner =    1.300   1.300   1.300
                                                       1.300   1.300

     PseudoPot. # 3 for H  read from file:
     ../pseudo/H_ONCV_PBE-1.0.oncvpsp.upf
     MD5 check sum: 1790becc920ee074925cf490c71280fe
     Pseudo is Norm-conserving, Zval =  1.0
     Generated using ONCVPSP code by D. R. Hamann
     Using radial grid of 1166 points,  2 beta functions with: 
                l(1) =   0
                l(2) =   0

     atomic species   valence    mass     pseudopotential
        Mo            14.00    95.94000     Mo( 1.00)
        S              6.00    32.06500     S ( 1.00)
        H              1.00     1.00794     H ( 1.00)

     No symmetry found



   Cartesian axes

     site n.     atom                  positions (alat units)
         1           Mo  tau(   1) = (   0.6952221   0.1890506   0.2985846  )
         2           S   tau(   2) = (   0.8646417   0.0856217   0.4689279  )
         3           S   tau(   3) = (   0.8663890   0.0857843   0.1351291  )
         4           Mo  tau(   4) = (   0.8560186   0.4753274   0.2873942  )
         5           S   tau(   5) = (   0.6873294   0.3936244   0.4596353  )
         6           S   tau(   6) = (   0.6929804   0.3713468   0.1185692  )
         7           Mo  tau(   7) = (   0.6862796   0.7633098   0.2825370  )
         8           S   tau(   8) = (   0.8545980   0.6708292   0.4486168  )
         9           S   tau(   9) = (   0.8545123   0.6666874   0.1146125  )
        10           Mo  tau(  10) = (   0.8629403   1.0471007   0.3006803  )
        11           S   tau(  11) = (   0.6868280   0.9456650   0.4634891  )
        12           S   tau(  12) = (   0.6998113   0.9568511   0.1205389  )
        13           Mo  tau(  13) = (   0.3618216   0.1847309   0.2935964  )
        14           S   tau(  14) = (   0.5260962   0.0863870   0.4600448  )
        15           S   tau(  15) = (   0.5348379   0.0894875   0.1297123  )
        16           Mo  tau(  16) = (   0.5265817   0.4772436   0.2784130  )
        17           S   tau(  17) = (   0.3624753   0.3882513   0.4525556  )
        18           S   tau(  18) = (   0.3635411   0.3752055   0.1119148  )
        19           Mo  tau(  19) = (   0.3652268   0.7630864   0.2781795  )
        20           S   tau(  20) = (   0.5269494   0.6690381   0.1096838  )
        21           Mo  tau(  21) = (   0.5300192   1.0470394   0.2900995  )
        22           S   tau(  22) = (   0.3670346   0.9457522   0.4574073  )
        23           S   tau(  23) = (   0.3604225   0.9585725   0.1159032  )
        24           Mo  tau(  24) = (   0.0313099   0.1847895   0.3013130  )
        25           S   tau(  25) = (   0.1956761   0.0838230   0.4650863  )
        26           S   tau(  26) = (   0.1967693   0.0903508   0.1278874  )
        27           Mo  tau(  27) = (   0.1967578   0.4753919   0.2813011  )
        28           S   tau(  28) = (   0.0287851   0.3864324   0.4586755  )
        29           S   tau(  29) = (   0.0244514   0.3729871   0.1239344  )
        30           Mo  tau(  30) = (   0.0286728   0.7631204   0.2856894  )
        31           S   tau(  31) = (   0.2011512   0.6675435   0.4465001  )
        32           S   tau(  32) = (   0.1969214   0.6672839   0.1104564  )
        33           Mo  tau(  33) = (   0.1950294   1.0511147   0.2932237  )
        34           S   tau(  34) = (   0.0312912   0.9612169   0.4667423  )
        35           S   tau(  35) = (   0.0292670   0.9563028   0.1216485  )
        36           H   tau(  36) = (   0.0000000   0.5136314   0.5650415  )

     number of k points=     1  Gaussian smearing, width (Ry)=  0.0100
                       cart. coord. in units 2pi/alat
        k(    1) = (   0.0000000   0.0000000   0.0000000), wk =   2.0000000

     Dense  grid:  1177734 G-vectors     FFT dimensions: ( 120, 135, 320)

     Smooth grid:   842757 G-vectors     FFT dimensions: ( 108, 120, 270)

     Estimated max dynamical RAM per process >     146.59 MB

     Estimated total dynamical RAM >       6.87 GB

     Initial potential from superposition of free atoms

     starting charge     306.9873, renormalised to     307.0000

     negative rho (up, down):  1.408E-04 0.000E+00


---------------------------------------------------------------------------------
Carrying out rVV10 run using the following parameters:
Nqs =      20    Nr_points =    1024   r_max =   100.000
b_value =  6.30000    beta =  0.00901
     q_mesh =  0.00010000  0.00030000  0.00058939  0.00100810
               0.00161396  0.00249058  0.00375900  0.00559430
               0.00824984  0.01209221  0.01765183  0.02569619
               0.03733578  0.05417739  0.07854596  0.11380545
               0.16482331  0.23864234  0.34545298  0.50000000

Gradients computed in Reciprocal space

---------------------------------------------------------------------------------


     Starting wfcs are  213 randomized atomic wfcs

     total cpu time spent up to now is        2.8 secs

     Self-consistent Calculation

     iteration #  1     ecut=    80.00 Ry     beta= 0.70
     Davidson diagonalization with overlap
     ethr =  1.00E-02,  avg # of iterations =  2.0

     Threshold (ethr) on eigenvalues was too large:
     Diagonalizing with lowered threshold

     Davidson diagonalization with overlap
     ethr =  3.90E-04,  avg # of iterations =  4.0

     negative rho (up, down):  1.813E-08 0.000E+00

     total cpu time spent up to now is       24.0 secs

     total energy              =   -2205.59938926 Ry
     estimated scf accuracy    <       1.48044634 Ry

     iteration #  2     ecut=    80.00 Ry     beta= 0.70
     Davidson diagonalization with overlap
     ethr =  4.82E-04,  avg # of iterations =  2.0

     total cpu time spent up to now is       26.7 secs

     total energy              =   -2205.49590554 Ry
     estimated scf accuracy    <       0.60057193 Ry

     iteration #  3     ecut=    80.00 Ry     beta= 0.70
     Davidson diagonalization with overlap
     ethr =  1.96E-04,  avg # of iterations =  4.0

     total cpu time spent up to now is       29.4 secs

     total energy              =   -2205.51135600 Ry
     estimated scf accuracy    <       0.23937159 Ry

     iteration #  4     ecut=    80.00 Ry     beta= 0.70
     Davidson diagonalization with overlap
     ethr =  7.80E-05,  avg # of iterations =  8.0

     total cpu time spent up to now is       32.3 secs

     total energy              =   -2205.53874384 Ry
     estimated scf accuracy    <       0.03426156 Ry

     iteration #  5     ecut=    80.00 Ry     beta= 0.70
     Davidson diagonalization with overlap
     c_bands:  1 eigenvalues not converged
     ethr =  1.12E-05,  avg # of iterations = 20.0

     total cpu time spent up to now is       35.4 secs

     total energy              =   -2205.53946660 Ry
     estimated scf accuracy    <       0.01813532 Ry

     iteration #  6     ecut=    80.00 Ry     beta= 0.70
     Davidson diagonalization with overlap
     c_bands:  1 eigenvalues not converged
     ethr =  5.91E-06,  avg # of iterations = 20.0

     total cpu time spent up to now is       38.5 secs

     total energy              =   -2205.53862261 Ry
     estimated scf accuracy    <       0.01334112 Ry

     iteration #  7     ecut=    80.00 Ry     beta= 0.70
     Davidson diagonalization with overlap
     ethr =  4.35E-06,  avg # of iterations =  2.0

     total cpu time spent up to now is       42.5 secs

     total energy              =   -2205.53679872 Ry
     estimated scf accuracy    <       0.00800934 Ry

     iteration #  8     ecut=    80.00 Ry     beta= 0.70
     Davidson diagonalization with overlap
     ethr =  2.61E-06,  avg # of iterations =  5.0

     negative rho (up, down):  5.915E-03 0.000E+00

     total cpu time spent up to now is       47.4 secs

     total energy              =   -2205.53648433 Ry
     estimated scf accuracy    <       0.00386227 Ry

     iteration #  9     ecut=    80.00 Ry     beta= 0.70
     Davidson diagonalization with overlap
     ethr =  1.26E-06,  avg # of iterations =  2.0

     negative rho (up, down):  3.242E-02 0.000E+00

     total cpu time spent up to now is       51.6 secs

     total energy              =   -2205.53634255 Ry
     estimated scf accuracy    <       0.00241612 Ry

     iteration # 10     ecut=    80.00 Ry     beta= 0.70
     Davidson diagonalization with overlap
     ethr =  7.87E-07,  avg # of iterations =  2.0

     negative rho (up, down):  3.294E-02 0.000E+00

     total cpu time spent up to now is       56.4 secs

     total energy              =   -2205.53643859 Ry
     estimated scf accuracy    <       0.00083767 Ry

     iteration # 11     ecut=    80.00 Ry     beta= 0.70
     Davidson diagonalization with overlap
     ethr =  2.73E-07,  avg # of iterations =  5.0

     negative rho (up, down):  1.466E-02 0.000E+00

     total cpu time spent up to now is       62.3 secs

     total energy              =   -2205.53641468 Ry
     estimated scf accuracy    <       0.00023089 Ry

     iteration # 12     ecut=    80.00 Ry     beta= 0.70
     Davidson diagonalization with overlap
     ethr =  7.52E-08,  avg # of iterations =  5.0

     negative rho (up, down):  5.945E-03 0.000E+00

     total cpu time spent up to now is       68.8 secs

     total energy              =   -2205.53646929 Ry
     estimated scf accuracy    <       0.00006953 Ry

     iteration # 13     ecut=    80.00 Ry     beta= 0.70
     Davidson diagonalization with overlap
     ethr =  2.26E-08,  avg # of iterations =  5.0

     negative rho (up, down):  1.152E-03 0.000E+00

     total cpu time spent up to now is       76.6 secs

     total energy              =   -2205.53648564 Ry
     estimated scf accuracy    <       0.00000816 Ry

     iteration # 14     ecut=    80.00 Ry     beta= 0.70
     Davidson diagonalization with overlap
     c_bands:  2 eigenvalues not converged
     ethr =  2.66E-09,  avg # of iterations = 20.0

     negative rho (up, down):  3.301E-04 0.000E+00

     total cpu time spent up to now is       88.2 secs

     total energy              =   -2205.53649043 Ry
     estimated scf accuracy    <       0.00000104 Ry

     iteration # 15     ecut=    80.00 Ry     beta= 0.70
     Davidson diagonalization with overlap
     ethr =  3.39E-10,  avg # of iterations =  8.0

     negative rho (up, down):  1.370E-04 0.000E+00

     total cpu time spent up to now is       91.0 secs

     End of self-consistent calculation

          k = 0.0000 0.0000 0.0000 (105382 PWs)   bands (ev):

   -62.8680 -62.8476 -62.8371 -62.8213 -62.8092 -62.8066 -62.7896 -62.7807
   -62.7733 -62.7667 -62.7524 -62.7383 -37.2071 -37.1470 -37.1352 -37.1237
   -37.1022 -37.0801 -37.0656 -37.0534 -37.0517 -37.0450 -37.0388 -37.0214
   -37.0164 -37.0050 -36.9960 -36.9926 -36.9906 -36.9814 -36.9744 -36.9669
   -36.9483 -36.9356 -36.9266 -36.9189 -36.9079 -36.9007 -36.8958 -36.8812
   -36.8773 -36.8682 -36.8502 -36.8298 -36.8230 -36.7831 -36.7336 -36.6992
   -16.0411 -15.4259 -15.1238 -15.0124 -14.9487 -14.7998 -14.6715 -14.4848
   -14.4621 -14.4277 -14.3806 -14.3419 -14.3029 -14.2701 -14.1886 -14.1135
   -14.1039 -14.0920 -14.0070 -13.9198 -13.8287 -13.7987 -13.7803  -8.3235
    -7.6232  -7.3925  -7.2638  -7.2382  -7.2199  -7.1813  -7.1153  -7.0437
    -6.8363  -6.7754  -6.7623  -6.6799  -6.5388  -6.5076  -6.4312  -6.4060
    -6.2988  -6.2499  -6.2087  -5.9514  -5.9270  -5.8939  -5.8395  -5.7432
    -5.7249  -5.6959  -5.6811  -5.6469  -5.6328  -5.5982  -5.5302  -5.4404
    -5.4264  -5.3740  -5.1569  -5.1263  -5.0655  -5.0176  -4.9602  -4.9365
    -4.9015  -4.8666  -4.6417  -4.5159  -4.3389  -4.3184  -4.2996  -4.2298
    -4.1706  -4.1269  -4.0129  -3.8753  -3.8041  -3.7791  -3.7337  -3.7090
    -3.6456  -3.5724  -3.5309  -3.5100  -3.4861  -3.4498  -3.4433  -3.3713
    -3.3349  -3.2479  -3.1099  -2.9062  -2.8693  -2.8002  -2.7572  -2.7531
    -2.6985  -2.6441  -2.6258  -2.6074  -2.5562  -2.2995  -2.0036  -1.9718
    -1.9380  -0.9069  -0.7914  -0.7056  -0.1582  -0.1427  -0.0838  -0.0408
     0.1267   0.1385   0.2327   0.2563   0.2915   0.3019   0.3640   0.4417
     0.4791   0.5213   0.5497   0.5673   0.6135   0.6840   0.7545   0.7732
     0.8000   0.8261   0.8483   0.8879   0.9767   1.0206   1.0528   1.3540
     1.3952

     the Fermi energy is    -0.9282 ev

!    total energy              =   -2205.53649158 Ry
     estimated scf accuracy    <       0.00000024 Ry
     smearing contrib. (-TS)   =      -0.00794353 Ry
     internal energy E=F+TS    =   -2205.52854805 Ry

     The total energy is F=E-TS. E is the sum of the following terms:
     one-electron contribution =  -18047.21037845 Ry
     hartree contribution      =    9010.47349237 Ry
     xc contribution           =    -385.26546466 Ry
     ewald contribution        =    7216.47380269 Ry

     convergence has been achieved in  15 iterations

     negative rho (up, down):  1.370E-04 0.000E+00

     Forces acting on atoms (cartesian axes, Ry/au):

     atom    1 type  1   force =     0.01498656   -0.02413828    0.00555852
     atom    2 type  2   force =    -0.01608290    0.01431008    0.00096289
     atom    3 type  2   force =    -0.00880292    0.00939958   -0.00269191
     atom    4 type  1   force =     0.00006821    0.00403814   -0.01150112
     atom    5 type  2   force =    -0.00170942   -0.00588197   -0.00530509
     atom    6 type  2   force =     0.00060069    0.00935541   -0.00003205
     atom    7 type  1   force =    -0.00047828   -0.01100594   -0.01074915
     atom    8 type  2   force =     0.00959211   -0.01015993    0.02237644
     atom    9 type  2   force =     0.01271658    0.00484086    0.01022351
     atom   10 type  1   force =    -0.01372075    0.00615557   -0.02753072
     atom   11 type  2   force =     0.00424398   -0.00075468   -0.00627730
     atom   12 type  2   force =    -0.00081511    0.00052052    0.00593199
     atom   13 type  1   force =     0.00227364    0.00461325   -0.00661180
     atom   14 type  2   force =     0.00779920   -0.00051093    0.01247544
     atom   15 type  2   force =    -0.01220804    0.00240156   -0.00840527
     atom   16 type  1   force =     0.00092626    0.01092504    0.00324427
     atom   17 type  2   force =     0.00887714    0.00041554    0.00136622
     atom   18 type  2   force =    -0.00200986   -0.00735654    0.01256225
     atom   19 type  1   force =     0.00862466   -0.00473816   -0.00680069
     atom   20 type  2   force =     0.00297271   -0.00481032    0.00049575
     atom   21 type  1   force =    -0.00650907    0.00679742   -0.00055410
     atom   22 type  2   force =    -0.00224765   -0.00062302   -0.00178533
     atom   23 type  2   force =    -0.00104879    0.00129040    0.00986380
     atom   24 type  1   force =    -0.00761942   -0.03099013   -0.05158540
     atom   25 type  2   force =     0.01825048    0.01627312    0.00896180
     atom   26 type  2   force =    -0.01468963   -0.00035466   -0.00294944
     atom   27 type  1   force =    -0.00420038    0.00169433    0.01298501
     atom   28 type  2   force =    -0.00836553    0.07305971    0.04548261
     atom   29 type  2   force =     0.00197293   -0.00208962   -0.00253334
     atom   30 type  1   force =    -0.00397143    0.00948467   -0.00558112
     atom   31 type  2   force =    -0.00158114   -0.00031949    0.01667949
     atom   32 type  2   force =    -0.00921180    0.00520888    0.00627665
     atom   33 type  1   force =     0.01460592   -0.00714761   -0.00961670
     atom   34 type  2   force =     0.00320474   -0.04292949   -0.00993358
     atom   35 type  2   force =    -0.00791799    0.00839846    0.01552832
     atom   36 type  3   force =     0.01147431   -0.03537178   -0.02053083
     The non-local contrib.  to forces
     atom    1 type  1   force =    -0.00211011    0.03109992   -0.01085137
     atom    2 type  2   force =    -0.01433108   -0.00329102   -0.26658734
     atom    3 type  2   force =    -0.01020134   -0.00110469    0.27225975
     atom    4 type  1   force =    -0.00120126    0.00228136    0.01095125
     atom    5 type  2   force =     0.00934160   -0.03069966   -0.24999376
     atom    6 type  2   force =    -0.00272502    0.01216195    0.26275598
     atom    7 type  1   force =    -0.02027082    0.00199709   -0.02118155
     atom    8 type  2   force =     0.02350074   -0.01350218   -0.21230845
     atom    9 type  2   force =     0.00812482   -0.01107950    0.27836248
     atom   10 type  1   force =     0.00633165    0.00166974   -0.00251370
     atom   11 type  2   force =     0.01062613    0.00700971   -0.25747452
     atom   12 type  2   force =    -0.01228350   -0.01684931    0.26281698
     atom   13 type  1   force =     0.00110312    0.01675452   -0.00687806
     atom   14 type  2   force =     0.01048591   -0.00987157   -0.26193767
     atom   15 type  2   force =    -0.01344308   -0.00453840    0.26068384
     atom   16 type  1   force =     0.00010167    0.03272888   -0.02420742
     atom   17 type  2   force =     0.00099718   -0.02703336   -0.24722754
     atom   18 type  2   force =    -0.00266006   -0.00352068    0.27282672
     atom   19 type  1   force =     0.01379841   -0.00230550   -0.01395899
     atom   20 type  2   force =     0.00049590   -0.02010351    0.26674972
     atom   21 type  1   force =     0.00179879    0.02578053    0.00717130
     atom   22 type  2   force =    -0.00674664    0.00541047   -0.25585924
     atom   23 type  2   force =     0.00643208   -0.01446668    0.26768094
     atom   24 type  1   force =     0.00369146    0.02485479   -0.01990807
     atom   25 type  2   force =     0.01543958    0.00142835   -0.25596453
     atom   26 type  2   force =    -0.00618746   -0.01317838    0.26551637
     atom   27 type  1   force =    -0.00521903    0.00388720    0.00904873
     atom   28 type  2   force =    -0.04786369    0.23275264   -0.01807052
     atom   29 type  2   force =     0.00628267    0.00659269    0.26600065
     atom   30 type  1   force =     0.00072293    0.01823592    0.01004605
     atom   31 type  2   force =    -0.01443892   -0.00285871   -0.24097143
     atom   32 type  2   force =    -0.00505155   -0.01312774    0.27362606
     atom   33 type  1   force =    -0.00591398    0.00795237    0.00507995
     atom   34 type  2   force =    -0.00070586   -0.03880916   -0.27266141
     atom   35 type  2   force =    -0.00254023   -0.01165078    0.27150680
     atom   36 type  3   force =     0.00503451   -0.02211884   -0.02006897
     The ionic contribution  to forces
     atom    1 type  1   force =     0.28144168    0.07494645    5.63316501
     atom    2 type  2   force =    -0.70425726    0.29424326   39.26781291
     atom    3 type  2   force =    -0.17566718   -0.01527195  -36.09658831
     atom    4 type  1   force =    -0.26128562    0.48197100    0.01830407
     atom    5 type  2   force =    -1.17719634    1.39715668   38.68102013
     atom    6 type  2   force =     0.31407949   -0.52447162  -38.06331923
     atom    7 type  1   force =    -2.74992890   -2.62133777    2.46387978
     atom    8 type  2   force =    -1.33865974    0.42410144   37.11759819
     atom    9 type  2   force =     0.31267104    0.00155301  -38.07515923
     atom   10 type  1   force =    -1.13982980   -0.26949611    5.64737887
     atom   11 type  2   force =    -0.60368956   -1.54490473   39.13908429
     atom   12 type  2   force =     0.42961761    0.71281430  -37.85089571
     atom   13 type  1   force =     0.55904741    0.86061147    2.81289145
     atom   14 type  2   force =     0.05293533   -0.04954978   38.52272597
     atom   15 type  2   force =     0.15457012   -0.08196375  -36.79720898
     atom   16 type  1   force =    -0.05630262    3.92771387    0.38813136
     atom   17 type  2   force =     0.95054738    1.42810688   37.88953617
     atom   18 type  2   force =    -0.13741598   -0.66560186  -38.59265790
     atom   19 type  1   force =     2.81966467   -2.31472541    0.57853872
     atom   20 type  2   force =     0.22440231   -0.17795778  -38.49383961
     atom   21 type  1   force =     0.03110790    0.07428367    1.18669045
     atom   22 type  2   force =     0.48926809   -1.66473139   38.43278983
     atom   23 type  2   force =    -0.07642371    0.68329152  -38.28362785
     atom   24 type  1   force =    -0.52243684    0.83566949    5.65006259
     atom   25 type  2   force =     0.70458380    0.19037597   39.25973942
     atom   26 type  2   force =    -0.27419285    0.03675345  -37.34005860
     atom   27 type  1   force =     0.36607010    0.33313467   -2.72313455
     atom   28 type  2   force =     0.27317493    0.01632335   37.39860557
     atom   29 type  2   force =    -0.25907909   -0.47055899  -37.36424666
     atom   30 type  1   force =    -0.30265585   -0.54023282   -0.37041455
     atom   31 type  2   force =     1.53762152    0.19883472   37.15359240
     atom   32 type  2   force =    -0.44859318    0.02704649  -38.69344147
     atom   33 type  1   force =     0.84077303   -0.81772171    2.05681753
     atom   34 type  2   force =     0.24831034   -1.33185697   39.33990598
     atom   35 type  2   force =    -0.29799663    0.50700972  -37.82597274
     atom   36 type  3   force =    -0.06427562    0.58444125    7.93229467
     The local contribution  to forces
     atom    1 type  1   force =    -0.26423510   -0.13033447   -5.61624905
     atom    2 type  2   force =     0.70216380   -0.27669270  -39.02056088
     atom    3 type  2   force =     0.17661465    0.02584024   35.84270949
     atom    4 type  1   force =     0.26280758   -0.48036719   -0.04024932
     atom    5 type  2   force =     1.16712849   -1.37416428  -38.45621719
     atom    6 type  2   force =    -0.31101736    0.52270521   37.82142228
     atom    7 type  1   force =     2.76991672    2.60869220   -2.45285499
     atom    8 type  2   force =     1.32609251   -0.42196542  -36.90082468
     atom    9 type  2   force =    -0.30781691    0.01372743   37.82813005
     atom   10 type  1   force =     1.11985590    0.27407140   -5.67177151
     atom   11 type  2   force =     0.59784072    1.53781931  -38.90810815
     atom   12 type  2   force =    -0.41925988   -0.69676600   37.61489833
     atom   13 type  1   force =    -0.55799027   -0.87292433   -2.81216373
     atom   14 type  2   force =    -0.05506594    0.05886601  -38.26864447
     atom   15 type  2   force =    -0.15407335    0.08857504   36.54876414
     atom   16 type  1   force =     0.05709540   -3.94985429   -0.36019338
     atom   17 type  2   force =    -0.94287006   -1.40219928  -37.66077044
     atom   18 type  2   force =     0.13797905    0.66213648   38.35339748
     atom   19 type  1   force =    -2.82506862    2.31265927   -0.57084653
     atom   20 type  2   force =    -0.22205622    0.19255594   38.24876076
     atom   21 type  1   force =    -0.03945392   -0.09323347   -1.19389537
     atom   22 type  2   force =    -0.48495342    1.65932118  -38.19881449
     atom   23 type  2   force =     0.06943729   -0.66871797   38.04677654
     atom   24 type  1   force =     0.51110297   -0.89169314   -5.68114898
     atom   25 type  2   force =    -0.70149284   -0.17523904  -39.01501453
     atom   26 type  2   force =     0.26567894   -0.02464855   37.09264713
     atom   27 type  1   force =    -0.36526316   -0.33543012    2.72746899
     atom   28 type  2   force =    -0.23676710   -0.16263151  -37.34069701
     atom   29 type  2   force =     0.25532787    0.46263493   37.11652817
     atom   30 type  1   force =     0.29798325    0.53155512    0.35526381
     atom   31 type  2   force =    -1.52573327   -0.19663869  -36.91554792
     atom   32 type  2   force =     0.44440813   -0.00946814   38.44717676
     atom   33 type  1   force =    -0.82027806    0.80271501   -2.07098367
     atom   34 type  2   force =    -0.24478875    1.32658246  -39.09798725
     atom   35 type  2   force =     0.29270905   -0.48793914   37.59119992
     atom   36 type  3   force =     0.07071714   -0.59771227   -7.93272540
     The core correction contribution to forces
     atom    1 type  1   force =     0.00000000    0.00000000    0.00000000
     atom    2 type  2   force =     0.00040099    0.00002944    0.02053454
     atom    3 type  2   force =     0.00048869   -0.00005944   -0.02095227
     atom    4 type  1   force =     0.00000000    0.00000000    0.00000000
     atom    5 type  2   force =    -0.00087283    0.00171431    0.02014705
     atom    6 type  2   force =     0.00033153   -0.00115032   -0.02087902
     atom    7 type  1   force =     0.00000000    0.00000000    0.00000000
     atom    8 type  2   force =    -0.00124402    0.00122164    0.01819933
     atom    9 type  2   force =    -0.00016898    0.00064418   -0.02106302
     atom   10 type  1   force =     0.00000000    0.00000000    0.00000000
     atom   11 type  2   force =    -0.00050378   -0.00058183    0.02051845
     atom   12 type  2   force =     0.00113362    0.00139915   -0.02081364
     atom   13 type  1   force =     0.00000000    0.00000000    0.00000000
     atom   14 type  2   force =    -0.00055699   -0.00002179    0.02060509
     atom   15 type  2   force =     0.00072952    0.00030237   -0.02054496
     atom   16 type  1   force =     0.00000000    0.00000000    0.00000000
     atom   17 type  2   force =     0.00011898    0.00142355    0.02007342
     atom   18 type  2   force =     0.00001723   -0.00047163   -0.02099985
     atom   19 type  1   force =     0.00000000    0.00000000    0.00000000
     atom   20 type  2   force =     0.00009756    0.00075127   -0.02123780
     atom   21 type  1   force =     0.00000000    0.00000000    0.00000000
     atom   22 type  2   force =     0.00017063   -0.00054516    0.02037020
     atom   23 type  2   force =    -0.00052999    0.00124108   -0.02088148
     atom   24 type  1   force =     0.00000000    0.00000000    0.00000000
     atom   25 type  2   force =    -0.00033826   -0.00031911    0.02043285
     atom   26 type  2   force =    -0.00000568    0.00070641   -0.02093441
     atom   27 type  1   force =     0.00000000    0.00000000    0.00000000
     atom   28 type  2   force =     0.00306238   -0.01343730    0.00594685
     atom   29 type  2   force =    -0.00055192   -0.00080831   -0.02073822
     atom   30 type  1   force =     0.00000000    0.00000000    0.00000000
     atom   31 type  2   force =     0.00088972    0.00038826    0.01985521
     atom   32 type  2   force =    -0.00002713    0.00077625   -0.02102216
     atom   33 type  1   force =     0.00000000    0.00000000    0.00000000
     atom   34 type  2   force =     0.00038001    0.00124209    0.02107862
     atom   35 type  2   force =    -0.00007570    0.00102235   -0.02111088
     atom   36 type  3   force =     0.00000000    0.00000000    0.00000000
     The Hubbard contrib.    to forces
     atom    1 type  1   force =     0.00000000    0.00000000    0.00000000
     atom    2 type  2   force =     0.00000000    0.00000000    0.00000000
     atom    3 type  2   force =     0.00000000    0.00000000    0.00000000
     atom    4 type  1   force =     0.00000000    0.00000000    0.00000000
     atom    5 type  2   force =     0.00000000    0.00000000    0.00000000
     atom    6 type  2   force =     0.00000000    0.00000000    0.00000000
     atom    7 type  1   force =     0.00000000    0.00000000    0.00000000
     atom    8 type  2   force =     0.00000000    0.00000000    0.00000000
     atom    9 type  2   force =     0.00000000    0.00000000    0.00000000
     atom   10 type  1   force =     0.00000000    0.00000000    0.00000000
     atom   11 type  2   force =     0.00000000    0.00000000    0.00000000
     atom   12 type  2   force =     0.00000000    0.00000000    0.00000000
     atom   13 type  1   force =     0.00000000    0.00000000    0.00000000
     atom   14 type  2   force =     0.00000000    0.00000000    0.00000000
     atom   15 type  2   force =     0.00000000    0.00000000    0.00000000
     atom   16 type  1   force =     0.00000000    0.00000000    0.00000000
     atom   17 type  2   force =     0.00000000    0.00000000    0.00000000
     atom   18 type  2   force =     0.00000000    0.00000000    0.00000000
     atom   19 type  1   force =     0.00000000    0.00000000    0.00000000
     atom   20 type  2   force =     0.00000000    0.00000000    0.00000000
     atom   21 type  1   force =     0.00000000    0.00000000    0.00000000
     atom   22 type  2   force =     0.00000000    0.00000000    0.00000000
     atom   23 type  2   force =     0.00000000    0.00000000    0.00000000
     atom   24 type  1   force =     0.00000000    0.00000000    0.00000000
     atom   25 type  2   force =     0.00000000    0.00000000    0.00000000
     atom   26 type  2   force =     0.00000000    0.00000000    0.00000000
     atom   27 type  1   force =     0.00000000    0.00000000    0.00000000
     atom   28 type  2   force =     0.00000000    0.00000000    0.00000000
     atom   29 type  2   force =     0.00000000    0.00000000    0.00000000
     atom   30 type  1   force =     0.00000000    0.00000000    0.00000000
     atom   31 type  2   force =     0.00000000    0.00000000    0.00000000
     atom   32 type  2   force =     0.00000000    0.00000000    0.00000000
     atom   33 type  1   force =     0.00000000    0.00000000    0.00000000
     atom   34 type  2   force =     0.00000000    0.00000000    0.00000000
     atom   35 type  2   force =     0.00000000    0.00000000    0.00000000
     atom   36 type  3   force =     0.00000000    0.00000000    0.00000000
     The SCF correction term to forces
     atom    1 type  1   force =    -0.00010991    0.00014583   -0.00049373
     atom    2 type  2   force =    -0.00005937    0.00001711   -0.00022400
     atom    3 type  2   force =    -0.00003775   -0.00000856   -0.00010823
     atom    4 type  1   force =    -0.00025250    0.00014898   -0.00049479
     atom    5 type  2   force =    -0.00011036    0.00010699   -0.00024898
     atom    6 type  2   force =    -0.00006795    0.00010620    0.00000027
     atom    7 type  1   force =    -0.00019530   -0.00036145   -0.00058005
     atom    8 type  2   force =    -0.00009739   -0.00001939   -0.00027562
     atom    9 type  2   force =    -0.00009339   -0.00000826   -0.00003444
     atom   10 type  1   force =    -0.00007851   -0.00009346   -0.00061204
     atom   11 type  2   force =    -0.00002954   -0.00010112   -0.00028504
     atom   12 type  2   force =    -0.00002296   -0.00008160   -0.00006163
     atom   13 type  1   force =     0.00011337    0.00016760   -0.00044913
     atom   14 type  2   force =     0.00000088    0.00006221   -0.00026113
     atom   15 type  2   force =     0.00000873    0.00002231   -0.00008698
     atom   16 type  1   force =     0.00003181    0.00033259   -0.00047396
     atom   17 type  2   force =     0.00008364    0.00011377   -0.00023306
     atom   18 type  2   force =     0.00006989    0.00009716    0.00000814
     atom   19 type  1   force =     0.00023020   -0.00037050   -0.00052155
     atom   20 type  2   force =     0.00003315   -0.00006023    0.00007501
     atom   21 type  1   force =     0.00003814   -0.00003730   -0.00050815
     atom   22 type  2   force =     0.00001367   -0.00008210   -0.00025930
     atom   23 type  2   force =     0.00003552   -0.00006154   -0.00007202
     atom   24 type  1   force =     0.00002297    0.00017473   -0.00057859
     atom   25 type  2   force =     0.00005818    0.00002296   -0.00021906
     atom   26 type  2   force =     0.00001740    0.00000842   -0.00010759
     atom   27 type  1   force =     0.00021169    0.00009860   -0.00038582
     atom   28 type  2   force =     0.00002793    0.00004854   -0.00028994
     atom   29 type  2   force =    -0.00000660    0.00004606   -0.00006495
     atom   30 type  1   force =    -0.00002177   -0.00007753   -0.00046409
     atom   31 type  2   force =     0.00007981   -0.00004905   -0.00023644
     atom   32 type  2   force =     0.00005192   -0.00002196   -0.00005020
     atom   33 type  1   force =     0.00002491   -0.00009726   -0.00051817
     atom   34 type  2   force =     0.00000898   -0.00009189   -0.00025719
     atom   35 type  2   force =    -0.00001450   -0.00004767   -0.00008245
     atom   36 type  3   force =    -0.00000173    0.00001410   -0.00001879

     Total force =     0.150699     Total SCF correction =     0.002195

     BFGS Geometry Optimization
     Energy error            =      0.0E+00 Ry
     Gradient error          =      7.3E-02 Ry/Bohr

     number of scf cycles    =   1
     number of bfgs steps    =   0

     energy             new  =   -2205.5364915827 Ry

     new trust radius        =       0.0864660127 bohr
     new conv_thr            =       0.0000010000 Ry


ATOMIC_POSITIONS (angstrom)
Mo            6.5824789567        1.7750328035        2.8265844728
S             8.1681986337        0.8172765906        4.4350478915
S             8.1885747838        0.8162157874        1.2764589296
Mo            8.0951986583        4.4971938339        2.7117322626
S             6.4990046691        3.7192988851        4.3438533177
S             6.5536676693        3.5166882264        1.1212632677
Mo            6.4897286000        7.2126131889        2.6661962790
S             8.0868036539        6.3384945916        4.2543026630
S             8.0876469714        6.3072639904        1.0892730454
Mo            8.1533583426        9.9054377995        2.8288931319
S             6.4974134151        8.9425274546        4.3797837288
S             6.6175158633        9.0489866621        1.1430463744
Mo            3.4228628208        1.7493970784        2.7729723459
S             4.9792926472        0.8166708382        4.3571348126
S             5.0513735371        0.8475329573        1.2222105850
Mo            4.9802468386        4.5189592872        2.6346013426
S             3.4325392396        3.6718195823        4.2804325517
S             3.4368570101        3.5443357836        1.0649993385
Mo            3.4584257161        7.2138172134        2.6270780903
S             4.9848072811        6.3243867722        1.0375160689
Mo            5.0088194663        9.9051970924        2.7431077411
S             3.4697687094        8.9434215798        4.3246465567
S             3.4078741695        9.0656728353        1.1012879952
Mo            0.2920584655        1.7311102582        2.8221468931
S             1.8601199509        0.8013053695        4.4029518204
S             1.8530266152        0.8542382398        1.2078400791
Mo            1.8584685616        4.4965633639        2.6670687493
S             0.2677870005        3.6930603604        4.3616524603
S             0.2322752363        3.5261434453        1.1706772955
Mo            0.2690505611        7.2216651656        2.6987430280
S             1.9014015466        6.3126297686        4.2312705254
S             1.8573635407        6.3131002343        1.0478807435
Mo            1.8520757841        9.9363568017        2.7678573156
S             0.2976087734        9.0672805183        4.4086128436
S             0.2725813791        9.0479699895        1.1586180102
H             0.0060719438        4.8385709502        5.3325973147



     Writing config-only to output data dir ./MoS2-V-O.save/
     NEW-OLD atomic charge density approx. for the potential

     negative rho (up, down):  1.457E-04 0.000E+00

     total cpu time spent up to now is       94.6 secs

     Self-consistent Calculation

     iteration #  1     ecut=    80.00 Ry     beta= 0.70
     Davidson diagonalization with overlap
     ethr =  1.00E-06,  avg # of iterations = 11.0

     negative rho (up, down):  7.884E-05 0.000E+00

     total cpu time spent up to now is      108.6 secs

     total energy              =   -2205.55487767 Ry
     estimated scf accuracy    <       0.00231474 Ry

     iteration #  2     ecut=    80.00 Ry     beta= 0.70
     Davidson diagonalization with overlap
     ethr =  7.54E-07,  avg # of iterations =  2.0

     negative rho (up, down):  6.646E-05 0.000E+00

     total cpu time spent up to now is      123.2 secs

     total energy              =   -2205.55491669 Ry
     estimated scf accuracy    <       0.00066169 Ry

     iteration #  3     ecut=    80.00 Ry     beta= 0.70
     Davidson diagonalization with overlap
     ethr =  2.16E-07,  avg # of iterations =  2.0

     negative rho (up, down):  5.589E-05 0.000E+00

     total cpu time spent up to now is      140.6 secs

     total energy              =   -2205.55493695 Ry
     estimated scf accuracy    <       0.00029567 Ry

     iteration #  4     ecut=    80.00 Ry     beta= 0.70
     Davidson diagonalization with overlap
     ethr =  9.63E-08,  avg # of iterations =  5.0

     negative rho (up, down):  5.325E-05 0.000E+00

     total cpu time spent up to now is      154.8 secs

     total energy              =   -2205.55496565 Ry
     estimated scf accuracy    <       0.00002014 Ry

     iteration #  5     ecut=    80.00 Ry     beta= 0.70
     Davidson diagonalization with overlap
     ethr =  6.56E-09,  avg # of iterations =  9.0

     negative rho (up, down):  5.184E-05 0.000E+00

     total cpu time spent up to now is      168.8 secs

     total energy              =   -2205.55497227 Ry
     estimated scf accuracy    <       0.00000875 Ry

     iteration #  6     ecut=    80.00 Ry     beta= 0.70
     Davidson diagonalization with overlap
     ethr =  2.85E-09,  avg # of iterations =  2.0

     negative rho (up, down):  5.109E-05 0.000E+00

     total cpu time spent up to now is      181.1 secs

     total energy              =   -2205.55497310 Ry
     estimated scf accuracy    <       0.00000226 Ry

     iteration #  7     ecut=    80.00 Ry     beta= 0.70
     Davidson diagonalization with overlap
     ethr =  7.37E-10,  avg # of iterations =  5.0

     negative rho (up, down):  1.375E-04 0.000E+00

     total cpu time spent up to now is      183.5 secs

     End of self-consistent calculation

          k = 0.0000 0.0000 0.0000 (105382 PWs)   bands (ev):

   -62.8704 -62.8416 -62.8377 -62.8151 -62.8041 -62.7944 -62.7797 -62.7711
   -62.7633 -62.7539 -62.7501 -62.7311 -37.2006 -37.1414 -37.1322 -37.1184
   -37.0901 -37.0735 -37.0637 -37.0484 -37.0447 -37.0371 -37.0322 -37.0138
   -37.0128 -36.9944 -36.9871 -36.9858 -36.9803 -36.9660 -36.9620 -36.9565
   -36.9442 -36.9322 -36.9238 -36.9135 -36.9035 -36.8966 -36.8901 -36.8768
   -36.8658 -36.8619 -36.8427 -36.8203 -36.8136 -36.7731 -36.7287 -36.6957
   -16.0514 -15.4715 -15.1223 -14.9999 -14.9450 -14.8039 -14.6651 -14.4822
   -14.4590 -14.4097 -14.3787 -14.3303 -14.2934 -14.2736 -14.1863 -14.1054
   -14.1031 -14.0893 -14.0031 -13.8996 -13.8328 -13.8046 -13.7718  -8.4321
    -7.6181  -7.3917  -7.2638  -7.2220  -7.2086  -7.1719  -7.1081  -7.0610
    -6.8243  -6.7684  -6.7568  -6.6733  -6.5472  -6.5135  -6.4158  -6.3868
    -6.3218  -6.2427  -6.2038  -5.9360  -5.9126  -5.8755  -5.8349  -5.7370
    -5.7239  -5.6990  -5.6666  -5.6437  -5.6370  -5.5946  -5.5159  -5.4349
    -5.4004  -5.3452  -5.1225  -5.1203  -5.0559  -5.0068  -4.9481  -4.9322
    -4.9009  -4.8711  -4.6363  -4.5228  -4.3568  -4.3099  -4.2847  -4.2262
    -4.1855  -4.1378  -4.0278  -3.8679  -3.7991  -3.7680  -3.7277  -3.6981
    -3.6626  -3.5599  -3.5318  -3.4899  -3.4803  -3.4517  -3.4401  -3.3724
    -3.3275  -3.2485  -3.1157  -2.8929  -2.8644  -2.7943  -2.7443  -2.7373
    -2.6871  -2.6386  -2.6314  -2.6046  -2.5488  -2.2974  -2.0045  -1.9726
    -1.9469  -0.8932  -0.7806  -0.7028  -0.1525  -0.1368  -0.0656  -0.0367
     0.1203   0.1410   0.2386   0.2780   0.3055   0.3331   0.3909   0.4539
     0.4848   0.5429   0.5610   0.5678   0.6236   0.6927   0.7437   0.7813
     0.8032   0.8279   0.8609   0.9086   0.9959   1.0166   1.0536   1.3664
     1.4181

     the Fermi energy is    -0.9159 ev

!    total energy              =   -2205.55497305 Ry
     estimated scf accuracy    <       0.00000084 Ry
     smearing contrib. (-TS)   =      -0.00807192 Ry
     internal energy E=F+TS    =   -2205.54690113 Ry

     The total energy is F=E-TS. E is the sum of the following terms:
     one-electron contribution =  -18045.53549233 Ry
     hartree contribution      =    9009.73167191 Ry
     xc contribution           =    -385.27776299 Ry
     ewald contribution        =    7215.53468227 Ry

     convergence has been achieved in   7 iterations

     negative rho (up, down):  1.375E-04 0.000E+00

     Forces acting on atoms (cartesian axes, Ry/au):

     atom    1 type  1   force =     0.00540504   -0.01259112    0.00111246
     atom    2 type  2   force =    -0.00850296    0.00897923   -0.00287818
     atom    3 type  2   force =    -0.01100723    0.00467905   -0.01198536
     atom    4 type  1   force =     0.00149100    0.00579381   -0.00136276
     atom    5 type  2   force =    -0.00027296   -0.00588423   -0.00682442
     atom    6 type  2   force =    -0.00033135    0.00498360    0.00069608
     atom    7 type  1   force =     0.00285389   -0.00866135   -0.00137763
     atom    8 type  2   force =     0.00309815   -0.00520959    0.01178602
     atom    9 type  2   force =     0.01097437    0.00465332    0.00506231
     atom   10 type  1   force =    -0.00630980    0.00575886   -0.00971705
     atom   11 type  2   force =     0.00314691   -0.00124829   -0.00899971
     atom   12 type  2   force =    -0.00341485    0.00008376    0.00147703
     atom   13 type  1   force =     0.00133006    0.00232558   -0.00133410
     atom   14 type  2   force =     0.00554340   -0.00019154    0.00818016
     atom   15 type  2   force =    -0.00862441    0.00199869   -0.00684929
     atom   16 type  1   force =     0.00069955    0.00708658    0.00424601
     atom   17 type  2   force =     0.00776144    0.00048908    0.00111191
     atom   18 type  2   force =    -0.00225222   -0.00430660    0.01041526
     atom   19 type  1   force =     0.00429145   -0.00511341   -0.00042520
     atom   20 type  2   force =     0.00255129   -0.00411678   -0.00366139
     atom   21 type  1   force =    -0.00418900    0.00347508    0.00218352
     atom   22 type  2   force =    -0.00082522   -0.00119390   -0.00252390
     atom   23 type  2   force =     0.00038284    0.00024725    0.00486248
     atom   24 type  1   force =    -0.00423394   -0.01377112   -0.02317951
     atom   25 type  2   force =     0.01130471    0.01299088    0.00010669
     atom   26 type  2   force =    -0.00793115   -0.00316835   -0.00710219
     atom   27 type  1   force =    -0.00191804    0.00397262    0.01200421
     atom   28 type  2   force =    -0.00833030    0.04729225    0.03322372
     atom   29 type  2   force =     0.00231231   -0.00157186   -0.00214972
     atom   30 type  1   force =    -0.00216987    0.00215130    0.00231508
     atom   31 type  2   force =     0.00112378    0.00288066    0.01003210
     atom   32 type  2   force =    -0.00768684    0.00382567    0.00532979
     atom   33 type  1   force =     0.00739601   -0.00257489    0.00053124
     atom   34 type  2   force =     0.00021428   -0.03166274   -0.01480057
     atom   35 type  2   force =    -0.00593260    0.00831888    0.00805487
     atom   36 type  3   force =     0.01205224   -0.03072035   -0.01755996
     The non-local contrib.  to forces
     atom    1 type  1   force =     0.00038231    0.02736783   -0.01183548
     atom    2 type  2   force =    -0.01109930   -0.00821025   -0.26605738
     atom    3 type  2   force =    -0.00984751   -0.00593535    0.26457435
     atom    4 type  1   force =    -0.00064053    0.00278122    0.00909282
     atom    5 type  2   force =     0.01091721   -0.03061794   -0.25041631
     atom    6 type  2   force =    -0.00392127    0.00845295    0.26447614
     atom    7 type  1   force =    -0.02086091    0.00212433   -0.02271229
     atom    8 type  2   force =     0.01657170   -0.00433503   -0.22169027
     atom    9 type  2   force =     0.00550755   -0.01114793    0.27566365
     atom   10 type  1   force =     0.00452282    0.00229631   -0.00389758
     atom   11 type  2   force =     0.00867817    0.00541253   -0.25957441
     atom   12 type  2   force =    -0.01396691   -0.01771781    0.26076168
     atom   13 type  1   force =     0.00132248    0.01757099   -0.00741032
     atom   14 type  2   force =     0.00895687   -0.00973295   -0.26412692
     atom   15 type  2   force =    -0.01076078   -0.00506716    0.26076019
     atom   16 type  1   force =    -0.00033696    0.03422923   -0.02559836
     atom   17 type  2   force =    -0.00027531   -0.02566207   -0.24698519
     atom   18 type  2   force =    -0.00201883   -0.00135078    0.27212606
     atom   19 type  1   force =     0.01506904   -0.00079952   -0.01550087
     atom   20 type  2   force =     0.00009098   -0.01884003    0.26354975
     atom   21 type  1   force =     0.00095371    0.02730430    0.00561189
     atom   22 type  2   force =    -0.00491159    0.00382647   -0.25638923
     atom   23 type  2   force =     0.00777693   -0.01583513    0.26452774
     atom   24 type  1   force =     0.00220623    0.02081679   -0.01811760
     atom   25 type  2   force =     0.01193751   -0.00264140   -0.26042251
     atom   26 type  2   force =    -0.00160671   -0.01478256    0.26295839
     atom   27 type  1   force =    -0.00633963    0.00325107    0.00662719
     atom   28 type  2   force =    -0.04855979    0.24149725   -0.01898774
     atom   29 type  2   force =     0.00579819    0.00394244    0.26828276
     atom   30 type  1   force =     0.00032167    0.01923940    0.00929722
     atom   31 type  2   force =    -0.01257874    0.00090607   -0.24667937
     atom   32 type  2   force =    -0.00234696   -0.01344454    0.27404499
     atom   33 type  1   force =    -0.00406495    0.00697798    0.00289954
     atom   34 type  2   force =    -0.00294173   -0.02994543   -0.27650018
     atom   35 type  2   force =    -0.00141898   -0.01152850    0.26724856
     atom   36 type  3   force =     0.00648645   -0.02748618   -0.02473713
     The ionic contribution  to forces
     atom    1 type  1   force =     0.04796076    0.44712960    5.81118565
     atom    2 type  2   force =    -0.44041112    0.26256912   39.34790982
     atom    3 type  2   force =    -0.26260696   -0.00143029  -36.24503880
     atom    4 type  1   force =    -0.19818258    0.22867366   -0.17114691
     atom    5 type  2   force =    -1.14508704    1.35231330   38.58829926
     atom    6 type  2   force =     0.24834956   -0.59546578  -37.97347013
     atom    7 type  1   force =    -2.67930935   -2.50297403    2.39168069
     atom    8 type  2   force =    -1.39768630    0.47155557   37.22354260
     atom    9 type  2   force =     0.31827865   -0.01461906  -38.05950112
     atom   10 type  1   force =    -0.92147983   -0.32870347    5.37869444
     atom   11 type  2   force =    -0.56648288   -1.56499282   39.09711430
     atom   12 type  2   force =     0.34190013    0.66153877  -37.83776959
     atom   13 type  1   force =     0.49650346    0.90195284    2.80683660
     atom   14 type  2   force =    -0.01970529   -0.00799662   38.60054331
     atom   15 type  2   force =     0.16712981   -0.01262019  -36.82757295
     atom   16 type  1   force =    -0.06476924    3.68804935    0.54118133
     atom   17 type  2   force =     0.92241583    1.36458476   37.87809179
     atom   18 type  2   force =    -0.14729838   -0.60615746  -38.48430706
     atom   19 type  1   force =     2.69812142   -2.34757083    0.50122459
     atom   20 type  2   force =     0.18707507   -0.20019125  -38.56792471
     atom   21 type  1   force =     0.04503782    0.03414433    1.32045190
     atom   22 type  2   force =     0.48642042   -1.66970687   38.46690809
     atom   23 type  2   force =    -0.05087397    0.64575859  -38.27923606
     atom   24 type  1   force =    -0.31755850    1.27706710    5.00383732
     atom   25 type  2   force =     0.51204449    0.23289510   39.24407309
     atom   26 type  2   force =    -0.12742458    0.03313588  -37.35170668
     atom   27 type  1   force =     0.32042941    0.14494406   -2.33003986
     atom   28 type  2   force =     0.29457403   -0.49513281   37.38584803
     atom   29 type  2   force =    -0.19906785   -0.38647449  -37.29094155
     atom   30 type  1   force =    -0.23752491   -0.64748696   -0.41768098
     atom   31 type  2   force =     1.57718502    0.25785038   37.19620460
     atom   32 type  2   force =    -0.41981930   -0.03643293  -38.63465491
     atom   33 type  1   force =     0.67089672   -0.63654241    2.18358980
     atom   34 type  2   force =     0.19079383   -1.09883447   39.25616388
     atom   35 type  2   force =    -0.24200163    0.48954444  -37.75811437
     atom   36 type  3   force =    -0.08782672    0.65962590    8.00572461
     The local contribution  to forces
     atom    1 type  1   force =    -0.04289414   -0.48769729   -5.79902543
     atom    2 type  2   force =     0.44234794   -0.24567191  -39.10579237
     atom    3 type  2   force =     0.26106323    0.01179752   35.98916719
     atom    4 type  1   force =     0.20011306   -0.22541936    0.15969995
     atom    5 type  2   force =     1.13477643   -1.32938013  -38.36520573
     atom    6 type  2   force =    -0.24505450    0.59297647   37.73028179
     atom    7 type  1   force =     2.70289273    2.49248678   -2.37127956
     atom    8 type  2   force =     1.38517757   -0.47317424  -37.00907450
     atom    9 type  2   force =    -0.31279161    0.02988819   37.80975513
     atom   10 type  1   force =     0.91052944    0.33227470   -5.38564980
     atom   11 type  2   force =     0.56128623    1.55898783  -38.86758272
     atom   12 type  2   force =    -0.33242954   -0.64504013   37.59909600
     atom   13 type  1   force =    -0.49640532   -0.91759845   -2.80160729
     atom   14 type  2   force =     0.01689881    0.01741946  -38.34938694
     atom   15 type  2   force =    -0.16564015    0.01919963   36.58033343
     atom   16 type  1   force =     0.06577478   -3.71511768   -0.51221578
     atom   17 type  2   force =    -0.91452558   -1.33985364  -37.65045296
     atom   18 type  2   force =     0.14710541    0.60358780   38.24333186
     atom   19 type  1   force =    -2.70883564    2.34361378   -0.48700067
     atom   20 type  2   force =    -0.18471975    0.21435929   38.32174539
     atom   21 type  1   force =    -0.05016647   -0.05788653   -1.32476960
     atom   22 type  2   force =    -0.48241531    1.66528600  -38.23396823
     atom   23 type  2   force =     0.04403260   -0.63090580   38.04029727
     atom   24 type  1   force =     0.31099100   -1.31249347   -5.01045157
     atom   25 type  2   force =    -0.51220451   -0.21729175  -39.00445436
     atom   26 type  2   force =     0.12111448   -0.02235663   37.10233099
     atom   27 type  1   force =    -0.31570710   -0.14396018    2.33442656
     atom   28 type  2   force =    -0.25759040    0.31585585  -37.33874832
     atom   29 type  2   force =     0.19602025    0.38144272   37.04098909
     atom   30 type  1   force =     0.23506093    0.63083807    0.40976328
     atom   31 type  2   force =    -1.56425926   -0.25607458  -36.95998029
     atom   32 type  2   force =     0.41464515    0.05311672   38.38679491
     atom   33 type  1   force =    -0.65934201    0.62690311   -2.18692918
     atom   34 type  2   force =    -0.18799914    1.09604621  -39.01613286
     atom   35 type  2   force =     0.23753146   -0.47066701   37.51977009
     atom   36 type  3   force =     0.09339984   -0.66288408   -7.99864330
     The core correction contribution to forces
     atom    1 type  1   force =     0.00000000    0.00000000    0.00000000
     atom    2 type  2   force =     0.00042068    0.00020320    0.02055288
     atom    3 type  2   force =     0.00037222    0.00014974   -0.02078645
     atom    4 type  1   force =     0.00000000    0.00000000    0.00000000
     atom    5 type  2   force =    -0.00092947    0.00168350    0.02009770
     atom    6 type  2   force =     0.00032157   -0.00104112   -0.02089150
     atom    7 type  1   force =     0.00000000    0.00000000    0.00000000
     atom    8 type  2   force =    -0.00095942    0.00082075    0.01851640
     atom    9 type  2   force =    -0.00002466    0.00064660   -0.02102628
     atom   10 type  1   force =     0.00000000    0.00000000    0.00000000
     atom   11 type  2   force =    -0.00037100   -0.00052656    0.02057189
     atom   12 type  2   force =     0.00112876    0.00140887   -0.02075345
     atom   13 type  1   force =     0.00000000    0.00000000    0.00000000
     atom   14 type  2   force =    -0.00054130    0.00000242    0.02068736
     atom   15 type  2   force =     0.00064106    0.00036781   -0.02053992
     atom   16 type  1   force =     0.00000000    0.00000000    0.00000000
     atom   17 type  2   force =     0.00019197    0.00132278    0.02005347
     atom   18 type  2   force =    -0.00001591   -0.00051511   -0.02098303
     atom   19 type  1   force =     0.00000000    0.00000000    0.00000000
     atom   20 type  2   force =     0.00010244    0.00068311   -0.02117142
     atom   21 type  1   force =     0.00000000    0.00000000    0.00000000
     atom   22 type  2   force =     0.00008409   -0.00050117    0.02041408
     atom   23 type  2   force =    -0.00055800    0.00128607   -0.02081987
     atom   24 type  1   force =     0.00000000    0.00000000    0.00000000
     atom   25 type  2   force =    -0.00027964   -0.00010775    0.02053774
     atom   26 type  2   force =    -0.00008784    0.00074284   -0.02087161
     atom   27 type  1   force =     0.00000000    0.00000000    0.00000000
     atom   28 type  2   force =     0.00319395   -0.01467670    0.00510249
     atom   29 type  2   force =    -0.00047893   -0.00060339   -0.02085238
     atom   30 type  1   force =     0.00000000    0.00000000    0.00000000
     atom   31 type  2   force =     0.00082613    0.00030640    0.01999539
     atom   32 type  2   force =    -0.00015435    0.00074080   -0.02103161
     atom   33 type  1   force =     0.00000000    0.00000000    0.00000000
     atom   34 type  2   force =     0.00042143    0.00098066    0.02118640
     atom   35 type  2   force =    -0.00009460    0.00102850   -0.02097794
     atom   36 type  3   force =     0.00000000    0.00000000    0.00000000
     The Hubbard contrib.    to forces
     atom    1 type  1   force =     0.00000000    0.00000000    0.00000000
     atom    2 type  2   force =     0.00000000    0.00000000    0.00000000
     atom    3 type  2   force =     0.00000000    0.00000000    0.00000000
     atom    4 type  1   force =     0.00000000    0.00000000    0.00000000
     atom    5 type  2   force =     0.00000000    0.00000000    0.00000000
     atom    6 type  2   force =     0.00000000    0.00000000    0.00000000
     atom    7 type  1   force =     0.00000000    0.00000000    0.00000000
     atom    8 type  2   force =     0.00000000    0.00000000    0.00000000
     atom    9 type  2   force =     0.00000000    0.00000000    0.00000000
     atom   10 type  1   force =     0.00000000    0.00000000    0.00000000
     atom   11 type  2   force =     0.00000000    0.00000000    0.00000000
     atom   12 type  2   force =     0.00000000    0.00000000    0.00000000
     atom   13 type  1   force =     0.00000000    0.00000000    0.00000000
     atom   14 type  2   force =     0.00000000    0.00000000    0.00000000
     atom   15 type  2   force =     0.00000000    0.00000000    0.00000000
     atom   16 type  1   force =     0.00000000    0.00000000    0.00000000
     atom   17 type  2   force =     0.00000000    0.00000000    0.00000000
     atom   18 type  2   force =     0.00000000    0.00000000    0.00000000
     atom   19 type  1   force =     0.00000000    0.00000000    0.00000000
     atom   20 type  2   force =     0.00000000    0.00000000    0.00000000
     atom   21 type  1   force =     0.00000000    0.00000000    0.00000000
     atom   22 type  2   force =     0.00000000    0.00000000    0.00000000
     atom   23 type  2   force =     0.00000000    0.00000000    0.00000000
     atom   24 type  1   force =     0.00000000    0.00000000    0.00000000
     atom   25 type  2   force =     0.00000000    0.00000000    0.00000000
     atom   26 type  2   force =     0.00000000    0.00000000    0.00000000
     atom   27 type  1   force =     0.00000000    0.00000000    0.00000000
     atom   28 type  2   force =     0.00000000    0.00000000    0.00000000
     atom   29 type  2   force =     0.00000000    0.00000000    0.00000000
     atom   30 type  1   force =     0.00000000    0.00000000    0.00000000
     atom   31 type  2   force =     0.00000000    0.00000000    0.00000000
     atom   32 type  2   force =     0.00000000    0.00000000    0.00000000
     atom   33 type  1   force =     0.00000000    0.00000000    0.00000000
     atom   34 type  2   force =     0.00000000    0.00000000    0.00000000
     atom   35 type  2   force =     0.00000000    0.00000000    0.00000000
     atom   36 type  3   force =     0.00000000    0.00000000    0.00000000
     The SCF correction term to forces
     atom    1 type  1   force =    -0.00004317    0.00060652    0.00076993
     atom    2 type  2   force =     0.00023958    0.00008687    0.00049106
     atom    3 type  2   force =     0.00001253    0.00009522    0.00008055
     atom    4 type  1   force =     0.00020179   -0.00024391    0.00097356
     atom    5 type  2   force =     0.00005064    0.00011483    0.00038285
     atom    6 type  2   force =    -0.00002598    0.00005887    0.00028197
     atom    7 type  1   force =     0.00013216   -0.00030064    0.00091573
     atom    8 type  2   force =    -0.00000466   -0.00007884    0.00047399
     atom    9 type  2   force =     0.00000518   -0.00011668    0.00015313
     atom   10 type  1   force =     0.00011851   -0.00011089    0.00111808
     atom   11 type  2   force =     0.00003713   -0.00013147    0.00045342
     atom   12 type  2   force =    -0.00004655   -0.00010815    0.00012458
     atom   13 type  1   force =    -0.00008983    0.00039799    0.00082911
     atom   14 type  2   force =    -0.00006495    0.00011394    0.00044554
     atom   15 type  2   force =     0.00000638    0.00011640    0.00015216
     atom   16 type  1   force =     0.00003170   -0.00007652    0.00086102
     atom   17 type  2   force =    -0.00004472    0.00009504    0.00038700
     atom   18 type  2   force =    -0.00002377    0.00012674    0.00022962
     atom   19 type  1   force =    -0.00006263   -0.00035906    0.00083394
     atom   20 type  2   force =     0.00000328   -0.00013011    0.00012180
     atom   21 type  1   force =    -0.00001333   -0.00008922    0.00087153
     atom   22 type  2   force =    -0.00000209   -0.00010053    0.00049359
     atom   23 type  2   force =     0.00000601   -0.00005868    0.00007561
     atom   24 type  1   force =     0.00012806    0.00083626    0.00153453
     atom   25 type  2   force =    -0.00019241    0.00013449    0.00035492
     atom   26 type  2   force =     0.00007424    0.00008993    0.00016892
     atom   27 type  1   force =    -0.00029999   -0.00026453    0.00097252
     atom   28 type  2   force =     0.00005265   -0.00025354   -0.00000854
     atom   29 type  2   force =     0.00004139    0.00011864    0.00035456
     atom   30 type  1   force =    -0.00002682   -0.00044141    0.00091775
     atom   31 type  2   force =    -0.00004863   -0.00010982    0.00047398
     atom   32 type  2   force =    -0.00001064   -0.00015658    0.00015861
     atom   33 type  1   force =    -0.00009302    0.00008423    0.00095328
     atom   34 type  2   force =    -0.00005937    0.00008809    0.00046438
     atom   35 type  2   force =     0.00005187   -0.00006075    0.00011072
     atom   36 type  3   force =    -0.00000660    0.00002181    0.00007806

     Total force =     0.099768     Total SCF correction =     0.004051
     Energy error            =      1.8E-02 Ry
     Gradient error          =      4.7E-02 Ry/Bohr

     number of scf cycles    =   2
     number of bfgs steps    =   1

     energy             old  =   -2205.5364915827 Ry
     energy             new  =   -2205.5549730505 Ry

     CASE: energy            _new < energy            _old

     new trust radius        =       0.0951126139 bohr
     new conv_thr            =       0.0000000473 Ry


ATOMIC_POSITIONS (angstrom)
Mo            6.5877932393        1.7636618106        2.8279098997
S             8.1605400599        0.8251137979        4.4330554108
S             8.1797857726        0.8204816259        1.2675343330
Mo            8.0962839271        4.5017643074        2.7096692997
S             6.4986470966        3.7144903456        4.3384184718
S             6.5534841494        3.5211703003        1.1217639486
Mo            6.4917488778        7.2053153660        2.6641929661
S             8.0899435913        6.3337736616        4.2649261236
S             8.0967786513        6.3110843709        1.0938933605
Mo            8.1475078971        9.9101812403        2.8192841571
S             6.5000878768        8.9415535333        4.3726838298
S             6.6149685743        9.0490960085        1.1446705722
Mo            3.4240381319        1.7515118068        2.7713879213
S             4.9840340800        0.8164844010        4.3642220355
S             5.0439898944        0.8492040594        1.2164674722
Mo            4.9808397589        4.5251100384        2.6379775041
S             3.4389865659        3.6722123856        4.2813650485
S             3.4350391270        3.5405307372        1.0737119980
Mo            3.4623385374        7.2096735285        2.6261336538
S             4.9869317235        6.3209574870        1.0349131255
Mo            5.0051788687        9.9083480982        2.7446358439
S             3.4689611342        8.9424993432        4.3226531079
S             3.4080529880        9.0659725709        1.1057300330
Mo            0.2882813831        1.7182438678        2.8005442573
S             1.8700088133        0.8122291958        4.4038681317
S             1.8459122508        0.8519124296        1.2024248091
Mo            1.8566873850        4.4995965785        2.6769707503
S             0.2609759575        3.7341215359        4.3899516154
S             0.2341331452        3.5248103993        1.1688845696
Mo            0.2671086027        7.2241099097        2.6998956327
S             1.9020666656        6.3146842829        4.2400914418
S             1.8509388604        6.3163561883        1.0523250495
Mo            1.8587950836        9.9338243758        2.7673412824
S             0.2980638956        9.0403499336        4.3969731247
S             0.2675472001        9.0547758584        1.1659004213
H             0.0158672461        4.8130299193        5.3179686693



     Writing config-only to output data dir ./MoS2-V-O.save/
     NEW-OLD atomic charge density approx. for the potential

     negative rho (up, down):  1.489E-04 0.000E+00

     total cpu time spent up to now is      187.2 secs

     Self-consistent Calculation

     iteration #  1     ecut=    80.00 Ry     beta= 0.70
     Davidson diagonalization with overlap
     c_bands:  1 eigenvalues not converged
     ethr =  1.00E-06,  avg # of iterations = 20.0

     negative rho (up, down):  7.753E-05 0.000E+00

     total cpu time spent up to now is      208.0 secs

     total energy              =   -2205.56692067 Ry
     estimated scf accuracy    <       0.00188133 Ry

     iteration #  2     ecut=    80.00 Ry     beta= 0.70
     Davidson diagonalization with overlap
     ethr =  6.13E-07,  avg # of iterations =  2.0

     negative rho (up, down):  5.202E-05 0.000E+00

     total cpu time spent up to now is      225.7 secs

     total energy              =   -2205.56696256 Ry
     estimated scf accuracy    <       0.00039846 Ry

     iteration #  3     ecut=    80.00 Ry     beta= 0.70
     Davidson diagonalization with overlap
     ethr =  1.30E-07,  avg # of iterations =  4.0

     negative rho (up, down):  3.972E-05 0.000E+00

     total cpu time spent up to now is      241.5 secs

     total energy              =   -2205.56699970 Ry
     estimated scf accuracy    <       0.00015561 Ry

     iteration #  4     ecut=    80.00 Ry     beta= 0.70
     Davidson diagonalization with overlap
     ethr =  5.07E-08,  avg # of iterations =  6.0

     negative rho (up, down):  3.584E-05 0.000E+00

     total cpu time spent up to now is      257.9 secs

     total energy              =   -2205.56701287 Ry
     estimated scf accuracy    <       0.00001881 Ry

     iteration #  5     ecut=    80.00 Ry     beta= 0.70
     Davidson diagonalization with overlap
     ethr =  6.13E-09,  avg # of iterations =  5.0

     negative rho (up, down):  3.523E-05 0.000E+00

     total cpu time spent up to now is      271.5 secs

     total energy              =   -2205.56701689 Ry
     estimated scf accuracy    <       0.00000790 Ry

     iteration #  6     ecut=    80.00 Ry     beta= 0.70
     Davidson diagonalization with overlap
     ethr =  2.57E-09,  avg # of iterations =  5.0

     negative rho (up, down):  3.928E-05 0.000E+00

     total cpu time spent up to now is      283.0 secs

     total energy              =   -2205.56701745 Ry
     estimated scf accuracy    <       0.00000170 Ry

     iteration #  7     ecut=    80.00 Ry     beta= 0.70
     Davidson diagonalization with overlap
     ethr =  5.55E-10,  avg # of iterations =  5.0

     negative rho (up, down):  4.653E-05 0.000E+00

     total cpu time spent up to now is      295.8 secs

     total energy              =   -2205.56701762 Ry
     estimated scf accuracy    <       0.00000043 Ry

     iteration #  8     ecut=    80.00 Ry     beta= 0.70
     Davidson diagonalization with overlap
     ethr =  1.40E-10,  avg # of iterations =  6.0

     negative rho (up, down):  6.739E-05 0.000E+00

     total cpu time spent up to now is      305.1 secs

     total energy              =   -2205.56701756 Ry
     estimated scf accuracy    <       0.00000017 Ry

     iteration #  9     ecut=    80.00 Ry     beta= 0.70
     Davidson diagonalization with overlap
     ethr =  5.58E-11,  avg # of iterations =  4.0

     negative rho (up, down):  8.828E-05 0.000E+00

     total cpu time spent up to now is      317.0 secs

     total energy              =   -2205.56701749 Ry
     estimated scf accuracy    <       0.00000005 Ry

     iteration # 10     ecut=    80.00 Ry     beta= 0.70
     Davidson diagonalization with overlap
     ethr =  1.61E-11,  avg # of iterations =  6.0

     negative rho (up, down):  1.379E-04 0.000E+00

     total cpu time spent up to now is      319.6 secs

     End of self-consistent calculation

          k = 0.0000 0.0000 0.0000 (105382 PWs)   bands (ev):

   -62.8688 -62.8376 -62.8289 -62.8032 -62.7937 -62.7792 -62.7654 -62.7625
   -62.7532 -62.7430 -62.7229 -62.7177 -37.1907 -37.1318 -37.1258 -37.1100
   -37.0776 -37.0619 -37.0559 -37.0403 -37.0357 -37.0244 -37.0199 -37.0097
   -37.0018 -36.9809 -36.9750 -36.9716 -36.9690 -36.9512 -36.9427 -36.9377
   -36.9299 -36.9204 -36.9153 -36.9036 -36.8943 -36.8882 -36.8783 -36.8681
   -36.8526 -36.8467 -36.8307 -36.8050 -36.7972 -36.7559 -36.7171 -36.6873
   -16.0803 -15.5448 -15.1183 -14.9906 -14.9365 -14.7996 -14.6633 -14.4734
   -14.4527 -14.3910 -14.3713 -14.3125 -14.2815 -14.2677 -14.1776 -14.0940
   -14.0933 -14.0820 -13.9934 -13.8894 -13.8265 -13.7999 -13.7609  -8.5745
    -7.6106  -7.3850  -7.2645  -7.2055  -7.1933  -7.1556  -7.0911  -7.0736
    -6.8109  -6.7652  -6.7412  -6.6640  -6.5514  -6.5125  -6.3971  -6.3762
    -6.3387  -6.2345  -6.1963  -5.9218  -5.9005  -5.8527  -5.8269  -5.7293
    -5.7209  -5.7000  -5.6496  -5.6318  -5.6257  -5.5873  -5.4890  -5.4256
    -5.3791  -5.3227  -5.1141  -5.0950  -5.0384  -4.9928  -4.9345  -4.9200
    -4.8979  -4.8644  -4.6220  -4.5251  -4.3793  -4.2982  -4.2710  -4.2174
    -4.1919  -4.1362  -4.0270  -3.8518  -3.7909  -3.7568  -3.7197  -3.6935
    -3.6542  -3.5416  -3.5251  -3.4763  -3.4664  -3.4509  -3.4318  -3.3587
    -3.3155  -3.2486  -3.1137  -2.8753  -2.8548  -2.7884  -2.7312  -2.7159
    -2.6808  -2.6303  -2.6176  -2.5942  -2.5350  -2.2947  -2.0010  -1.9643
    -1.9427  -0.8733  -0.7579  -0.6964  -0.1627  -0.1122  -0.0411  -0.0257
     0.1184   0.1393   0.2455   0.2952   0.3245   0.3606   0.4154   0.4662
     0.4912   0.5597   0.5685   0.5805   0.6450   0.7117   0.7380   0.7895
     0.8118   0.8423   0.8807   0.9313   1.0097   1.0190   1.0620   1.3768
     1.4314

     the Fermi energy is    -0.8962 ev

!    total energy              =   -2205.56701737 Ry
     estimated scf accuracy    <       0.00000002 Ry
     smearing contrib. (-TS)   =      -0.00814345 Ry
     internal energy E=F+TS    =   -2205.55887393 Ry

     The total energy is F=E-TS. E is the sum of the following terms:
     one-electron contribution =  -18043.90286873 Ry
     hartree contribution      =    9008.99870656 Ry
     xc contribution           =    -385.30247698 Ry
     ewald contribution        =    7214.64776522 Ry

     convergence has been achieved in  10 iterations

     negative rho (up, down):  1.379E-04 0.000E+00

     Forces acting on atoms (cartesian axes, Ry/au):

     atom    1 type  1   force =    -0.00212595   -0.00303568   -0.00404453
     atom    2 type  2   force =    -0.00193481    0.00460484   -0.00407937
     atom    3 type  2   force =    -0.01069525    0.00107849   -0.01528436
     atom    4 type  1   force =     0.00224837    0.00564843    0.00342906
     atom    5 type  2   force =     0.00055693   -0.00530523   -0.00618828
     atom    6 type  2   force =    -0.00051891    0.00207698    0.00185076
     atom    7 type  1   force =     0.00413786   -0.00584366    0.00205311
     atom    8 type  2   force =    -0.00278395   -0.00017826    0.00478582
     atom    9 type  2   force =     0.00830090    0.00381215    0.00159691
     atom   10 type  1   force =    -0.00180803    0.00493651   -0.00086114
     atom   11 type  2   force =     0.00222904   -0.00151814   -0.00860286
     atom   12 type  2   force =    -0.00480699   -0.00053902    0.00003599
     atom   13 type  1   force =     0.00039983    0.00008136    0.00055941
     atom   14 type  2   force =     0.00320912    0.00003942    0.00455250
     atom   15 type  2   force =    -0.00566851    0.00095565   -0.00411469
     atom   16 type  1   force =     0.00061495    0.00367089    0.00344425
     atom   17 type  2   force =     0.00623507    0.00080501    0.00208556
     atom   18 type  2   force =    -0.00257201   -0.00097175    0.00854113
     atom   19 type  1   force =     0.00122009   -0.00468835    0.00197245
     atom   20 type  2   force =     0.00221331   -0.00290046   -0.00445528
     atom   21 type  1   force =    -0.00185231    0.00107314    0.00158228
     atom   22 type  2   force =     0.00034158   -0.00168452   -0.00149285
     atom   23 type  2   force =     0.00112172   -0.00093758    0.00237612
     atom   24 type  1   force =    -0.00274298   -0.00299921   -0.00675571
     atom   25 type  2   force =     0.00467161    0.00941200   -0.00435752
     atom   26 type  2   force =    -0.00174683   -0.00471124   -0.00739065
     atom   27 type  1   force =    -0.00038322    0.00506347    0.00914886
     atom   28 type  2   force =    -0.00442297    0.01387810    0.01407979
     atom   29 type  2   force =     0.00257965   -0.00017144    0.00071835
     atom   30 type  1   force =    -0.00058741   -0.00253504    0.00391361
     atom   31 type  2   force =     0.00357432    0.00484956    0.00626292
     atom   32 type  2   force =    -0.00537683    0.00222465    0.00519766
     atom   33 type  1   force =     0.00143707    0.00065286    0.00349378
     atom   34 type  2   force =    -0.00174786   -0.01900664   -0.01335641
     atom   35 type  2   force =    -0.00342624    0.00667989    0.00364723
     atom   36 type  3   force =     0.01010966   -0.01451716   -0.00434391
     The non-local contrib.  to forces
     atom    1 type  1   force =     0.00205642    0.02384519   -0.01224633
     atom    2 type  2   force =    -0.00811359   -0.01247237   -0.26406246
     atom    3 type  2   force =    -0.00800680   -0.00956591    0.26051040
     atom    4 type  1   force =    -0.00034152    0.00311697    0.00750267
     atom    5 type  2   force =     0.01223658   -0.02971657   -0.24935148
     atom    6 type  2   force =    -0.00457582    0.00607983    0.26632556
     atom    7 type  1   force =    -0.02094495    0.00291861   -0.02340243
     atom    8 type  2   force =     0.00986058    0.00485755   -0.22911174
     atom    9 type  2   force =     0.00201886   -0.01148934    0.27343094
     atom   10 type  1   force =     0.00317736    0.00299286   -0.00408967
     atom   11 type  2   force =     0.00728692    0.00372250   -0.25983312
     atom   12 type  2   force =    -0.01460066   -0.01860063    0.26057543
     atom   13 type  1   force =     0.00152652    0.01813706   -0.00742039
     atom   14 type  2   force =     0.00705965   -0.00993127   -0.26575008
     atom   15 type  2   force =    -0.00839617   -0.00608291    0.26129485
     atom   16 type  1   force =    -0.00070359    0.03538303   -0.02650613
     atom   17 type  2   force =    -0.00221811   -0.02419063   -0.24589222
     atom   18 type  2   force =    -0.00129092    0.00111120    0.27158117
     atom   19 type  1   force =     0.01601580    0.00115060   -0.01633280
     atom   20 type  2   force =    -0.00022057   -0.01697901    0.26200296
     atom   21 type  1   force =     0.00023445    0.02845645    0.00465253
     atom   22 type  2   force =    -0.00356074    0.00213793   -0.25593037
     atom   23 type  2   force =     0.00849462   -0.01730698    0.26280947
     atom   24 type  1   force =     0.00096473    0.01798910   -0.01566474
     atom   25 type  2   force =     0.00844793   -0.00696820   -0.26207036
     atom   26 type  2   force =     0.00258867   -0.01531961    0.26247782
     atom   27 type  1   force =    -0.00671419    0.00283815    0.00463601
     atom   28 type  2   force =    -0.04459061    0.24309375   -0.02449289
     atom   29 type  2   force =     0.00512623    0.00239105    0.27158426
     atom   30 type  1   force =    -0.00006527    0.01995506    0.00948570
     atom   31 type  2   force =    -0.01114543    0.00344437   -0.24995877
     atom   32 type  2   force =     0.00132240   -0.01376211    0.27467931
     atom   33 type  1   force =    -0.00252025    0.00626346    0.00169230
     atom   34 type  2   force =    -0.00415389   -0.02004332   -0.27639101
     atom   35 type  2   force =     0.00010967   -0.01295075    0.26487928
     atom   36 type  3   force =     0.00839518   -0.03507460   -0.03139987
     The ionic contribution  to forces
     atom    1 type  1   force =    -0.10709836    0.75434949    5.83754457
     atom    2 type  2   force =    -0.20620172    0.24365392   39.38874360
     atom    3 type  2   force =    -0.29886228    0.01652911  -36.43878764
     atom    4 type  1   force =    -0.14290196   -0.11251839   -0.31148405
     atom    5 type  2   force =    -1.11504786    1.28608981   38.47134987
[...]
     atom   27 type  1   force =    -0.00535814    0.00032741   -0.00205650
     atom   28 type  2   force =    -0.00775532    0.28358033   -0.03296684
     atom   29 type  2   force =    -0.00172982   -0.00911130    0.27363062
     atom   30 type  1   force =     0.00010221    0.02089939    0.00791643
     atom   31 type  2   force =    -0.01196449    0.00215514   -0.24789819
     atom   32 type  2   force =     0.00915668   -0.00908951    0.27016285
     atom   33 type  1   force =    -0.00250761    0.00777524    0.00055366
     atom   34 type  2   force =     0.00104405   -0.01038477   -0.27078068
     atom   35 type  2   force =    -0.00124870   -0.01305670    0.26411054
     atom   36 type  3   force =     0.00197214   -0.03915323   -0.03765965
     The ionic contribution  to forces
     atom    1 type  1   force =    -0.12432022    0.88439726    2.27954323
     atom    2 type  2   force =    -0.01325988    0.18390338   38.45553723
     atom    3 type  2   force =    -0.20088152    0.13613212  -38.00308134
     atom    4 type  1   force =    -0.07706110   -0.71811805    1.67589949
     atom    5 type  2   force =    -0.90863085    0.82984210   38.26095195
     atom    6 type  2   force =     0.23388586   -0.24565756  -37.76024815
     atom    7 type  1   force =    -2.75551043   -1.94736802    1.79143322
     atom    8 type  2   force =    -1.61959683    0.58203037   38.02341626
     atom    9 type  2   force =     0.33220352   -0.19719207  -37.92011168
     atom   10 type  1   force =    -0.50201192   -0.28891723    1.98005093
     atom   11 type  2   force =    -0.45233464   -1.25908523   38.45225242
     atom   12 type  2   force =     0.12354583    0.28010511  -38.17566879
     atom   13 type  1   force =     0.11859043    0.91716081    3.08400093
     atom   14 type  2   force =     0.04546654   -0.05846645   38.48644024
     atom   15 type  2   force =    -0.03662549    0.09058784  -37.33757511
     atom   16 type  1   force =     0.00293490    3.16993466    2.31955271
     atom   17 type  2   force =     0.95117169    0.84760584   38.40434663
     atom   18 type  2   force =    -0.28953304   -0.25120844  -37.56835933
     atom   19 type  1   force =     2.80474182   -1.94792279    2.73186244
     atom   20 type  2   force =    -0.05326280   -0.22686552  -38.62329990
     atom   21 type  1   force =     0.01868924    0.00154188    0.81753053
     atom   22 type  2   force =     0.48393381   -1.22975785   38.58306864
     atom   23 type  2   force =    -0.18178363    0.24488155  -37.99243800
     atom   24 type  1   force =    -0.01351237    1.99094544   -0.50582009
     atom   25 type  2   force =    -0.02395602    0.19880941   38.61835919
     atom   26 type  2   force =     0.23913389    0.11702579  -37.88658218
     atom   27 type  1   force =     0.07887854   -0.74817291    2.69254375
     atom   28 type  2   force =     0.02410384   -1.84359424   37.90215613
     atom   29 type  2   force =     0.05736077    0.13137805  -36.85325419
     atom   30 type  1   force =     0.00942614   -0.43610488    1.61680141
     atom   31 type  2   force =     1.54100786    0.58104991   38.23598182
     atom   32 type  2   force =    -0.28432980   -0.21308920  -37.74342623
     atom   33 type  1   force =     0.52006096   -0.30492675    2.60606713
     atom   34 type  2   force =    -0.04559494   -0.14500566   38.72850569
     atom   35 type  2   force =     0.03714791    0.04620349  -37.62963917
     atom   36 type  3   force =    -0.04007807    0.82791781    8.25320222
     The local contribution  to forces
     atom    1 type  1   force =     0.12434630   -0.90422667   -2.27460063
     atom    2 type  2   force =     0.02483896   -0.16612850  -38.21861435
     atom    3 type  2   force =     0.19982363   -0.12617470   37.75768334
     atom    4 type  1   force =     0.07185346    0.71884095   -1.67572020
     atom    5 type  2   force =     0.89860608   -0.81245969  -38.03295060
     atom    6 type  2   force =    -0.23093784    0.24766874   37.51390581
     atom    7 type  1   force =     2.77124751    1.94018255   -1.76907795
     atom    8 type  2   force =     1.60640060   -0.58739200  -37.79785907
     atom    9 type  2   force =    -0.32364755    0.20586104   37.66918330
     atom   10 type  1   force =     0.49924510    0.28134547   -1.98133999
     atom   11 type  2   force =     0.44883001    1.26145893  -38.21705095
     atom   12 type  2   force =    -0.11552159   -0.26693581   37.93450120
     atom   13 type  1   force =    -0.11735337   -0.93681539   -3.07930703
     atom   14 type  2   force =    -0.04443618    0.06745188  -38.23982352
     atom   15 type  2   force =     0.03606365   -0.07992661   37.09674444
     atom   16 type  1   force =    -0.00349817   -3.20471303   -2.28785843
     atom   17 type  2   force =    -0.94035710   -0.83028120  -38.17562731
     atom   18 type  2   force =     0.28554478    0.25377571   37.32174751
     atom   19 type  1   force =    -2.82129946    1.94149303   -2.70845485
     atom   20 type  2   force =     0.05215950    0.23623063   38.38139719
     atom   21 type  1   force =    -0.01875647   -0.03078676   -0.82153115
     atom   22 type  2   force =    -0.47929629    1.23275229  -38.34786673
     atom   23 type  2   force =     0.17298927   -0.23162408   37.75057021
     atom   24 type  1   force =     0.01426146   -2.00772951    0.50515110
     atom   25 type  2   force =     0.01170496   -0.18134675  -38.38206682
     atom   26 type  2   force =    -0.23747043   -0.10670884   37.64136160
     atom   27 type  1   force =    -0.07354197    0.74791584   -2.69045634
     atom   28 type  2   force =    -0.01654026    1.57856861  -37.87245664
     atom   29 type  2   force =    -0.05638262   -0.12229518   36.60252836
     atom   30 type  1   force =    -0.00982175    0.41458026   -1.62490361
     atom   31 type  2   force =    -1.52897486   -0.58481442  -38.00756990
     atom   32 type  2   force =     0.27638157    0.22167771   37.49250639
     atom   33 type  1   force =    -0.51761407    0.29727336   -2.60706826
     atom   34 type  2   force =     0.04483875    0.15568826  -38.47886754
     atom   35 type  2   force =    -0.03653846   -0.03317479   37.38625788
     atom   36 type  3   force =     0.03962228   -0.78945491   -8.21627218
     The core correction contribution to forces
     atom    1 type  1   force =     0.00000000    0.00000000    0.00000000
     atom    2 type  2   force =     0.00066315    0.00089209    0.02039496
     atom    3 type  2   force =    -0.00024247    0.00032324   -0.02089210
     atom    4 type  1   force =     0.00000000    0.00000000    0.00000000
     atom    5 type  2   force =    -0.00078270    0.00060845    0.01995223
     atom    6 type  2   force =     0.00035431   -0.00027882   -0.02089168
     atom    7 type  1   force =     0.00000000    0.00000000    0.00000000
     atom    8 type  2   force =    -0.00088973    0.00040012    0.01965411
     atom    9 type  2   force =     0.00083576    0.00040013   -0.02102073
     atom   10 type  1   force =     0.00000000    0.00000000    0.00000000
     atom   11 type  2   force =     0.00002733   -0.00006047    0.02044287
     atom   12 type  2   force =     0.00061927    0.00101471   -0.02081525
     atom   13 type  1   force =     0.00000000    0.00000000    0.00000000
     atom   14 type  2   force =     0.00007424    0.00009951    0.02081315
     atom   15 type  2   force =    -0.00012996    0.00063061   -0.02051219
     atom   16 type  1   force =     0.00000000    0.00000000    0.00000000
     atom   17 type  2   force =     0.00091111    0.00063198    0.01999341
     atom   18 type  2   force =    -0.00043081   -0.00028085   -0.02085045
     atom   19 type  1   force =     0.00000000    0.00000000    0.00000000
     atom   20 type  2   force =    -0.00012007    0.00037691   -0.02119683
     atom   21 type  1   force =     0.00000000    0.00000000    0.00000000
     atom   22 type  2   force =     0.00004918    0.00001605    0.02044026
     atom   23 type  2   force =    -0.00071243    0.00092088   -0.02078770
     atom   24 type  1   force =     0.00000000    0.00000000    0.00000000
     atom   25 type  2   force =    -0.00082339    0.00087149    0.02042214
     atom   26 type  2   force =     0.00036444    0.00033595   -0.02088727
     atom   27 type  1   force =     0.00000000    0.00000000    0.00000000
     atom   28 type  2   force =     0.00051790   -0.01837844    0.00397781
     atom   29 type  2   force =     0.00014255    0.00057225   -0.02111914
     atom   30 type  1   force =     0.00000000    0.00000000    0.00000000
     atom   31 type  2   force =     0.00073227    0.00054581    0.01985183
     atom   32 type  2   force =    -0.00073525    0.00038331   -0.02101043
     atom   33 type  1   force =     0.00000000    0.00000000    0.00000000
     atom   34 type  2   force =    -0.00009533    0.00061635    0.02102984
     atom   35 type  2   force =     0.00008169    0.00079188   -0.02078985
     atom   36 type  3   force =     0.00000000    0.00000000    0.00000000
     The Hubbard contrib.    to forces
     atom    1 type  1   force =     0.00000000    0.00000000    0.00000000
     atom    2 type  2   force =     0.00000000    0.00000000    0.00000000
     atom    3 type  2   force =     0.00000000    0.00000000    0.00000000
     atom    4 type  1   force =     0.00000000    0.00000000    0.00000000
     atom    5 type  2   force =     0.00000000    0.00000000    0.00000000
     atom    6 type  2   force =     0.00000000    0.00000000    0.00000000
     atom    7 type  1   force =     0.00000000    0.00000000    0.00000000
     atom    8 type  2   force =     0.00000000    0.00000000    0.00000000
     atom    9 type  2   force =     0.00000000    0.00000000    0.00000000
     atom   10 type  1   force =     0.00000000    0.00000000    0.00000000
     atom   11 type  2   force =     0.00000000    0.00000000    0.00000000
     atom   12 type  2   force =     0.00000000    0.00000000    0.00000000
     atom   13 type  1   force =     0.00000000    0.00000000    0.00000000
     atom   14 type  2   force =     0.00000000    0.00000000    0.00000000
     atom   15 type  2   force =     0.00000000    0.00000000    0.00000000
     atom   16 type  1   force =     0.00000000    0.00000000    0.00000000
     atom   17 type  2   force =     0.00000000    0.00000000    0.00000000
     atom   18 type  2   force =     0.00000000    0.00000000    0.00000000
     atom   19 type  1   force =     0.00000000    0.00000000    0.00000000
     atom   20 type  2   force =     0.00000000    0.00000000    0.00000000
     atom   21 type  1   force =     0.00000000    0.00000000    0.00000000
     atom   22 type  2   force =     0.00000000    0.00000000    0.00000000
     atom   23 type  2   force =     0.00000000    0.00000000    0.00000000
     atom   24 type  1   force =     0.00000000    0.00000000    0.00000000
     atom   25 type  2   force =     0.00000000    0.00000000    0.00000000
     atom   26 type  2   force =     0.00000000    0.00000000    0.00000000
     atom   27 type  1   force =     0.00000000    0.00000000    0.00000000
     atom   28 type  2   force =     0.00000000    0.00000000    0.00000000
     atom   29 type  2   force =     0.00000000    0.00000000    0.00000000
     atom   30 type  1   force =     0.00000000    0.00000000    0.00000000
     atom   31 type  2   force =     0.00000000    0.00000000    0.00000000
     atom   32 type  2   force =     0.00000000    0.00000000    0.00000000
     atom   33 type  1   force =     0.00000000    0.00000000    0.00000000
     atom   34 type  2   force =     0.00000000    0.00000000    0.00000000
     atom   35 type  2   force =     0.00000000    0.00000000    0.00000000
     atom   36 type  3   force =     0.00000000    0.00000000    0.00000000
     The SCF correction term to forces
     atom    1 type  1   force =     0.00001148   -0.00001601    0.00002084
     atom    2 type  2   force =    -0.00000203   -0.00000749    0.00000080
     atom    3 type  2   force =     0.00001480    0.00000987    0.00001493
     atom    4 type  1   force =    -0.00000825    0.00000655   -0.00003865
     atom    5 type  2   force =     0.00000219   -0.00001749   -0.00001256
     atom    6 type  2   force =     0.00000612    0.00001848   -0.00000710
     atom    7 type  1   force =    -0.00001455    0.00000413   -0.00003071
     atom    8 type  2   force =    -0.00000304    0.00000911   -0.00002005
     atom    9 type  2   force =    -0.00001658   -0.00001021   -0.00001297
     atom   10 type  1   force =     0.00001091    0.00001568    0.00003106
     atom   11 type  2   force =    -0.00000097    0.00000830    0.00001156
     atom   12 type  2   force =     0.00000359   -0.00002210    0.00000065
     atom   13 type  1   force =    -0.00000755   -0.00001986    0.00001976
     atom   14 type  2   force =     0.00000137   -0.00000108    0.00001503
     atom   15 type  2   force =     0.00000353    0.00001011    0.00000192
     atom   16 type  1   force =    -0.00000116    0.00001278   -0.00003609
     atom   17 type  2   force =     0.00000168   -0.00001877   -0.00000321
     atom   18 type  2   force =     0.00000148    0.00001541   -0.00001088
     atom   19 type  1   force =    -0.00000269    0.00001876   -0.00001039
     atom   20 type  2   force =    -0.00000208    0.00000638   -0.00000857
     atom   21 type  1   force =    -0.00000628   -0.00001545    0.00002931
     atom   22 type  2   force =     0.00000624    0.00000030    0.00000619
     atom   23 type  2   force =     0.00000082   -0.00002897    0.00000038
     atom   24 type  1   force =    -0.00001460   -0.00001531    0.00000718
     atom   25 type  2   force =    -0.00000568   -0.00000997    0.00000501
     atom   26 type  2   force =    -0.00000667    0.00001493    0.00000765
     atom   27 type  1   force =     0.00001628    0.00000965   -0.00004618
     atom   28 type  2   force =    -0.00001780   -0.00001479    0.00000495
     atom   29 type  2   force =    -0.00000832    0.00000254   -0.00001238
     atom   30 type  1   force =    -0.00000261    0.00001600   -0.00002640
     atom   31 type  2   force =     0.00001282    0.00001888   -0.00001135
     atom   32 type  2   force =     0.00001868    0.00000206   -0.00001478
     atom   33 type  1   force =    -0.00002983    0.00001142    0.00003183
     atom   34 type  2   force =    -0.00000308    0.00002804    0.00000525
     atom   35 type  2   force =     0.00000096   -0.00001631    0.00000664
     atom   36 type  3   force =    -0.00000069   -0.00000377   -0.00000171

     Total force =     0.006636     Total SCF correction =     0.000154
     Energy error            =      9.7E-05 Ry
     Gradient error          =      1.8E-03 Ry/Bohr

     bfgs converged in  17 scf cycles and  16 bfgs steps
     (criteria: energy <  1.0E-04 Ry, force <  1.0E-02 Ry/Bohr)

     End of BFGS Geometry Optimization

     Final energy             =   -2205.5821884723 Ry

     File ./MoS2-V-O.bfgs deleted, as requested
Begin final coordinates

ATOMIC_POSITIONS (angstrom)
Mo            6.5647583870        1.7550747169        2.7532745613
S             8.1392099374        0.8491311513        4.3378993258
S             8.1248221321        0.8275767328        1.1364581972
Mo            8.1183877295        4.5110167799        2.7491079076
S             6.5109264640        3.6580460240        4.3205594055
S             6.5579513318        3.5671345759        1.1250756541
Mo            6.5110783330        7.1912344437        2.6579339606
S             8.0675272682        6.3368943511        4.3064942680
S             8.1440787046        6.3137099057        1.1198402020
Mo            8.1262492220        9.9326917496        2.7447578533
S             6.5156825469        8.9578667715        4.3124753223
S             6.5775179330        9.0280797645        1.1066793591
Mo            3.4088163048        1.7558845267        2.7684999213
S             4.9913453474        0.8148600727        4.3411555678
S             4.9798052510        0.8505005607        1.1736564821
Mo            4.9920797029        4.5404112337        2.6755567539
S             3.4783952503        3.6622890311        4.3329356498
S             3.4197472548        3.5668836913        1.1399801801
Mo            3.4741944507        7.1882399044        2.6758066755
S             4.9868748263        6.3073811127        1.0478431566
Mo            4.9888454859        9.9087192106        2.7217735379
S             3.4676570439        8.9618394553        4.3246797558
S             3.3983009296        9.0213321751        1.1220891684
Mo            0.2603868654        1.7014717967        2.6958403311
S             1.8273782248        0.8511527709        4.3516981789
S             1.8578731863        0.8263207011        1.1469559037
Mo            1.8633995563        4.5140371546        2.7682070795
S             0.2529391675        3.7255467624        4.4763901110
S             0.2701909938        3.5703122531        1.1870116245
Mo            0.2625707151        7.2215694256        2.7416142397
S             1.9072131494        6.3425190377        4.3232330575
S             1.8464893216        6.3115677344        1.1346765728
Mo            1.8522423094        9.9334070808        2.7572266243
S             0.2560746643        9.0371870084        4.3496284104
S             0.2673156938        9.0424293585        1.1621562110
H             0.2040213273        4.7539162744        5.4311686617
End final coordinates



     Writing all to output data dir ./MoS2-V-O.save/
 
     init_run     :      2.39s CPU      2.66s WALL (       1 calls)
     electrons    :   1437.93s CPU   1603.33s WALL (      17 calls)
     update_pot   :     22.95s CPU     24.33s WALL (      16 calls)
     forces       :     23.56s CPU     27.55s WALL (      17 calls)

     Called by init_run:
     wfcinit      :      0.39s CPU      0.43s WALL (       1 calls)
     potinit      :      1.31s CPU      1.44s WALL (       1 calls)
     hinit0       :      0.17s CPU      0.19s WALL (       1 calls)

     Called by electrons:
     c_bands      :    203.84s CPU    207.48s WALL (     145 calls)
     sum_band     :     43.38s CPU     56.95s WALL (     145 calls)
     v_of_rho     :     66.68s CPU     81.55s WALL (     151 calls)
     newd         :     20.14s CPU     32.39s WALL (     151 calls)
     mix_rho      :   1111.49s CPU   1233.12s WALL (     145 calls)

     Called by c_bands:
     init_us_2    :      3.12s CPU      3.33s WALL (     291 calls)
     init_us_2:cp :      3.11s CPU      3.33s WALL (     291 calls)
     regterg      :    192.93s CPU    196.34s WALL (     145 calls)

     Called by *egterg:
     rdiaghg      :     14.95s CPU     15.14s WALL (     856 calls)
     h_psi        :    100.88s CPU    101.82s WALL (     884 calls)
     s_psi        :     12.13s CPU     12.18s WALL (     884 calls)
     g_psi        :      1.28s CPU      1.28s WALL (     738 calls)

     Called by h_psi:
     h_psi:calbec :     15.19s CPU     15.28s WALL (     884 calls)
     vloc_psi     :     70.81s CPU     71.57s WALL (     884 calls)
     add_vuspsi   :     12.17s CPU     12.25s WALL (     884 calls)

     General routines
     calbec       :     21.40s CPU     21.51s WALL (    1097 calls)
     fft          :     43.42s CPU     50.68s WALL (   10207 calls)
     ffts         :    499.09s CPU    616.77s WALL (  271365 calls)
     fftw         :     60.47s CPU     61.04s WALL (   88967 calls)
     interpolate  :      1.10s CPU      1.31s WALL (     151 calls)
 
     Parallel routines
 
     PWSCF        :  24m49.90s CPU  27m43.55s WALL

 
   This run was terminated on:   2:28: 4   4Nov2023            

=------------------------------------------------------------------------------=
   JOB DONE.
=------------------------------------------------------------------------------=
