
     Program PWSCF v.7.2 starts on  4Nov2023 at  1: 9:46 

     This program is part of the open-source Quantum ESPRESSO suite
     for quantum simulation of materials; please cite
         "P. Giannozzi et al., J. Phys.:Condens. Matter 21 395502 (2009);
         "P. Giannozzi et al., J. Phys.:Condens. Matter 29 465901 (2017);
         "P. Giannozzi et al., J. Chem. Phys. 152 154105 (2020);
          URL http://www.quantum-espresso.org", 
     in publications or presentations arising from this work. More details at
     http://www.quantum-espresso.org/quote

     Parallel version (MPI & OpenMP), running on      48 processor cores
     Number of MPI processes:                48
     Threads/MPI process:                     1

     MPI processes distributed on     1 nodes
     47071 MiB available memory on the printing compute node when the environment starts
 
     Waiting for input...
     Reading input from standard input
Warning: card &CELL ignored
Warning: card CELL_DYNAMICS = 'BFGS', ignored
Warning: card CELL_DOFREE = '2DXY' ignored
Warning: card / ignored

     Current dimensions of program PWSCF are:
     Max number of different atomic species (ntypx) = 10
     Max number of k-points (npk) =  40000
     Max angular momentum in pseudopotentials (lmaxx) =  4

     IMPORTANT: XC functional enforced from input :
     Exchange-correlation= RVV10
                           (   1   4  13   4  26   0   0)
     Any further DFT definition will be discarded
     Please, verify this is what you really want


     gamma-point specific algorithms are used
     signal trapping enabled: kill the code with -SIGUSR1 to stop cleanly the simulation 
 
     R & G space division:  proc/nbgrp/npool/nimage =      48
     Subspace diagonalization in iterative solution of the eigenvalue problem:
     one sub-group per band group will be used
     scalapack distributed-memory algorithm (size of sub-group:  2*  2 procs)

 
     Parallelization info
     --------------------
     sticks:   dense  smooth     PW     G-vecs:    dense   smooth      PW
     Min         243     194     47                49060    35090    4376
     Max         246     196     50                49086    35128    4410
     Sum       11735    9389   2349              2355467  1685513  210763
 
     Using Slab Decomposition
 


     bravais-lattice index     =            0
     lattice parameter (alat)  =      17.8707  a.u.
     unit-cell volume          =   17436.2743 (a.u.)^3
     number of atoms/cell      =           36
     number of atomic types    =            3
     number of electrons       =       307.00
     number of Kohn-Sham states=          185
     kinetic-energy cutoff     =      80.0000  Ry
     charge density cutoff     =     400.0000  Ry
     scf convergence threshold =      1.0E-06
     mixing beta               =       0.7000
     number of iterations used =            8  local-TF  mixing
     energy convergence thresh.=      1.0E-04
     force convergence thresh. =      1.0E-02
     Exchange-correlation= RVV10
                           (   1   4  13   4  26   0   0)
     nstep                     =          200


     celldm(1)=  17.870686  celldm(2)=   0.000000  celldm(3)=   0.000000
     celldm(4)=   0.000000  celldm(5)=   0.000000  celldm(6)=   0.000000

     crystal axes: (cart. coord. in units of alat)
               a(1) = (   1.000000   0.000000   0.000000 )  
               a(2) = (   0.000000   1.155671   0.000000 )  
               a(3) = (   0.000000   0.000000   2.643601 )  

     reciprocal axes: (cart. coord. in units 2 pi/alat)
               b(1) = (  1.000000  0.000000  0.000000 )  
               b(2) = (  0.000000  0.865298  0.000000 )  
               b(3) = (  0.000000  0.000000  0.378272 )  


     PseudoPot. # 1 for Mo read from file:
     ../pseudo/Mo_ONCV_PBE-1.0.oncvpsp.upf
     MD5 check sum: 1b5d28e075c9ccadda658a603575cd1f
     Pseudo is Norm-conserving, Zval = 14.0
     Generated using ONCVPSP code by D. R. Hamann
     Using radial grid of 1526 points,  6 beta functions with: 
                l(1) =   0
                l(2) =   0
                l(3) =   1
                l(4) =   1
                l(5) =   2
                l(6) =   2

     PseudoPot. # 2 for S  read from file:
     ../pseudo/s_pbe_v1.4.uspp.F.UPF
     MD5 check sum: 88d86576ff6df21479756cfb9bdac1df
     Pseudo is Ultrasoft + core correction, Zval =  6.0
     Generated by new atomic code, or converted to UPF format
     Using radial grid of  907 points,  6 beta functions with: 
                l(1) =   0
                l(2) =   0
                l(3) =   1
                l(4) =   1
                l(5) =   2
                l(6) =   2
     Q(r) pseudized with  8 coefficients,  rinner =    1.300   1.300   1.300
                                                       1.300   1.300

     PseudoPot. # 3 for H  read from file:
     ../pseudo/H_ONCV_PBE-1.0.oncvpsp.upf
     MD5 check sum: 1790becc920ee074925cf490c71280fe
     Pseudo is Norm-conserving, Zval =  1.0
     Generated using ONCVPSP code by D. R. Hamann
     Using radial grid of 1166 points,  2 beta functions with: 
                l(1) =   0
                l(2) =   0

     atomic species   valence    mass     pseudopotential
        Mo            14.00    95.94000     Mo( 1.00)
        S              6.00    32.06500     S ( 1.00)
        H              1.00     1.00794     H ( 1.00)

     No symmetry found



   Cartesian axes

     site n.     atom                  positions (alat units)
         1           Mo  tau(   1) = (   0.6952221   0.1890506   0.2985846  )
         2           S   tau(   2) = (   0.8646417   0.0856217   0.4689279  )
         3           S   tau(   3) = (   0.8663890   0.0857843   0.1351291  )
         4           Mo  tau(   4) = (   0.8560186   0.4753274   0.2873942  )
         5           S   tau(   5) = (   0.6873294   0.3936244   0.4596353  )
         6           S   tau(   6) = (   0.6929804   0.3713468   0.1185692  )
         7           Mo  tau(   7) = (   0.6862796   0.7633098   0.2825370  )
         8           S   tau(   8) = (   0.8545980   0.6708292   0.4486168  )
         9           S   tau(   9) = (   0.8545123   0.6666874   0.1146125  )
        10           Mo  tau(  10) = (   0.8629403   1.0471007   0.3006803  )
        11           S   tau(  11) = (   0.6868280   0.9456650   0.4634891  )
        12           S   tau(  12) = (   0.6998113   0.9568511   0.1205389  )
        13           Mo  tau(  13) = (   0.3618216   0.1847309   0.2935964  )
        14           S   tau(  14) = (   0.5260962   0.0863870   0.4600448  )
        15           S   tau(  15) = (   0.5348379   0.0894875   0.1297123  )
        16           Mo  tau(  16) = (   0.5265817   0.4772436   0.2784130  )
        17           S   tau(  17) = (   0.3624753   0.3882513   0.4525556  )
        18           S   tau(  18) = (   0.3635411   0.3752055   0.1119148  )
        19           Mo  tau(  19) = (   0.3652268   0.7630864   0.2781795  )
        20           S   tau(  20) = (   0.5269494   0.6690381   0.1096838  )
        21           Mo  tau(  21) = (   0.5300192   1.0470394   0.2900995  )
        22           S   tau(  22) = (   0.3670346   0.9457522   0.4574073  )
        23           S   tau(  23) = (   0.3604225   0.9585725   0.1159032  )
        24           Mo  tau(  24) = (   0.0313099   0.1847895   0.3013130  )
        25           S   tau(  25) = (   0.1956761   0.0838230   0.4650863  )
        26           S   tau(  26) = (   0.1967693   0.0903508   0.1278874  )
        27           Mo  tau(  27) = (   0.1967578   0.4753919   0.2813011  )
        28           S   tau(  28) = (   0.0287851   0.3864324   0.4586755  )
        29           S   tau(  29) = (   0.0244514   0.3729871   0.1239344  )
        30           Mo  tau(  30) = (   0.0286728   0.7631204   0.2856894  )
        31           S   tau(  31) = (   0.2011512   0.6675435   0.4465001  )
        32           S   tau(  32) = (   0.1969214   0.6672839   0.1104564  )
        33           Mo  tau(  33) = (   0.1950294   1.0511147   0.2932237  )
        34           S   tau(  34) = (   0.0312912   0.9612169   0.4667423  )
        35           S   tau(  35) = (   0.0292670   0.9563028   0.1216485  )
        36           H   tau(  36) = (   0.8888889   0.3852236   0.5407634  )

     number of k points=     1  Gaussian smearing, width (Ry)=  0.0100
                       cart. coord. in units 2pi/alat
        k(    1) = (   0.0000000   0.0000000   0.0000000), wk =   2.0000000

     Dense  grid:  1177734 G-vectors     FFT dimensions: ( 120, 135, 320)

     Smooth grid:   842757 G-vectors     FFT dimensions: ( 108, 120, 270)

     Estimated max dynamical RAM per process >     146.59 MB

     Estimated total dynamical RAM >       6.87 GB

     Initial potential from superposition of free atoms

     starting charge     306.9873, renormalised to     307.0000

     negative rho (up, down):  1.417E-04 0.000E+00


---------------------------------------------------------------------------------
Carrying out rVV10 run using the following parameters:
Nqs =      20    Nr_points =    1024   r_max =   100.000
b_value =  6.30000    beta =  0.00901
     q_mesh =  0.00010000  0.00030000  0.00058939  0.00100810
               0.00161396  0.00249058  0.00375900  0.00559430
               0.00824984  0.01209221  0.01765183  0.02569619
               0.03733578  0.05417739  0.07854596  0.11380545
               0.16482331  0.23864234  0.34545298  0.50000000

Gradients computed in Reciprocal space

---------------------------------------------------------------------------------


     Starting wfcs are  213 randomized atomic wfcs

     total cpu time spent up to now is        2.8 secs

     Self-consistent Calculation

     iteration #  1     ecut=    80.00 Ry     beta= 0.70
     Davidson diagonalization with overlap
     ethr =  1.00E-02,  avg # of iterations =  2.0

     Threshold (ethr) on eigenvalues was too large:
     Diagonalizing with lowered threshold

     Davidson diagonalization with overlap
     ethr =  3.75E-04,  avg # of iterations =  4.0

     negative rho (up, down):  1.928E-08 0.000E+00

     total cpu time spent up to now is       17.2 secs

     total energy              =   -2205.60174262 Ry
     estimated scf accuracy    <       1.43791233 Ry

     iteration #  2     ecut=    80.00 Ry     beta= 0.70
     Davidson diagonalization with overlap
     ethr =  4.68E-04,  avg # of iterations =  2.0

     total cpu time spent up to now is       19.7 secs

     total energy              =   -2205.45667471 Ry
     estimated scf accuracy    <       0.58085190 Ry

     iteration #  3     ecut=    80.00 Ry     beta= 0.70
     Davidson diagonalization with overlap
     ethr =  1.89E-04,  avg # of iterations =  2.0

     total cpu time spent up to now is       22.2 secs

     total energy              =   -2205.52273139 Ry
     estimated scf accuracy    <       0.11897521 Ry

     iteration #  4     ecut=    80.00 Ry     beta= 0.70
     Davidson diagonalization with overlap
     ethr =  3.88E-05,  avg # of iterations = 17.0

     total cpu time spent up to now is       25.4 secs

     total energy              =   -2205.53337872 Ry
     estimated scf accuracy    <       0.03656668 Ry

     iteration #  5     ecut=    80.00 Ry     beta= 0.70
     Davidson diagonalization with overlap
     ethr =  1.19E-05,  avg # of iterations =  2.0

     total cpu time spent up to now is       27.6 secs

     total energy              =   -2205.53465111 Ry
     estimated scf accuracy    <       0.02273653 Ry

     iteration #  6     ecut=    80.00 Ry     beta= 0.70
     Davidson diagonalization with overlap
     ethr =  7.41E-06,  avg # of iterations =  2.0

     total cpu time spent up to now is       29.8 secs

     total energy              =   -2205.53376962 Ry
     estimated scf accuracy    <       0.01372935 Ry

     iteration #  7     ecut=    80.00 Ry     beta= 0.70
     Davidson diagonalization with overlap
     ethr =  4.47E-06,  avg # of iterations =  1.0

     total cpu time spent up to now is       32.6 secs

     total energy              =   -2205.53174696 Ry
     estimated scf accuracy    <       0.00900050 Ry

     iteration #  8     ecut=    80.00 Ry     beta= 0.70
     Davidson diagonalization with overlap
     ethr =  2.93E-06,  avg # of iterations =  9.0

     negative rho (up, down):  2.700E-03 0.000E+00

     total cpu time spent up to now is       37.8 secs

     total energy              =   -2205.53149885 Ry
     estimated scf accuracy    <       0.00388868 Ry

     iteration #  9     ecut=    80.00 Ry     beta= 0.70
     Davidson diagonalization with overlap
     ethr =  1.27E-06,  avg # of iterations =  2.0

     negative rho (up, down):  2.673E-02 0.000E+00

     total cpu time spent up to now is       42.4 secs

     total energy              =   -2205.53134524 Ry
     estimated scf accuracy    <       0.00246366 Ry

     iteration # 10     ecut=    80.00 Ry     beta= 0.70
     Davidson diagonalization with overlap
     ethr =  8.02E-07,  avg # of iterations =  2.0

     negative rho (up, down):  3.141E-02 0.000E+00

     total cpu time spent up to now is       46.9 secs

     total energy              =   -2205.53138918 Ry
     estimated scf accuracy    <       0.00112520 Ry

     iteration # 11     ecut=    80.00 Ry     beta= 0.70
     Davidson diagonalization with overlap
     ethr =  3.67E-07,  avg # of iterations =  2.0

     negative rho (up, down):  1.791E-02 0.000E+00

     total cpu time spent up to now is       53.3 secs

     total energy              =   -2205.53141492 Ry
     estimated scf accuracy    <       0.00035482 Ry

     iteration # 12     ecut=    80.00 Ry     beta= 0.70
     Davidson diagonalization with overlap
     ethr =  1.16E-07,  avg # of iterations =  5.0

     negative rho (up, down):  7.331E-03 0.000E+00

     total cpu time spent up to now is       59.4 secs

     total energy              =   -2205.53149405 Ry
     estimated scf accuracy    <       0.00010516 Ry

     iteration # 13     ecut=    80.00 Ry     beta= 0.70
     Davidson diagonalization with overlap
     ethr =  3.43E-08,  avg # of iterations =  2.0

     negative rho (up, down):  1.529E-03 0.000E+00

     total cpu time spent up to now is       65.2 secs

     total energy              =   -2205.53151751 Ry
     estimated scf accuracy    <       0.00001151 Ry

     iteration # 14     ecut=    80.00 Ry     beta= 0.70
     Davidson diagonalization with overlap
     ethr =  3.75E-09,  avg # of iterations =  5.0

     negative rho (up, down):  6.108E-04 0.000E+00

     total cpu time spent up to now is       75.5 secs

     total energy              =   -2205.53152556 Ry
     estimated scf accuracy    <       0.00000446 Ry

     iteration # 15     ecut=    80.00 Ry     beta= 0.70
     Davidson diagonalization with overlap
     ethr =  1.45E-09,  avg # of iterations =  2.0

     negative rho (up, down):  1.374E-04 0.000E+00

     total cpu time spent up to now is       77.4 secs

     End of self-consistent calculation

          k = 0.0000 0.0000 0.0000 (105382 PWs)   bands (ev):

   -62.8745 -62.8565 -62.8481 -62.8396 -62.8267 -62.8194 -62.8148 -62.7885
   -62.7778 -62.7437 -62.6886 -62.6525 -37.2126 -37.1504 -37.1374 -37.1272
   -37.1117 -37.0815 -37.0774 -37.0680 -37.0567 -37.0517 -37.0428 -37.0338
   -37.0242 -37.0154 -37.0055 -37.0006 -36.9980 -36.9934 -36.9837 -36.9718
   -36.9426 -36.9301 -36.9161 -36.9126 -36.8966 -36.8786 -36.8686 -36.8614
   -36.8557 -36.8375 -36.8273 -36.8217 -36.8071 -36.7946 -36.6799 -36.6396
   -16.1160 -15.5397 -15.1066 -15.0347 -14.9560 -14.8185 -14.6900 -14.5190
   -14.4714 -14.4173 -14.4026 -14.3412 -14.3061 -14.2707 -14.1871 -14.1477
   -14.0950 -14.0894 -14.0021 -13.9228 -13.8230 -13.7937 -13.7775  -8.6516
    -7.6652  -7.4619  -7.3154  -7.2598  -7.2423  -7.1804  -7.1310  -6.9902
    -6.8393  -6.8055  -6.7637  -6.6756  -6.5903  -6.4979  -6.4481  -6.4248
    -6.2821  -6.2196  -6.1269  -5.9644  -5.9390  -5.9051  -5.8515  -5.7606
    -5.7445  -5.6948  -5.6711  -5.6492  -5.6263  -5.5953  -5.5298  -5.4354
    -5.4345  -5.3910  -5.1522  -5.1249  -5.0519  -5.0029  -4.9883  -4.9500
    -4.9189  -4.8247  -4.6609  -4.4978  -4.3964  -4.3081  -4.2750  -4.2383
    -4.1959  -4.1340  -4.0090  -3.8619  -3.7929  -3.7831  -3.7512  -3.7037
    -3.6932  -3.5960  -3.5409  -3.4985  -3.4834  -3.4564  -3.4403  -3.3760
    -3.3328  -3.2048  -3.1297  -2.9018  -2.8686  -2.7804  -2.7685  -2.7182
    -2.6973  -2.6437  -2.6302  -2.5945  -2.5474  -2.2760  -2.0397  -1.9882
    -1.8801  -0.8758  -0.7365  -0.6235  -0.1710  -0.1123  -0.0804  -0.0023
     0.0246   0.1341   0.1833   0.2456   0.2805   0.3220   0.3337   0.4208
     0.4871   0.5232   0.5677   0.6276   0.6519   0.6956   0.7324   0.7653
     0.7919   0.8126   0.8648   0.9243   0.9727   0.9920   1.0225   1.3222
     1.4392

     the Fermi energy is    -0.8899 ev

!    total energy              =   -2205.53152517 Ry
     estimated scf accuracy    <       0.00000064 Ry
     smearing contrib. (-TS)   =      -0.00728600 Ry
     internal energy E=F+TS    =   -2205.52423918 Ry

     The total energy is F=E-TS. E is the sum of the following terms:
     one-electron contribution =  -18054.29253197 Ry
     hartree contribution      =    9014.00923874 Ry
     xc contribution           =    -385.31540716 Ry
     ewald contribution        =    7220.07446122 Ry

     convergence has been achieved in  15 iterations

     negative rho (up, down):  1.374E-04 0.000E+00

     Forces acting on atoms (cartesian axes, Ry/au):

     atom    1 type  1   force =     0.01393146   -0.02233508    0.00631932
     atom    2 type  2   force =    -0.01475745    0.01784144    0.00225563
     atom    3 type  2   force =    -0.01114082    0.00853769   -0.00457490
     atom    4 type  1   force =    -0.00440598    0.01895802   -0.03757873
     atom    5 type  2   force =     0.00762153   -0.01324089    0.00327249
     atom    6 type  2   force =     0.00264756    0.01200601   -0.00033731
     atom    7 type  1   force =    -0.00078100   -0.01490518   -0.00806611
     atom    8 type  2   force =     0.00193069   -0.00218227    0.01745764
     atom    9 type  2   force =     0.01409854    0.00415452    0.01066353
     atom   10 type  1   force =    -0.01105533    0.00970000   -0.02792879
     atom   11 type  2   force =     0.00509075   -0.00158162   -0.00579517
     atom   12 type  2   force =    -0.00053077    0.00133234    0.00647682
     atom   13 type  1   force =     0.00385055    0.00715389   -0.00882600
     atom   14 type  2   force =     0.00762454   -0.00057545    0.01284319
     atom   15 type  2   force =    -0.01391537    0.00161317   -0.01001147
     atom   16 type  1   force =    -0.00257719    0.01118651    0.00265750
     atom   17 type  2   force =     0.00736332    0.00210873   -0.00290832
     atom   18 type  2   force =    -0.00670859   -0.00866410    0.01456709
     atom   19 type  1   force =     0.00725808    0.00650427   -0.00849799
     atom   20 type  2   force =     0.00226994   -0.00532320    0.00168271
     atom   21 type  1   force =    -0.00613803    0.00450350   -0.00143699
     atom   22 type  2   force =    -0.00198406   -0.00295340   -0.00089058
     atom   23 type  2   force =    -0.00120270    0.00233330    0.00934857
     atom   24 type  1   force =    -0.01426998   -0.00630978   -0.01964952
     atom   25 type  2   force =     0.01788917    0.01627199    0.00890102
     atom   26 type  2   force =    -0.00833389   -0.00151171   -0.00480797
     atom   27 type  1   force =     0.01682030    0.01008224   -0.01821259
     atom   28 type  2   force =    -0.04315163   -0.02336175    0.05036842
     atom   29 type  2   force =     0.00331855    0.00140800   -0.00360631
     atom   30 type  1   force =    -0.00376069    0.00545177   -0.00498193
     atom   31 type  2   force =     0.00168859    0.00298783    0.02056122
     atom   32 type  2   force =    -0.00608219    0.00182330    0.00824747
     atom   33 type  1   force =     0.01367532   -0.00367623   -0.01032901
     atom   34 type  2   force =     0.00257572   -0.04412335   -0.00986027
     atom   35 type  2   force =    -0.00817378    0.00799817    0.01546812
     atom   36 type  3   force =     0.02931483   -0.00321266   -0.00279079
     The non-local contrib.  to forces
     atom    1 type  1   force =    -0.00207586    0.02902248   -0.01151750
     atom    2 type  2   force =    -0.01106722    0.01011609   -0.26486328
     atom    3 type  2   force =    -0.01274890    0.00002888    0.27235409
     atom    4 type  1   force =    -0.00351539    0.01349407    0.00591226
     atom    5 type  2   force =     0.04751518   -0.03454321   -0.18932401
     atom    6 type  2   force =    -0.00121254    0.01267097    0.26337755
     atom    7 type  1   force =    -0.02684908    0.00259751   -0.01749305
     atom    8 type  2   force =     0.00273096   -0.00292461   -0.24576011
     atom    9 type  2   force =     0.00716167   -0.01743406    0.27942134
     atom   10 type  1   force =     0.00428329   -0.00256875   -0.00202055
     atom   11 type  2   force =     0.01601663    0.00313459   -0.26135856
     atom   12 type  2   force =    -0.01238202   -0.01626752    0.26278630
     atom   13 type  1   force =     0.00189419    0.01826013   -0.00670118
     atom   14 type  2   force =     0.00974981   -0.00778764   -0.26149033
     atom   15 type  2   force =    -0.01441329   -0.00449410    0.26069658
     atom   16 type  1   force =     0.00375247    0.03875204   -0.02103475
     atom   17 type  2   force =     0.00474458   -0.03025498   -0.23852149
     atom   18 type  2   force =    -0.00582638    0.00335149    0.27513956
     atom   19 type  1   force =     0.01556708   -0.00937357   -0.00960814
     atom   20 type  2   force =     0.00085872   -0.02184782    0.26543743
     atom   21 type  1   force =    -0.00031549    0.02040126    0.00560503
     atom   22 type  2   force =    -0.00831278    0.00647167   -0.25714350
     atom   23 type  2   force =     0.00512244   -0.01468058    0.26760685
     atom   24 type  1   force =     0.01010719    0.01732674   -0.01258934
     atom   25 type  2   force =     0.01233547    0.00815471   -0.25836761
     atom   26 type  2   force =     0.00032977   -0.01512697    0.26181901
     atom   27 type  1   force =     0.00176486    0.00138331    0.00991042
     atom   28 type  2   force =    -0.24205743   -0.03273450   -0.06568629
     atom   29 type  2   force =     0.00478308    0.00271981    0.26643648
     atom   30 type  1   force =     0.00031911    0.01999622    0.00985382
     atom   31 type  2   force =    -0.00344831    0.00935361   -0.24551806
     atom   32 type  2   force =    -0.00830810   -0.01407691    0.27436889
     atom   33 type  1   force =    -0.00471193    0.00580257    0.00617357
     atom   34 type  2   force =    -0.00033943   -0.03876556   -0.27368429
     atom   35 type  2   force =    -0.00294664   -0.01191575    0.27139791
     atom   36 type  3   force =     0.02694929    0.00016309   -0.01973383
     The ionic contribution  to forces
     atom    1 type  1   force =     0.10872185   -0.08576398    5.39183709
     atom    2 type  2   force =    -0.69105183    0.05813777   39.22025454
     atom    3 type  2   force =    -0.16816156   -0.04680207  -36.13893309
     atom    4 type  1   force =    -0.04165207    0.96072783   -0.31212714
     atom    5 type  2   force =    -1.66582364    1.52642852   38.48286729
     atom    6 type  2   force =     0.29600245   -0.50499286  -38.11718709
     atom    7 type  1   force =    -2.71033560   -2.59563161    2.50279001
     atom    8 type  2   force =    -1.02741365    0.38674266   37.29673705
     atom    9 type  2   force =     0.33533550    0.02118030  -38.05762808
     atom   10 type  1   force =    -1.10990897   -0.41938116    5.63855321
     atom   11 type  2   force =    -0.59301295   -1.59436958   39.15028716
     atom   12 type  2   force =     0.43104945    0.69492232  -37.84983792
     atom   13 type  1   force =     0.51059711    0.87703195    2.80546622
     atom   14 type  2   force =    -0.00819092   -0.09656545   38.51781031
     atom   15 type  2   force =     0.13713327   -0.09687045  -36.81604411
     atom   16 type  1   force =    -0.20950438    4.02969238    0.34213088
     atom   17 type  2   force =     0.84260393    1.50106677   37.92101526
     atom   18 type  2   force =    -0.15468425   -0.64750084  -38.58976181
     atom   19 type  1   force =     2.73124247   -2.35106038    0.65673230
     atom   20 type  2   force =     0.21078927   -0.16650281  -38.48943617
     atom   21 type  1   force =    -0.00377100    0.00068382    1.18523327
     atom   22 type  2   force =     0.46192287   -1.70928466   38.44706397
     atom   23 type  2   force =    -0.08438266    0.66722670  -38.27552550
     atom   24 type  1   force =    -0.28861485    0.74249672    5.44724668
     atom   25 type  2   force =     0.74925625    0.16673448   39.26342922
     atom   26 type  2   force =    -0.26407238    0.02810786  -37.34986718
     atom   27 type  1   force =     0.28931767    0.51015383   -2.46456240
     atom   28 type  2   force =     1.25743548    1.01683971   37.51680857
     atom   29 type  2   force =    -0.22140184   -0.43254352  -37.38383958
     atom   30 type  1   force =    -0.26016421   -0.68471492   -0.12287049
     atom   31 type  2   force =     1.32367451    0.06032195   37.31342109
     atom   32 type  2   force =    -0.45739876    0.02869388  -38.65289972
     atom   33 type  1   force =     0.84800025   -0.91569853    2.07795568
     atom   34 type  2   force =     0.26363287   -1.43885722   39.36375738
     atom   35 type  2   force =    -0.29096687    0.48029282  -37.81304517
     atom   36 type  3   force =    -0.54620281    0.02905776    7.89216827
     The local contribution  to forces
     atom    1 type  1   force =    -0.09245920    0.03454084   -5.37288263
     atom    2 type  2   force =     0.68711872   -0.04963565  -38.97314493
     atom    3 type  2   force =     0.16918393    0.05543041   35.88327305
     atom    4 type  1   force =     0.04088703   -0.95552895    0.26976937
     atom    5 type  2   force =     1.62954589   -1.50713203  -38.30670615
     atom    6 type  2   force =    -0.29232903    0.50549517   37.87462686
     atom    7 type  1   force =     2.73664392    2.57817768   -2.49239773
     atom    8 type  2   force =     1.02681577   -0.38686172  -37.05292988
     atom    9 type  2   force =    -0.32821939   -0.00062137   37.81015982
     atom   10 type  1   force =     1.09445938    0.43182624   -5.66338174
     atom   11 type  2   force =     0.58293441    1.59020974  -38.91495088
     atom   12 type  2   force =    -0.42028507   -0.67862026   37.61452680
     atom   13 type  1   force =    -0.50865814   -0.88795251   -2.80661488
     atom   14 type  2   force =     0.00667992    0.10391649  -38.26361668
     atom   15 type  2   force =    -0.13735218    0.10268426   36.56611383
     atom   16 type  1   force =     0.20333724   -4.05764795   -0.31741735
     atom   17 type  2   force =    -0.83998936   -1.47031077  -37.70475081
     atom   18 type  2   force =     0.15355939    0.63627682   38.35048483
     atom   19 type  1   force =    -2.73971865    2.36693141   -0.65475613
     atom   20 type  2   force =    -0.20940001    0.18212576   38.24689290
     atom   21 type  1   force =    -0.00182728   -0.01644736   -1.19136514
     atom   22 type  2   force =    -0.45584935    1.70061692  -38.21069512
     atom   23 type  2   force =     0.07850863   -0.65136185   38.03822045
     atom   24 type  1   force =     0.26398703   -0.76597323   -5.45303031
     atom   25 type  2   force =    -0.74360606   -0.15795774  -39.01626704
     atom   26 type  2   force =     0.25567145   -0.01527257   37.10426120
     atom   27 type  1   force =    -0.27452292   -0.50161576    2.43737644
     atom   28 type  2   force =    -1.07443153   -1.00966225  -37.40856158
     atom   29 type  2   force =     0.22041248    0.43189536   37.13490178
     atom   30 type  1   force =     0.25596971    0.66998120    0.10896668
     atom   31 type  2   force =    -1.31901145   -0.06660719  -37.06699658
     atom   32 type  2   force =     0.45938678   -0.01375603   38.40797648
     atom   33 type  1   force =    -0.82971697    0.90633274   -2.09348048
     atom   34 type  2   force =    -0.26115672    1.43235610  -39.12061232
     atom   35 type  2   force =     0.28573860   -0.46139310   37.57840442
     atom   36 type  3   force =     0.54858078   -0.03244670   -7.87519170
     The core correction contribution to forces
     atom    1 type  1   force =     0.00000000    0.00000000    0.00000000
     atom    2 type  2   force =     0.00025832   -0.00072608    0.02040356
     atom    3 type  2   force =     0.00055822   -0.00012068   -0.02097209
     atom    4 type  1   force =     0.00000000    0.00000000    0.00000000
     atom    5 type  2   force =    -0.00346005    0.00192503    0.01680541
     atom    6 type  2   force =     0.00023005   -0.00117571   -0.02090131
     atom    7 type  1   force =     0.00000000    0.00000000    0.00000000
     atom    8 type  2   force =    -0.00013702    0.00073513    0.01985513
     atom    9 type  2   force =    -0.00014234    0.00094813   -0.02111687
     atom   10 type  1   force =     0.00000000    0.00000000    0.00000000
     atom   11 type  2   force =    -0.00078043   -0.00044192    0.02069716
     atom   12 type  2   force =     0.00112452    0.00136349   -0.02082004
     atom   13 type  1   force =     0.00000000    0.00000000    0.00000000
     atom   14 type  2   force =    -0.00053601   -0.00014894    0.02057472
     atom   15 type  2   force =     0.00076974    0.00028624   -0.02055410
     atom   16 type  1   force =     0.00000000    0.00000000    0.00000000
     atom   17 type  2   force =    -0.00006518    0.00156937    0.01968694
     atom   18 type  2   force =     0.00019779   -0.00076653   -0.02107494
     atom   19 type  1   force =     0.00000000    0.00000000    0.00000000
     atom   20 type  2   force =     0.00006234    0.00083886   -0.02117858
     atom   21 type  1   force =     0.00000000    0.00000000    0.00000000
     atom   22 type  2   force =     0.00025026   -0.00064725    0.02041231
     atom   23 type  2   force =    -0.00045107    0.00121774   -0.02084552
     atom   24 type  1   force =     0.00000000    0.00000000    0.00000000
     atom   25 type  2   force =    -0.00019219   -0.00063734    0.02054853
     atom   26 type  2   force =    -0.00028619    0.00078122   -0.02079832
     atom   27 type  1   force =     0.00000000    0.00000000    0.00000000
     atom   28 type  2   force =     0.01579221    0.00218729    0.00821834
     atom   29 type  2   force =    -0.00047811   -0.00061148   -0.02078745
     atom   30 type  1   force =     0.00000000    0.00000000    0.00000000
     atom   31 type  2   force =     0.00033760   -0.00022618    0.02007992
     atom   32 type  2   force =     0.00017325    0.00083495   -0.02104265
     atom   33 type  1   force =     0.00000000    0.00000000    0.00000000
     atom   34 type  2   force =     0.00037951    0.00121892    0.02113930
     atom   35 type  2   force =    -0.00004610    0.00103802   -0.02110432
     atom   36 type  3   force =     0.00000000    0.00000000    0.00000000
     The Hubbard contrib.    to forces
     atom    1 type  1   force =     0.00000000    0.00000000    0.00000000
     atom    2 type  2   force =     0.00000000    0.00000000    0.00000000
     atom    3 type  2   force =     0.00000000    0.00000000    0.00000000
     atom    4 type  1   force =     0.00000000    0.00000000    0.00000000
     atom    5 type  2   force =     0.00000000    0.00000000    0.00000000
     atom    6 type  2   force =     0.00000000    0.00000000    0.00000000
     atom    7 type  1   force =     0.00000000    0.00000000    0.00000000
     atom    8 type  2   force =     0.00000000    0.00000000    0.00000000
     atom    9 type  2   force =     0.00000000    0.00000000    0.00000000
     atom   10 type  1   force =     0.00000000    0.00000000    0.00000000
     atom   11 type  2   force =     0.00000000    0.00000000    0.00000000
     atom   12 type  2   force =     0.00000000    0.00000000    0.00000000
     atom   13 type  1   force =     0.00000000    0.00000000    0.00000000
     atom   14 type  2   force =     0.00000000    0.00000000    0.00000000
     atom   15 type  2   force =     0.00000000    0.00000000    0.00000000
     atom   16 type  1   force =     0.00000000    0.00000000    0.00000000
     atom   17 type  2   force =     0.00000000    0.00000000    0.00000000
     atom   18 type  2   force =     0.00000000    0.00000000    0.00000000
     atom   19 type  1   force =     0.00000000    0.00000000    0.00000000
     atom   20 type  2   force =     0.00000000    0.00000000    0.00000000
     atom   21 type  1   force =     0.00000000    0.00000000    0.00000000
     atom   22 type  2   force =     0.00000000    0.00000000    0.00000000
     atom   23 type  2   force =     0.00000000    0.00000000    0.00000000
     atom   24 type  1   force =     0.00000000    0.00000000    0.00000000
     atom   25 type  2   force =     0.00000000    0.00000000    0.00000000
     atom   26 type  2   force =     0.00000000    0.00000000    0.00000000
     atom   27 type  1   force =     0.00000000    0.00000000    0.00000000
     atom   28 type  2   force =     0.00000000    0.00000000    0.00000000
     atom   29 type  2   force =     0.00000000    0.00000000    0.00000000
     atom   30 type  1   force =     0.00000000    0.00000000    0.00000000
     atom   31 type  2   force =     0.00000000    0.00000000    0.00000000
     atom   32 type  2   force =     0.00000000    0.00000000    0.00000000
     atom   33 type  1   force =     0.00000000    0.00000000    0.00000000
     atom   34 type  2   force =     0.00000000    0.00000000    0.00000000
     atom   35 type  2   force =     0.00000000    0.00000000    0.00000000
     atom   36 type  3   force =     0.00000000    0.00000000    0.00000000
     The SCF correction term to forces
     atom    1 type  1   force =    -0.00025480   -0.00013818   -0.00109843
     atom    2 type  2   force =    -0.00001493   -0.00005446   -0.00037504
     atom    3 type  2   force =     0.00002802   -0.00000261   -0.00027763
     atom    4 type  1   force =    -0.00012502    0.00026131   -0.00111400
     atom    5 type  2   force =    -0.00015534    0.00007705   -0.00035083
     atom    6 type  2   force =    -0.00004285    0.00000469   -0.00023411
     atom    7 type  1   force =    -0.00023971   -0.00005252   -0.00094612
     atom    8 type  2   force =    -0.00006485    0.00012252   -0.00042533
     atom    9 type  2   force =    -0.00003637    0.00007775   -0.00015346
     atom   10 type  1   force =     0.00011150   -0.00018009   -0.00106049
     atom   11 type  2   force =    -0.00006639   -0.00011821   -0.00045083
     atom   12 type  2   force =    -0.00003711   -0.00006946   -0.00015910
     atom   13 type  1   force =     0.00001792   -0.00018945   -0.00095694
     atom   14 type  2   force =    -0.00007773    0.00000632   -0.00041561
     atom   15 type  2   force =    -0.00005238    0.00000346   -0.00020446
     atom   16 type  1   force =    -0.00016200    0.00038627   -0.00100206
     atom   17 type  2   force =     0.00006987    0.00003458   -0.00031899
     atom   18 type  2   force =     0.00004540   -0.00002879   -0.00020133
     atom   19 type  1   force =     0.00016770    0.00000306   -0.00084680
     atom   20 type  2   force =    -0.00003986    0.00005904   -0.00001366
     atom   21 type  1   force =    -0.00022374   -0.00013798   -0.00089093
     atom   22 type  2   force =     0.00000546   -0.00011384   -0.00050901
     atom   23 type  2   force =     0.00000048   -0.00007248   -0.00008849
     atom   24 type  1   force =     0.00025116   -0.00016377   -0.00125733
     atom   25 type  2   force =     0.00009622   -0.00002587   -0.00042286
     atom   26 type  2   force =     0.00002397   -0.00000501   -0.00020347
     atom   27 type  1   force =     0.00026122    0.00015710   -0.00091784
     atom   28 type  2   force =     0.00011015    0.00000425   -0.00039139
     atom   29 type  2   force =     0.00000346   -0.00005593   -0.00029832
     atom   30 type  1   force =     0.00011522    0.00018552   -0.00091272
     atom   31 type  2   force =     0.00013677    0.00014189   -0.00040592
     atom   32 type  2   force =     0.00006517    0.00012364   -0.00013631
     atom   33 type  1   force =     0.00010449   -0.00011678   -0.00095856
     atom   34 type  2   force =     0.00006001   -0.00007936   -0.00044111
     atom   35 type  2   force =     0.00004776   -0.00002759   -0.00016549
     atom   36 type  3   force =    -0.00001191    0.00000943   -0.00001431

     Total force =     0.136299     Total SCF correction =     0.003931

     BFGS Geometry Optimization
     Energy error            =      0.0E+00 Ry
     Gradient error          =      5.0E-02 Ry/Bohr

     number of scf cycles    =   1
     number of bfgs steps    =   0

     energy             new  =   -2205.5315251720 Ry

     new trust radius        =       0.0703193609 bohr
     new conv_thr            =       0.0000010000 Ry


ATOMIC_POSITIONS (angstrom)
Mo            6.5819206208        1.7759870138        2.8269870700
S             8.1689000303        0.8191453070        4.4357319813
S             8.1873376177        0.8157596955        1.2754624916
Mo            8.0928310230        4.5050890966        2.6979325864
S             6.5039423946        3.7154047082        4.3483923757
S             6.5547508276        3.5180908632        1.1211017312
Mo            6.4895684112        7.2105498021        2.6676160809
S             8.0827494072        6.3427161868        4.2516997460
S             8.0883782751        6.3069007913        1.0895058982
Mo            8.1547688196        9.9073134346        2.8286824829
S             6.4978615025        8.9420898568        4.3800388609
S             6.6176663303        9.0494162554        1.1433346886
Mo            3.4236972871        1.7507415245        2.7718006424
S             4.9792002242        0.8166366964        4.3573294160
S             5.0504700588        0.8471157594        1.2213606207
Mo            4.9783928908        4.5190976507        2.6342908362
S             3.4317381616        3.6727155787        4.2781705654
S             3.4343705500        3.5436438542        1.0660602520
Mo            3.4577025487        7.2197664522        2.6261799178
S             4.9844353915        6.3241153671        1.0381441826
Mo            5.0090158166        9.9039831999        2.7426405410
S             3.4699081968        8.9421883985        4.3251200381
S             3.4077927250        9.0662247115        1.1010153516
Mo            0.2885391380        1.7441705370        2.8390466294
S             1.8599287520        0.8013047756        4.4029196542
S             1.8563899290        0.8536259530        1.2068565859
Mo            1.8695922308        4.5010020503        2.6505596940
S             0.2493789894        3.6420363227        4.3642379213
S             0.2329873069        3.5279943096        1.1701095089
Mo            0.2691620784        7.2195310464        2.6990601049
S             1.9031318129        6.3143799270        4.2333246528
S             1.8590196595        6.3113086595        1.0489236538
Mo            1.8515833282        9.9381937748        2.7674803749
S             0.2972759127        9.0666487545        4.4086516383
S             0.2724460242        9.0477581641        1.1585861565
H             8.4215216279        3.6412665981        5.1123926443



     Writing config-only to output data dir ./MoS2-V-O.save/
     NEW-OLD atomic charge density approx. for the potential

     negative rho (up, down):  1.458E-04 0.000E+00

     total cpu time spent up to now is       80.8 secs

     Self-consistent Calculation

     iteration #  1     ecut=    80.00 Ry     beta= 0.70
     Davidson diagonalization with overlap
     ethr =  1.00E-06,  avg # of iterations = 10.0

     negative rho (up, down):  1.280E-04 0.000E+00

     total cpu time spent up to now is      103.0 secs

     total energy              =   -2205.54624916 Ry
     estimated scf accuracy    <       0.00159985 Ry

     iteration #  2     ecut=    80.00 Ry     beta= 0.70
     Davidson diagonalization with overlap
     ethr =  5.21E-07,  avg # of iterations =  2.0

     negative rho (up, down):  1.216E-04 0.000E+00

     total cpu time spent up to now is      129.1 secs

     total energy              =   -2205.54626872 Ry
     estimated scf accuracy    <       0.00034374 Ry

     iteration #  3     ecut=    80.00 Ry     beta= 0.70
     Davidson diagonalization with overlap
     ethr =  1.12E-07,  avg # of iterations =  6.0

     negative rho (up, down):  1.201E-04 0.000E+00

     total cpu time spent up to now is      142.7 secs

     total energy              =   -2205.54631286 Ry
     estimated scf accuracy    <       0.00005625 Ry

     iteration #  4     ecut=    80.00 Ry     beta= 0.70
     Davidson diagonalization with overlap
     ethr =  1.83E-08,  avg # of iterations =  5.0

     negative rho (up, down):  1.163E-04 0.000E+00

     total cpu time spent up to now is      166.0 secs

     total energy              =   -2205.54632378 Ry
     estimated scf accuracy    <       0.00001469 Ry

     iteration #  5     ecut=    80.00 Ry     beta= 0.70
     Davidson diagonalization with overlap
     ethr =  4.79E-09,  avg # of iterations =  4.0

     negative rho (up, down):  1.114E-04 0.000E+00

     total cpu time spent up to now is      187.5 secs

     total energy              =   -2205.54632499 Ry
     estimated scf accuracy    <       0.00000228 Ry

     iteration #  6     ecut=    80.00 Ry     beta= 0.70
     Davidson diagonalization with overlap
     ethr =  7.43E-10,  avg # of iterations =  5.0

     negative rho (up, down):  1.378E-04 0.000E+00

     total cpu time spent up to now is      189.7 secs

     End of self-consistent calculation

          k = 0.0000 0.0000 0.0000 (105382 PWs)   bands (ev):

   -62.8751 -62.8550 -62.8392 -62.8383 -62.8276 -62.8192 -62.8115 -62.7874
   -62.7762 -62.7471 -62.7003 -62.6586 -37.2111 -37.1425 -37.1349 -37.1224
   -37.1076 -37.0852 -37.0755 -37.0659 -37.0554 -37.0436 -37.0387 -37.0327
   -37.0206 -37.0136 -37.0048 -36.9991 -36.9955 -36.9933 -36.9824 -36.9705
   -36.9421 -36.9316 -36.9158 -36.9139 -36.8972 -36.8807 -36.8697 -36.8662
   -36.8565 -36.8365 -36.8311 -36.8223 -36.8112 -36.7957 -36.6892 -36.6468
   -16.1165 -15.5518 -15.1076 -15.0317 -14.9524 -14.8217 -14.6789 -14.5005
   -14.4694 -14.4115 -14.3994 -14.3349 -14.3110 -14.2777 -14.1874 -14.1484
   -14.0974 -14.0893 -14.0059 -13.9099 -13.8368 -13.8053 -13.7724  -8.6661
    -7.6559  -7.4500  -7.2988  -7.2548  -7.2314  -7.1726  -7.1351  -7.0077
    -6.8315  -6.7873  -6.7578  -6.6701  -6.5975  -6.4882  -6.4448  -6.4193
    -6.2840  -6.2174  -6.1388  -5.9518  -5.9356  -5.8887  -5.8452  -5.7571
    -5.7422  -5.6974  -5.6745  -5.6504  -5.6294  -5.5859  -5.5367  -5.4353
    -5.4169  -5.3771  -5.1321  -5.1201  -5.0486  -5.0032  -4.9869  -4.9472
    -4.9237  -4.8297  -4.6481  -4.4995  -4.3932  -4.3016  -4.2759  -4.2316
    -4.2046  -4.1524  -4.0233  -3.8608  -3.8005  -3.7787  -3.7539  -3.6917
    -3.6841  -3.5941  -3.5455  -3.5055  -3.4682  -3.4558  -3.4395  -3.3834
    -3.3341  -3.2111  -3.1352  -2.8957  -2.8548  -2.7799  -2.7580  -2.7142
    -2.6849  -2.6570  -2.6413  -2.6011  -2.5519  -2.2706  -2.0392  -1.9931
    -1.8996  -0.8728  -0.7274  -0.6434  -0.1682  -0.1107  -0.0750   0.0066
     0.0160   0.1288   0.1896   0.2632   0.2725   0.3344   0.3447   0.4243
     0.4863   0.5298   0.5682   0.6173   0.6573   0.7013   0.7245   0.7580
     0.7978   0.8200   0.8732   0.9219   0.9816   1.0068   1.0179   1.3390
     1.4431

     the Fermi energy is    -0.8862 ev

!    total energy              =   -2205.54632505 Ry
     estimated scf accuracy    <       0.00000074 Ry
     smearing contrib. (-TS)   =      -0.00726736 Ry
     internal energy E=F+TS    =   -2205.53905768 Ry

     The total energy is F=E-TS. E is the sum of the following terms:
     one-electron contribution =  -18050.79098182 Ry
     hartree contribution      =    9012.28008639 Ry
     xc contribution           =    -385.31417318 Ry
     ewald contribution        =    7218.28601093 Ry

     convergence has been achieved in   6 iterations

     negative rho (up, down):  1.378E-04 0.000E+00

     Forces acting on atoms (cartesian axes, Ry/au):

     atom    1 type  1   force =     0.00424924   -0.01119868    0.00051831
     atom    2 type  2   force =    -0.00947477    0.00973414   -0.00023014
     atom    3 type  2   force =    -0.01041581    0.00710896   -0.01068093
     atom    4 type  1   force =    -0.00115915    0.01106100   -0.01303104
     atom    5 type  2   force =     0.00527618   -0.00824306   -0.00620119
     atom    6 type  2   force =    -0.00030308    0.00720219   -0.00136742
     atom    7 type  1   force =     0.00154431   -0.01024431   -0.00066675
     atom    8 type  2   force =     0.00105798   -0.00343702    0.00961698
     atom    9 type  2   force =     0.01155408    0.00767326    0.00221025
     atom   10 type  1   force =    -0.00472530    0.00843522   -0.00985314
     atom   11 type  2   force =     0.00422208   -0.00159321   -0.00881161
     atom   12 type  2   force =    -0.00291282    0.00018876    0.00229254
     atom   13 type  1   force =     0.00278092    0.00502339   -0.00250385
     atom   14 type  2   force =     0.00513819   -0.00044333    0.00810712
     atom   15 type  2   force =    -0.00937806    0.00151857   -0.00767056
     atom   16 type  1   force =     0.00101141    0.00668572    0.00578973
     atom   17 type  2   force =     0.00439231    0.00332168   -0.00360591
     atom   18 type  2   force =    -0.00305326   -0.00627417    0.00827712
     atom   19 type  1   force =     0.00278115    0.00234005   -0.00166623
     atom   20 type  2   force =     0.00127615   -0.00427005   -0.00286768
     atom   21 type  1   force =    -0.00398566    0.00278399    0.00182072
     atom   22 type  2   force =    -0.00073386   -0.00184161   -0.00158812
     atom   23 type  2   force =     0.00000769    0.00237214    0.00335869
     atom   24 type  1   force =    -0.00965365   -0.00446425   -0.00514746
     atom   25 type  2   force =     0.01227766    0.01240365    0.00100044
     atom   26 type  2   force =    -0.00606513   -0.00123891   -0.00555482
     atom   27 type  1   force =     0.00696398    0.00539479   -0.00426584
     atom   28 type  2   force =    -0.02923733   -0.01605444    0.03240063
     atom   29 type  2   force =     0.00436050    0.00250782   -0.00499691
     atom   30 type  1   force =    -0.00141364   -0.00156864    0.00377955
     atom   31 type  2   force =     0.00196709    0.00148504    0.01162108
     atom   32 type  2   force =    -0.00355571    0.00431474    0.00360082
     atom   33 type  1   force =     0.00695221   -0.00075265    0.00038261
     atom   34 type  2   force =    -0.00005593   -0.03217055   -0.01487538
     atom   35 type  2   force =    -0.00595802    0.00792925    0.00855368
     atom   36 type  3   force =     0.02426806   -0.00568948    0.00225472
     The non-local contrib.  to forces
     atom    1 type  1   force =    -0.00018205    0.02531199   -0.01357400
     atom    2 type  2   force =    -0.00849622    0.00550369   -0.26517398
     atom    3 type  2   force =    -0.01087918   -0.00240144    0.26732220
     atom    4 type  1   force =    -0.00334938    0.01559259    0.00589204
     atom    5 type  2   force =     0.03606584   -0.03141720   -0.20009444
     atom    6 type  2   force =    -0.00273265    0.00955265    0.26413822
     atom    7 type  1   force =    -0.02719084    0.00125697   -0.01962410
     atom    8 type  2   force =     0.00147380   -0.00279149   -0.24927085
     atom    9 type  2   force =     0.00401019   -0.01511822    0.27369461
     atom   10 type  1   force =     0.00279772   -0.00186753   -0.00308209
     atom   11 type  2   force =     0.01429126    0.00213523   -0.26406764
     atom   12 type  2   force =    -0.01372309   -0.01736150    0.26128034
     atom   13 type  1   force =     0.00267366    0.01965594   -0.00741056
     atom   14 type  2   force =     0.00822423   -0.00721959   -0.26383384
     atom   15 type  2   force =    -0.01111032   -0.00502983    0.26189208
     atom   16 type  1   force =     0.00107125    0.03891505   -0.02415800
     atom   17 type  2   force =     0.00479520   -0.02906804   -0.23868211
     atom   18 type  2   force =    -0.00293244    0.00605554    0.27140257
     atom   19 type  1   force =     0.01594193   -0.00761990   -0.01153696
     atom   20 type  2   force =    -0.00034488   -0.02039102    0.26264867
     atom   21 type  1   force =    -0.00146868    0.02116221    0.00428274
     atom   22 type  2   force =    -0.00717036    0.00736479   -0.25713859
     atom   23 type  2   force =     0.00601684   -0.01455112    0.26382966
     atom   24 type  1   force =     0.00814159    0.01820753   -0.01411887
     atom   25 type  2   force =     0.00877946    0.00507042   -0.26305909
     atom   26 type  2   force =     0.00244138   -0.01454087    0.26176214
     atom   27 type  1   force =     0.00367539    0.00098446    0.00894082
     atom   28 type  2   force =    -0.24759568   -0.03178160   -0.07911044
     atom   29 type  2   force =     0.00471980    0.00298033    0.26706216
     atom   30 type  1   force =    -0.00062339    0.01960050    0.00769180
     atom   31 type  2   force =    -0.00183000    0.01058443   -0.25092938
     atom   32 type  2   force =    -0.00534635   -0.01215634    0.27186248
     atom   33 type  1   force =    -0.00258827    0.00417877    0.00458268
     atom   34 type  2   force =    -0.00237980   -0.02985605   -0.27800353
     atom   35 type  2   force =    -0.00185171   -0.01169008    0.26771522
     atom   36 type  3   force =     0.03238638   -0.00036044   -0.02217696
     The ionic contribution  to forces
     atom    1 type  1   force =    -0.15624158    0.26138960    5.54658755
     atom    2 type  2   force =    -0.50679570   -0.08648124   39.30630684
     atom    3 type  2   force =    -0.15308912   -0.01151354  -36.25657396
     atom    4 type  1   force =     0.18690129    0.68114189   -0.91552898
     atom    5 type  2   force =    -1.61218817    1.54550651   38.40032954
     atom    6 type  2   force =     0.19100483   -0.63363377  -38.03147814
     atom    7 type  1   force =    -2.66791784   -2.38312666    2.52749970
     atom    8 type  2   force =    -1.00300038    0.33098492   37.41450451
     atom    9 type  2   force =     0.34485242    0.10898529  -38.08265437
     atom   10 type  1   force =    -0.86543221   -0.47742796    5.32507575
     atom   11 type  2   force =    -0.54541662   -1.60364126   39.10088495
     atom   12 type  2   force =     0.36375875    0.64174248  -37.81115080
     atom   13 type  1   force =     0.41067229    0.84121322    2.78934884
     atom   14 type  2   force =    -0.09420687   -0.06595108   38.58906766
     atom   15 type  2   force =     0.16750810   -0.03855139  -36.84298060
     atom   16 type  1   force =    -0.11414095    3.77687162    0.61692030
     atom   17 type  2   force =     0.73977836    1.47205884   37.92256820
     atom   18 type  2   force =    -0.09370443   -0.65962932  -38.53279515
     atom   19 type  1   force =     2.58597553   -2.41819711    0.59192266
     atom   20 type  2   force =     0.17803168   -0.16623677  -38.54730053
     atom   21 type  1   force =     0.04139959    0.00773643    1.32511460
     atom   22 type  2   force =     0.44837295   -1.69562482   38.50761480
     atom   23 type  2   force =    -0.07202498    0.66053707  -38.28933852
     atom   24 type  1   force =     0.04158879    0.89495459    5.25036385
     atom   25 type  2   force =     0.63016725    0.15451954   39.22083824
     atom   26 type  2   force =    -0.24755637    0.05031067  -37.29666846
     atom   27 type  1   force =    -0.12567212    0.32060777   -2.43578299
     atom   28 type  2   force =     1.45579352    1.06560926   37.51877131
     atom   29 type  2   force =    -0.15672451   -0.44657863  -37.28549244
     atom   30 type  1   force =    -0.15696957   -0.79486421   -0.02536037
     atom   31 type  2   force =     1.29147381   -0.02160056   37.38121842
     atom   32 type  2   force =    -0.45342243    0.06662388  -38.60419057
     atom   33 type  1   force =     0.60400433   -0.67519357    2.17256033
     atom   34 type  2   force =     0.21051547   -1.22961734   39.26314653
     atom   35 type  2   force =    -0.23813571    0.48017943  -37.72003087
     atom   36 type  3   force =    -0.62915939    0.04689624    7.90668216
     The local contribution  to forces
     atom    1 type  1   force =     0.16049975   -0.29822676   -5.53361744
     atom    2 type  2   force =     0.50558405    0.09122977  -39.06223461
     atom    3 type  2   force =     0.15299303    0.02096569   35.99902215
     atom    4 type  1   force =    -0.18471291   -0.68522720    0.89556176
     atom    5 type  2   force =     1.58420763   -1.52415669  -38.22401522
     atom    6 type  2   force =    -0.18881218    0.63233882   37.78637917
     atom    7 type  1   force =     2.69655746    2.37188129   -2.50956298
     atom    8 type  2   force =     1.00267535   -0.33209632  -37.17606898
     atom    9 type  2   force =    -0.33736461   -0.08692612   37.83190268
     atom   10 type  1   force =     0.85775965    0.48732337   -5.33287003
     atom   11 type  2   force =     0.53599404    1.60018830  -38.86693627
     atom   12 type  2   force =    -0.35411627   -0.62568167   37.57267347
     atom   13 type  1   force =    -0.41049248   -0.85601811   -2.78533553
     atom   14 type  2   force =     0.09156157    0.07283107  -38.33822973
     atom   15 type  2   force =    -0.16641590    0.04472579   36.59365711
     atom   16 type  1   force =     0.11391206   -3.80878862   -0.58802031
     atom   17 type  2   force =    -0.74016290   -1.44117792  -37.70751704
     atom   18 type  2   force =     0.09347743    0.64816622   38.29026600
     atom   19 type  1   force =    -2.59917498    2.42832230   -0.58296164
     atom   20 type  2   force =    -0.17652010    0.18181162   38.30262373
     atom   21 type  1   force =    -0.04394880   -0.02637815   -1.32864574
     atom   22 type  2   force =    -0.44215801    1.68701251  -38.27295454
     atom   23 type  2   force =     0.06654018   -0.64494416   38.04936199
     atom   24 type  1   force =    -0.05925621   -0.91787584   -5.24235014
     atom   25 type  2   force =    -0.62651208   -0.14673332  -38.97780479
     atom   26 type  2   force =     0.23949895   -0.03782079   37.04979483
     atom   27 type  1   force =     0.12924705   -0.31567659    2.42159381
     atom   28 type  2   force =    -1.25389874   -1.05198106  -37.41572101
     atom   29 type  2   force =     0.15681142    0.44676941   37.03379393
     atom   30 type  1   force =     0.15631218    0.77374354    0.02057735
     atom   31 type  2   force =    -1.28789693    0.01293974  -37.13933086
     atom   32 type  2   force =     0.45523940   -0.05078127   38.35669565
     atom   33 type  1   force =    -0.59428216    0.66997799   -2.17762547
     atom   34 type  2   force =    -0.20857262    1.22626128  -39.02171630
     atom   35 type  2   force =     0.23409379   -0.46172766   37.48156693
     atom   36 type  3   force =     0.62106246   -0.05221799   -7.88233564
     The core correction contribution to forces
     atom    1 type  1   force =     0.00000000    0.00000000    0.00000000
     atom    2 type  2   force =     0.00024758   -0.00063334    0.02047326
     atom    3 type  2   force =     0.00045850    0.00001226   -0.02088371
     atom    4 type  1   force =     0.00000000    0.00000000    0.00000000
     atom    5 type  2   force =    -0.00282768    0.00180495    0.01720400
     atom    6 type  2   force =     0.00019887   -0.00113467   -0.02088270
     atom    7 type  1   force =     0.00000000    0.00000000    0.00000000
     atom    8 type  2   force =    -0.00006187    0.00067838    0.01996959
     atom    9 type  2   force =     0.00002655    0.00094033   -0.02101112
     atom   10 type  1   force =     0.00000000    0.00000000    0.00000000
     atom   11 type  2   force =    -0.00065053   -0.00041171    0.02076320
     atom   12 type  2   force =     0.00111207    0.00136382   -0.02076808
     atom   13 type  1   force =     0.00000000    0.00000000    0.00000000
     atom   14 type  2   force =    -0.00053013   -0.00015230    0.02065526
     atom   15 type  2   force =     0.00065884    0.00034077   -0.02059384
     atom   16 type  1   force =     0.00000000    0.00000000    0.00000000
     atom   17 type  2   force =    -0.00011376    0.00149244    0.01971477
     atom   18 type  2   force =     0.00012526   -0.00089556   -0.02099602
     atom   19 type  1   force =     0.00000000    0.00000000    0.00000000
     atom   20 type  2   force =     0.00010002    0.00076554   -0.02111760
     atom   21 type  1   force =     0.00000000    0.00000000    0.00000000
     atom   22 type  2   force =     0.00018651   -0.00071294    0.02044662
     atom   23 type  2   force =    -0.00046360    0.00121070   -0.02077870
     atom   24 type  1   force =     0.00000000    0.00000000    0.00000000
     atom   25 type  2   force =    -0.00007907   -0.00050285    0.02065116
     atom   26 type  2   force =    -0.00035809    0.00075553   -0.02078011
     atom   27 type  1   force =     0.00000000    0.00000000    0.00000000
     atom   28 type  2   force =     0.01650571    0.00217121    0.00826856
     atom   29 type  2   force =    -0.00041713   -0.00063859   -0.02080049
     atom   30 type  1   force =     0.00000000    0.00000000    0.00000000
     atom   31 type  2   force =     0.00024590   -0.00030374    0.02020645
     atom   32 type  2   force =     0.00001968    0.00078711   -0.02096850
     atom   33 type  1   force =     0.00000000    0.00000000    0.00000000
     atom   34 type  2   force =     0.00041797    0.00093773    0.02126334
     atom   35 type  2   force =    -0.00006376    0.00102326   -0.02098962
     atom   36 type  3   force =     0.00000000    0.00000000    0.00000000
     The Hubbard contrib.    to forces
     atom    1 type  1   force =     0.00000000    0.00000000    0.00000000
     atom    2 type  2   force =     0.00000000    0.00000000    0.00000000
     atom    3 type  2   force =     0.00000000    0.00000000    0.00000000
     atom    4 type  1   force =     0.00000000    0.00000000    0.00000000
     atom    5 type  2   force =     0.00000000    0.00000000    0.00000000
     atom    6 type  2   force =     0.00000000    0.00000000    0.00000000
     atom    7 type  1   force =     0.00000000    0.00000000    0.00000000
     atom    8 type  2   force =     0.00000000    0.00000000    0.00000000
     atom    9 type  2   force =     0.00000000    0.00000000    0.00000000
     atom   10 type  1   force =     0.00000000    0.00000000    0.00000000
     atom   11 type  2   force =     0.00000000    0.00000000    0.00000000
     atom   12 type  2   force =     0.00000000    0.00000000    0.00000000
     atom   13 type  1   force =     0.00000000    0.00000000    0.00000000
     atom   14 type  2   force =     0.00000000    0.00000000    0.00000000
     atom   15 type  2   force =     0.00000000    0.00000000    0.00000000
     atom   16 type  1   force =     0.00000000    0.00000000    0.00000000
     atom   17 type  2   force =     0.00000000    0.00000000    0.00000000
     atom   18 type  2   force =     0.00000000    0.00000000    0.00000000
     atom   19 type  1   force =     0.00000000    0.00000000    0.00000000
     atom   20 type  2   force =     0.00000000    0.00000000    0.00000000
     atom   21 type  1   force =     0.00000000    0.00000000    0.00000000
     atom   22 type  2   force =     0.00000000    0.00000000    0.00000000
     atom   23 type  2   force =     0.00000000    0.00000000    0.00000000
     atom   24 type  1   force =     0.00000000    0.00000000    0.00000000
     atom   25 type  2   force =     0.00000000    0.00000000    0.00000000
     atom   26 type  2   force =     0.00000000    0.00000000    0.00000000
     atom   27 type  1   force =     0.00000000    0.00000000    0.00000000
     atom   28 type  2   force =     0.00000000    0.00000000    0.00000000
     atom   29 type  2   force =     0.00000000    0.00000000    0.00000000
     atom   30 type  1   force =     0.00000000    0.00000000    0.00000000
     atom   31 type  2   force =     0.00000000    0.00000000    0.00000000
     atom   32 type  2   force =     0.00000000    0.00000000    0.00000000
     atom   33 type  1   force =     0.00000000    0.00000000    0.00000000
     atom   34 type  2   force =     0.00000000    0.00000000    0.00000000
     atom   35 type  2   force =     0.00000000    0.00000000    0.00000000
     atom   36 type  3   force =     0.00000000    0.00000000    0.00000000
     The SCF correction term to forces
     atom    1 type  1   force =     0.00017486    0.00032708    0.00109502
     atom    2 type  2   force =    -0.00001274    0.00011585    0.00037118
     atom    3 type  2   force =     0.00010270    0.00004659    0.00040521
     atom    4 type  1   force =     0.00000358   -0.00044569    0.00101697
     atom    5 type  2   force =     0.00002030    0.00001996    0.00034775
     atom    6 type  2   force =     0.00003980    0.00007975    0.00044886
     atom    7 type  1   force =     0.00009727   -0.00025531    0.00099346
     atom    8 type  2   force =    -0.00002718   -0.00021192    0.00045553
     atom    9 type  2   force =     0.00003126   -0.00020742    0.00025126
     atom   10 type  1   force =     0.00015127    0.00040793    0.00099606
     atom   11 type  2   force =     0.00000567    0.00013682    0.00051698
     atom   12 type  2   force =     0.00005746    0.00012623    0.00023043
     atom   13 type  1   force =    -0.00007081    0.00017292    0.00086622
     atom   14 type  2   force =     0.00009114    0.00004917    0.00042059
     atom   15 type  2   force =    -0.00001704    0.00003383    0.00032752
     atom   16 type  1   force =     0.00017078   -0.00031173    0.00102056
     atom   17 type  2   force =     0.00009716    0.00001696    0.00028310
     atom   18 type  2   force =    -0.00001734    0.00002954    0.00037255
     atom   19 type  1   force =     0.00004041   -0.00016465    0.00088252
     atom   20 type  2   force =     0.00001116   -0.00021883    0.00025088
     atom   21 type  1   force =     0.00003396    0.00026410    0.00104194
     atom   22 type  2   force =     0.00003678    0.00011945    0.00041640
     atom   23 type  2   force =    -0.00005901    0.00012025    0.00025709
     atom   24 type  1   force =    -0.00012608    0.00025007    0.00093052
     atom   25 type  2   force =    -0.00007615    0.00005046    0.00034774
     atom   26 type  2   force =    -0.00008925    0.00005714    0.00030960
     atom   27 type  1   force =    -0.00028460   -0.00052026    0.00095535
     atom   28 type  2   force =    -0.00004040   -0.00007166    0.00016504
     atom   29 type  2   force =    -0.00002735   -0.00002410    0.00041274
     atom   30 type  1   force =    -0.00013113   -0.00004788    0.00084359
     atom   31 type  2   force =    -0.00002395   -0.00013424    0.00042929
     atom   32 type  2   force =    -0.00004427   -0.00015804    0.00017458
     atom   33 type  1   force =    -0.00017995    0.00028476    0.00083789
     atom   34 type  2   force =    -0.00003521    0.00010442    0.00040741
     atom   35 type  2   force =     0.00000111    0.00014489    0.00026485
     atom   36 type  3   force =    -0.00001966   -0.00000670    0.00005799

     Total force =     0.086837     Total SCF correction =     0.003968
     Energy error            =      1.5E-02 Ry
     Gradient error          =      3.2E-02 Ry/Bohr

     number of scf cycles    =   2
     number of bfgs steps    =   1

     energy             old  =   -2205.5315251720 Ry
     energy             new  =   -2205.5463250481 Ry

     CASE: energy            _new < energy            _old

     new trust radius        =       0.0773512970 bohr
     new conv_thr            =       0.0000000324 Ry


ATOMIC_POSITIONS (angstrom)
Mo            6.5864225205        1.7655811037        2.8280048078
S             8.1605158537        0.8280308290        4.4357934769
S             8.1786362229        0.8217932617        1.2672343626
Mo            8.0915415248        4.5150523898        2.6846485448
S             6.5085507636        3.7080697013        4.3442165932
S             6.5547990592        3.5245439974        1.1200735279
Mo            6.4906117705        7.2015912574        2.6663132621
S             8.0837142997        6.3399964259        4.2604611747
S             8.0982070903        6.3128999700        1.0921941588
Mo            8.1502125969        9.9144289665        2.8186872878
S             6.5014469386        8.9407713082        4.3730457924
S             6.6154951297        9.0496886077        1.1456581089
Mo            3.4261093315        1.7551187057        2.7690853375
S             4.9837085982        0.8162560673        4.3645252657
S             5.0422415951        0.8483832520        1.2147693370
Mo            4.9788666875        4.5250922343        2.6387690068
S             3.4356778507        3.6753440377        4.2752543941
S             3.4314706415        3.5382042852        1.0735545329
Mo            3.4604603874        7.2221271942        2.6241067567
S             4.9855932769        6.3204714868        1.0362303112
Mo            5.0054960098        9.9064637067        2.7438182859
S             3.4691734990        8.9405501437        4.3238752802
S             3.4076763241        9.0681857182        1.1044050553
Mo            0.2800743776        1.7402854191        2.8333118205
S             1.8706680342        0.8119716112        4.4045497203
S             1.8511358056        0.8525720394        1.2023310483
Mo            1.8763605237        4.5059462315        2.6456114940
S             0.2237491441        3.6279965699        4.3928992104
S             0.2364936051        3.5299600838        1.1661114108
Mo            0.2677530369        7.2189437582        2.7013021835
S             1.9047329912        6.3157624761        4.2438576880
S             1.8558180541        6.3146300286        1.0523776727
Mo            1.8580240618        9.9372737811        2.7667108222
S             0.2974965156        9.0387881537        4.3968384198
S             0.2672860028        9.0543332889        1.1663728680
H             8.4421357763        3.6368049856        5.1137485570



     Writing config-only to output data dir ./MoS2-V-O.save/
     NEW-OLD atomic charge density approx. for the potential

     negative rho (up, down):  1.486E-04 0.000E+00

     total cpu time spent up to now is      193.1 secs

     Self-consistent Calculation

     iteration #  1     ecut=    80.00 Ry     beta= 0.70
     Davidson diagonalization with overlap
     c_bands:  2 eigenvalues not converged
     ethr =  1.00E-06,  avg # of iterations = 20.0

     negative rho (up, down):  1.219E-04 0.000E+00

     total cpu time spent up to now is      206.3 secs

     total energy              =   -2205.55555152 Ry
     estimated scf accuracy    <       0.00160782 Ry

     iteration #  2     ecut=    80.00 Ry     beta= 0.70
     Davidson diagonalization with overlap
     c_bands:  2 eigenvalues not converged
     ethr =  5.24E-07,  avg # of iterations = 20.0

     negative rho (up, down):  1.066E-04 0.000E+00

     total cpu time spent up to now is      229.9 secs

     total energy              =   -2205.55561019 Ry
     estimated scf accuracy    <       0.00044537 Ry

     iteration #  3     ecut=    80.00 Ry     beta= 0.70
     Davidson diagonalization with overlap
     ethr =  1.45E-07,  avg # of iterations = 20.0

     negative rho (up, down):  9.536E-05 0.000E+00

     total cpu time spent up to now is      248.0 secs

     total energy              =   -2205.55563753 Ry
     estimated scf accuracy    <       0.00014049 Ry

     iteration #  4     ecut=    80.00 Ry     beta= 0.70
     Davidson diagonalization with overlap
     ethr =  4.58E-08,  avg # of iterations =  5.0

     negative rho (up, down):  9.055E-05 0.000E+00

     total cpu time spent up to now is      264.9 secs

     total energy              =   -2205.55565447 Ry
     estimated scf accuracy    <       0.00000627 Ry

     iteration #  5     ecut=    80.00 Ry     beta= 0.70
     Davidson diagonalization with overlap
     ethr =  2.04E-09,  avg # of iterations =  7.0

     negative rho (up, down):  9.061E-05 0.000E+00

     total cpu time spent up to now is      280.6 secs

     total energy              =   -2205.55565770 Ry
     estimated scf accuracy    <       0.00000219 Ry

     iteration #  6     ecut=    80.00 Ry     beta= 0.70
     Davidson diagonalization with overlap
     ethr =  7.12E-10,  avg # of iterations =  3.0

     negative rho (up, down):  9.315E-05 0.000E+00

     total cpu time spent up to now is      296.5 secs

     total energy              =   -2205.55565775 Ry
     estimated scf accuracy    <       0.00000046 Ry

     iteration #  7     ecut=    80.00 Ry     beta= 0.70
     Davidson diagonalization with overlap
     ethr =  1.50E-10,  avg # of iterations =  6.0

     negative rho (up, down):  9.677E-05 0.000E+00

     total cpu time spent up to now is      308.8 secs

     total energy              =   -2205.55565781 Ry
     estimated scf accuracy    <       0.00000008 Ry

     iteration #  8     ecut=    80.00 Ry     beta= 0.70
     Davidson diagonalization with overlap
     ethr =  2.62E-11,  avg # of iterations =  4.0

     negative rho (up, down):  1.382E-04 0.000E+00

     total cpu time spent up to now is      310.9 secs

     End of self-consistent calculation

          k = 0.0000 0.0000 0.0000 (105382 PWs)   bands (ev):

   -62.8742 -62.8554 -62.8381 -62.8267 -62.8237 -62.8150 -62.8071 -62.7847
   -62.7711 -62.7498 -62.7116 -62.6649 -37.2094 -37.1384 -37.1312 -37.1158
   -37.1030 -37.0886 -37.0737 -37.0609 -37.0542 -37.0361 -37.0345 -37.0293
   -37.0136 -37.0070 -37.0016 -36.9949 -36.9938 -36.9896 -36.9782 -36.9670
   -36.9400 -36.9308 -36.9149 -36.9126 -36.8970 -36.8828 -36.8724 -36.8660
   -36.8560 -36.8362 -36.8312 -36.8214 -36.8138 -36.7949 -36.6964 -36.6526
   -16.1297 -15.5809 -15.1087 -15.0345 -14.9451 -14.8193 -14.6754 -14.4847
   -14.4629 -14.4099 -14.3948 -14.3272 -14.3117 -14.2780 -14.1863 -14.1434
   -14.1010 -14.0822 -14.0039 -13.9086 -13.8434 -13.8074 -13.7646  -8.6988
    -7.6480  -7.4407  -7.2812  -7.2562  -7.2151  -7.1628  -7.1326  -7.0204
    -6.8249  -6.7673  -6.7571  -6.6636  -6.5986  -6.4797  -6.4427  -6.4085
    -6.2843  -6.2176  -6.1559  -5.9417  -5.9363  -5.8718  -5.8356  -5.7564
    -5.7413  -5.6966  -5.6736  -5.6434  -5.6226  -5.5780  -5.5331  -5.4336
    -5.4030  -5.3697  -5.1282  -5.1086  -5.0462  -5.0043  -4.9755  -4.9402
    -4.9287  -4.8304  -4.6330  -4.4984  -4.4052  -4.3047  -4.2668  -4.2185
    -4.2068  -4.1637  -4.0265  -3.8619  -3.8121  -3.7707  -3.7525  -3.6820
    -3.6660  -3.5928  -3.5401  -3.5128  -3.4593  -3.4533  -3.4319  -3.3833
    -3.3319  -3.2171  -3.1335  -2.8895  -2.8465  -2.7821  -2.7460  -2.7062
    -2.6790  -2.6640  -2.6484  -2.6008  -2.5531  -2.2694  -2.0365  -1.9935
    -1.9114  -0.8704  -0.7129  -0.6640  -0.1750  -0.1006  -0.0691   0.0059
     0.0232   0.1193   0.1914   0.2601   0.2812   0.3344   0.3597   0.4320
     0.4877   0.5361   0.5695   0.6114   0.6673   0.6927   0.7258   0.7595
     0.7983   0.8338   0.8805   0.9258   0.9803   1.0108   1.0261   1.3424
     1.3845

     the Fermi energy is    -0.8826 ev

!    total energy              =   -2205.55565762 Ry
     estimated scf accuracy    <       0.00000003 Ry
     smearing contrib. (-TS)   =      -0.00721414 Ry
     internal energy E=F+TS    =   -2205.54844348 Ry

     The total energy is F=E-TS. E is the sum of the following terms:
     one-electron contribution =  -18047.09640328 Ry
     hartree contribution      =    9010.45748589 Ry
     xc contribution           =    -385.31861650 Ry
     ewald contribution        =    7216.40909041 Ry

     convergence has been achieved in   8 iterations

     negative rho (up, down):  1.382E-04 0.000E+00

     Forces acting on atoms (cartesian axes, Ry/au):

     atom    1 type  1   force =    -0.00328435   -0.00191694   -0.00555725
     atom    2 type  2   force =    -0.00512619    0.00257556   -0.00049432
     atom    3 type  2   force =    -0.00809036    0.00530790   -0.01232992
     atom    4 type  1   force =     0.00209578    0.00274650    0.00161277
     atom    5 type  2   force =     0.00156359   -0.00372104   -0.01130490
     atom    6 type  2   force =    -0.00200415    0.00395867   -0.00108732
     atom    7 type  1   force =     0.00257987   -0.00518304    0.00159771
     atom    8 type  2   force =     0.00003518   -0.00419699    0.00516926
     atom    9 type  2   force =     0.00826533    0.00904297   -0.00268722
     atom   10 type  1   force =    -0.00115996    0.00647990   -0.00015588
     atom   11 type  2   force =     0.00331455   -0.00137652   -0.00860045
     atom   12 type  2   force =    -0.00427050   -0.00073001    0.00072265
     atom   13 type  1   force =     0.00113115    0.00195260    0.00042459
     atom   14 type  2   force =     0.00265230   -0.00003514    0.00424119
     atom   15 type  2   force =    -0.00566811    0.00074715   -0.00445916
     atom   16 type  1   force =     0.00283372    0.00297349    0.00418665
     atom   17 type  2   force =     0.00182471    0.00396617   -0.00192733
     atom   18 type  2   force =     0.00009302   -0.00272445    0.00401755
     atom   19 type  1   force =     0.00014907   -0.00100523    0.00136983
     atom   20 type  2   force =     0.00052824   -0.00297589   -0.00381242
     atom   21 type  1   force =    -0.00173173    0.00159025    0.00165833
     atom   22 type  2   force =     0.00030806   -0.00078746   -0.00044887
     atom   23 type  2   force =     0.00058705    0.00203258    0.00003467
     atom   24 type  1   force =    -0.00596275   -0.00177860    0.00160926
     atom   25 type  2   force =     0.00664099    0.00819749   -0.00296062
     atom   26 type  2   force =    -0.00369207   -0.00075915   -0.00318290
     atom   27 type  1   force =     0.00016298    0.00211821    0.00250757
     atom   28 type  2   force =    -0.00789404   -0.00956745    0.01387484
     atom   29 type  2   force =     0.00428881    0.00313812   -0.00278101
     atom   30 type  1   force =     0.00048239   -0.00514712    0.00507284
     atom   31 type  2   force =     0.00231067   -0.00058346    0.00577160
     atom   32 type  2   force =    -0.00130956    0.00522329    0.00122942
     atom   33 type  1   force =     0.00139110    0.00133901    0.00415537
     atom   34 type  2   force =    -0.00172477   -0.01903350   -0.01352898
     atom   35 type  2   force =    -0.00312311    0.00610994    0.00457872
     atom   36 type  3   force =     0.01180307   -0.00797780    0.01148373
     The non-local contrib.  to forces
     atom    1 type  1   force =     0.00113269    0.02214804   -0.01450250
     atom    2 type  2   force =    -0.00612246    0.00123531   -0.26404578
     atom    3 type  2   force =    -0.00808686   -0.00460921    0.26455272
     atom    4 type  1   force =    -0.00294263    0.01780496    0.00632788
     atom    5 type  2   force =     0.02289665   -0.02888190   -0.20874713
     atom    6 type  2   force =    -0.00344120    0.00728475    0.26547791
     atom    7 type  1   force =    -0.02711444    0.00044964   -0.02089151
     atom    8 type  2   force =     0.00051226   -0.00281759   -0.25071146
     atom    9 type  2   force =    -0.00000778   -0.01419935    0.26950271
     atom   10 type  1   force =     0.00181001   -0.00080722   -0.00290143
     atom   11 type  2   force =     0.01272233    0.00126082   -0.26494876
     atom   12 type  2   force =    -0.01416947   -0.01818732    0.26165395
     atom   13 type  1   force =     0.00336367    0.02121711   -0.00732165
     atom   14 type  2   force =     0.00645282   -0.00664247   -0.26559040
     atom   15 type  2   force =    -0.00814150   -0.00586797    0.26347706
     atom   16 type  1   force =    -0.00128904    0.03870934   -0.02638257
     atom   17 type  2   force =     0.00499961   -0.02829744   -0.23747746
     atom   18 type  2   force =    -0.00042124    0.00938940    0.26892810
     atom   19 type  1   force =     0.01570595   -0.00571454   -0.01277330
     atom   20 type  2   force =    -0.00145338   -0.01836271    0.26176252
     atom   21 type  1   force =    -0.00252326    0.02171360    0.00361750
     atom   22 type  2   force =    -0.00624369    0.00810364   -0.25621846
     atom   23 type  2   force =     0.00638917   -0.01476807    0.26177278
     atom   24 type  1   force =     0.00639691    0.01885603   -0.01468647
     atom   25 type  2   force =     0.00489108    0.00144814   -0.26556518
     atom   26 type  2   force =     0.00481843   -0.01350566    0.26365569
     atom   27 type  1   force =     0.00435942    0.00027883    0.00905057
     atom   28 type  2   force =    -0.24645685   -0.03137181   -0.09269091
     atom   29 type  2   force =     0.00359486    0.00266123    0.26972339
     atom   30 type  1   force =    -0.00137904    0.01909612    0.00641872
     atom   31 type  2   force =    -0.00045387    0.01106042   -0.25417570
     atom   32 type  2   force =    -0.00227036   -0.01117362    0.27043705
     atom   33 type  1   force =    -0.00070961    0.00295877    0.00396297
     atom   34 type  2   force =    -0.00358310   -0.01974655   -0.27865553
     atom   35 type  2   force =    -0.00023069   -0.01319943    0.26623163
     atom   36 type  3   force =     0.03926645   -0.00096374   -0.02549599
     The ionic contribution  to forces
     atom    1 type  1   force =    -0.36312473    0.53302552    5.51328746
     atom    2 type  2   force =    -0.35922904   -0.21617331   39.38091866
     atom    3 type  2   force =    -0.10828134    0.01161324  -36.42768730
     atom    4 type  1   force =     0.41751279    0.39159581   -1.40840795
     atom    5 type  2   force =    -1.57073270    1.53628514   38.29134196
     atom    6 type  2   force =     0.12353000   -0.71872383  -37.97305422
     atom    7 type  1   force =    -2.67884893   -2.14221376    2.54605843
     atom    8 type  2   force =    -0.99791206    0.30218605   37.54270816
     atom    9 type  2   force =     0.34642287    0.17727272  -38.13569819
     atom   10 type  1   force =    -0.67094410   -0.54413506    5.07493745
     atom   11 type  2   force =    -0.51091458   -1.60652853   39.01000057
     atom   12 type  2   force =     0.31474081    0.58299592  -37.75841978
     atom   13 type  1   force =     0.28287217    0.79015370    2.76584630
     atom   14 type  2   force =    -0.16706599   -0.04228493   38.66406020
     atom   15 type  2   force =     0.17905305   -0.01109800  -36.89693138
     atom   16 type  1   force =    -0.09275905    3.59731507    0.91235906
     atom   17 type  2   force =     0.64593632    1.43650081   37.90799607
     atom   18 type  2   force =    -0.05389938   -0.64163331  -38.46505611
     atom   19 type  1   force =     2.50738098   -2.45568841    0.50962290
     atom   20 type  2   force =     0.14341761   -0.15222168  -38.61665200
     atom   21 type  1   force =     0.08621210   -0.00775884    1.46420098
[...]
     atom   27 type  1   force =    -0.00459400   -0.00616169    0.01219591
     atom   28 type  2   force =    -0.25245655   -0.15573909   -0.02304584
     atom   29 type  2   force =     0.00161347   -0.00635183    0.27279561
     atom   30 type  1   force =     0.00091651    0.01886969    0.00344871
     atom   31 type  2   force =    -0.00172017    0.01909762   -0.25540717
     atom   32 type  2   force =     0.00471504   -0.01509061    0.26720497
     atom   33 type  1   force =     0.00017850    0.00363208    0.00208792
     atom   34 type  2   force =     0.00135878   -0.00809171   -0.27376264
     atom   35 type  2   force =    -0.00018661   -0.01473774    0.26525085
     atom   36 type  3   force =     0.03308334    0.01859529   -0.03956621
     The ionic contribution  to forces
     atom    1 type  1   force =    -0.34581527    0.43451874    2.16493095
     atom    2 type  2   force =    -0.42408868   -0.49474617   38.84085619
     atom    3 type  2   force =     0.17423463   -0.05168698  -37.33280386
     atom    4 type  1   force =     0.76337666    0.69787100    2.00834803
     atom    5 type  2   force =    -1.47432362    1.31860526   38.09469000
     atom    6 type  2   force =     0.39007918   -0.32661377  -38.06593740
     atom    7 type  1   force =    -2.51769347   -1.91549632    2.71492535
     atom    8 type  2   force =    -1.10022473    0.40592545   38.15095840
     atom    9 type  2   force =     0.35075218   -0.03311649  -37.63628421
     atom   10 type  1   force =    -0.32490959   -0.69953909    3.12326296
     atom   11 type  2   force =    -0.50766455   -1.47148076   38.53515270
     atom   12 type  2   force =     0.30661719    0.31830753  -37.81738804
     atom   13 type  1   force =    -0.13028900    0.65200892    2.11311332
     atom   14 type  2   force =    -0.16433953   -0.07248702   38.46532035
     atom   15 type  2   force =     0.03169552   -0.15835039  -37.50183232
     atom   16 type  1   force =     0.03744882    3.55727118    0.61023156
     atom   17 type  2   force =     0.55765457    1.23159309   37.85766586
     atom   18 type  2   force =    -0.12968870   -0.59538172  -38.62522834
     atom   19 type  1   force =     2.62641888   -1.91800276    1.96845941
     atom   20 type  2   force =     0.17602998    0.03575216  -38.70199115
     atom   21 type  1   force =     0.02504812   -0.23312575    1.01173228
     atom   22 type  2   force =     0.46998215   -1.51424470   38.59756002
     atom   23 type  2   force =    -0.23214511    0.47325539  -37.99428965
     atom   24 type  1   force =     0.75805013    1.01557364    4.27631513
     atom   25 type  2   force =     0.48246842    0.03592037   38.85451251
     atom   26 type  2   force =    -0.27746778   -0.01756551  -37.17747810
     atom   27 type  1   force =    -1.30107537   -0.42365481   -2.53323585
     atom   28 type  2   force =     1.89423013    1.63352540   37.90354248
     atom   29 type  2   force =    -0.18909013   -0.26136850  -36.81530796
     atom   30 type  1   force =    -0.13356523   -0.68763279    2.05555731
     atom   31 type  2   force =     1.21811562   -0.10225112   37.97625452
     atom   32 type  2   force =    -0.57901209    0.26104175  -38.42280126
     atom   33 type  1   force =     0.31335197   -0.39594777    3.39367893
     atom   34 type  2   force =     0.03657473   -0.60360435   38.81163319
     atom   35 type  2   force =    -0.07288008    0.19183566  -37.21341336
     atom   36 type  3   force =    -0.70785596   -0.28670877    8.30929004
     The local contribution  to forces
     atom    1 type  1   force =     0.34637589   -0.45533478   -2.15738243
     atom    2 type  2   force =     0.42694572    0.49851488  -38.61056561
     atom    3 type  2   force =    -0.16988944    0.06134050   37.08496072
     atom    4 type  1   force =    -0.76873791   -0.70529242   -2.00679690
     atom    5 type  2   force =     1.47049716   -1.29372466  -37.87729051
     atom    6 type  2   force =    -0.38422454    0.32766279   37.82057765
     atom    7 type  1   force =     2.53964633    1.91402517   -2.69397206
     atom    8 type  2   force =     1.09432613   -0.39976945  -37.91119199
     atom    9 type  2   force =    -0.34146486    0.04695665   37.38635540
     atom   10 type  1   force =     0.32238022    0.69575189   -3.12392076
     atom   11 type  2   force =     0.50038301    1.47383056  -38.29521864
     atom   12 type  2   force =    -0.29799376   -0.30473193   37.57429675
     atom   13 type  1   force =     0.12759399   -0.67682741   -2.10677421
     atom   14 type  2   force =     0.16407330    0.08093173  -38.21975500
     atom   15 type  2   force =    -0.03345780    0.16386691   37.25743238
     atom   16 type  1   force =    -0.03319417   -3.59105948   -0.58112037
     atom   17 type  2   force =    -0.56776311   -1.20264861  -37.63937154
     atom   18 type  2   force =     0.12923408    0.58755482   38.38089599
     atom   19 type  1   force =    -2.64017641    1.91906503   -1.94698537
     atom   20 type  2   force =    -0.17351280   -0.02150620   38.46020107
     atom   21 type  1   force =    -0.02314388    0.20920861   -1.01653829
     atom   22 type  2   force =    -0.46342206    1.50987076  -38.36024193
     atom   23 type  2   force =     0.22532710   -0.45989938   37.75180904
     atom   24 type  1   force =    -0.76169136   -1.03329924   -4.26887120
     atom   25 type  2   force =    -0.47737165   -0.02944100  -38.61261007
     atom   26 type  2   force =     0.27100828    0.02893623   36.93244283
     atom   27 type  1   force =     1.30479385    0.43006977    2.52133677
     atom   28 type  2   force =    -1.65798774   -1.48778977  -37.88417668
     atom   29 type  2   force =     0.18767882    0.26784889   36.56454322
     atom   30 type  1   force =     0.13317832    0.66888443   -2.05955155
     atom   31 type  2   force =    -1.21716290    0.08270466  -37.74129021
     atom   32 type  2   force =     0.57461894   -0.24653915   38.17589700
     atom   33 type  1   force =    -0.31367255    0.39259061   -3.39579757
     atom   34 type  2   force =    -0.03772979    0.61157012  -38.55971983
     atom   35 type  2   force =     0.07260550   -0.17651340   36.96848247
     atom   36 type  3   force =     0.67276435    0.26693961   -8.27012864
     The core correction contribution to forces
     atom    1 type  1   force =     0.00000000    0.00000000    0.00000000
     atom    2 type  2   force =    -0.00018889   -0.00016910    0.01989286
     atom    3 type  2   force =     0.00037475    0.00050530   -0.02098614
     atom    4 type  1   force =     0.00000000    0.00000000    0.00000000
     atom    5 type  2   force =    -0.00088571    0.00118325    0.01950793
     atom    6 type  2   force =     0.00057660   -0.00042144   -0.02087304
     atom    7 type  1   force =     0.00000000    0.00000000    0.00000000
     atom    8 type  2   force =    -0.00033024    0.00085903    0.02047348
     atom    9 type  2   force =     0.00069826    0.00062313   -0.02100181
     atom   10 type  1   force =     0.00000000    0.00000000    0.00000000
     atom   11 type  2   force =    -0.00021559   -0.00013859    0.02061325
     atom   12 type  2   force =     0.00076097    0.00103527   -0.02082392
     atom   13 type  1   force =     0.00000000    0.00000000    0.00000000
     atom   14 type  2   force =    -0.00009310    0.00006844    0.02073201
     atom   15 type  2   force =    -0.00005758    0.00034781   -0.02076363
     atom   16 type  1   force =     0.00000000    0.00000000    0.00000000
     atom   17 type  2   force =    -0.00048995    0.00145652    0.01973595
     atom   18 type  2   force =    -0.00005896   -0.00101189   -0.02086071
     atom   19 type  1   force =     0.00000000    0.00000000    0.00000000
     atom   20 type  2   force =     0.00012838    0.00066172   -0.02118090
     atom   21 type  1   force =     0.00000000    0.00000000    0.00000000
     atom   22 type  2   force =     0.00018606   -0.00053800    0.02055378
     atom   23 type  2   force =    -0.00066719    0.00102074   -0.02081440
     atom   24 type  1   force =     0.00000000    0.00000000    0.00000000
     atom   25 type  2   force =     0.00053949    0.00023094    0.02053929
     atom   26 type  2   force =    -0.00056518    0.00062816   -0.02085049
     atom   27 type  1   force =     0.00000000    0.00000000    0.00000000
     atom   28 type  2   force =     0.01630768    0.01000784    0.00318995
     atom   29 type  2   force =    -0.00037969   -0.00013470   -0.02107031
     atom   30 type  1   force =     0.00000000    0.00000000    0.00000000
     atom   31 type  2   force =     0.00022493   -0.00082555    0.02037204
     atom   32 type  2   force =    -0.00057398    0.00113345   -0.02090512
     atom   33 type  1   force =     0.00000000    0.00000000    0.00000000
     atom   34 type  2   force =    -0.00007090    0.00023228    0.02110892
     atom   35 type  2   force =    -0.00000566    0.00082910   -0.02084493
     atom   36 type  3   force =     0.00000000    0.00000000    0.00000000
     The Hubbard contrib.    to forces
     atom    1 type  1   force =     0.00000000    0.00000000    0.00000000
     atom    2 type  2   force =     0.00000000    0.00000000    0.00000000
     atom    3 type  2   force =     0.00000000    0.00000000    0.00000000
     atom    4 type  1   force =     0.00000000    0.00000000    0.00000000
     atom    5 type  2   force =     0.00000000    0.00000000    0.00000000
     atom    6 type  2   force =     0.00000000    0.00000000    0.00000000
     atom    7 type  1   force =     0.00000000    0.00000000    0.00000000
     atom    8 type  2   force =     0.00000000    0.00000000    0.00000000
     atom    9 type  2   force =     0.00000000    0.00000000    0.00000000
     atom   10 type  1   force =     0.00000000    0.00000000    0.00000000
     atom   11 type  2   force =     0.00000000    0.00000000    0.00000000
     atom   12 type  2   force =     0.00000000    0.00000000    0.00000000
     atom   13 type  1   force =     0.00000000    0.00000000    0.00000000
     atom   14 type  2   force =     0.00000000    0.00000000    0.00000000
     atom   15 type  2   force =     0.00000000    0.00000000    0.00000000
     atom   16 type  1   force =     0.00000000    0.00000000    0.00000000
     atom   17 type  2   force =     0.00000000    0.00000000    0.00000000
     atom   18 type  2   force =     0.00000000    0.00000000    0.00000000
     atom   19 type  1   force =     0.00000000    0.00000000    0.00000000
     atom   20 type  2   force =     0.00000000    0.00000000    0.00000000
     atom   21 type  1   force =     0.00000000    0.00000000    0.00000000
     atom   22 type  2   force =     0.00000000    0.00000000    0.00000000
     atom   23 type  2   force =     0.00000000    0.00000000    0.00000000
     atom   24 type  1   force =     0.00000000    0.00000000    0.00000000
     atom   25 type  2   force =     0.00000000    0.00000000    0.00000000
     atom   26 type  2   force =     0.00000000    0.00000000    0.00000000
     atom   27 type  1   force =     0.00000000    0.00000000    0.00000000
     atom   28 type  2   force =     0.00000000    0.00000000    0.00000000
     atom   29 type  2   force =     0.00000000    0.00000000    0.00000000
     atom   30 type  1   force =     0.00000000    0.00000000    0.00000000
     atom   31 type  2   force =     0.00000000    0.00000000    0.00000000
     atom   32 type  2   force =     0.00000000    0.00000000    0.00000000
     atom   33 type  1   force =     0.00000000    0.00000000    0.00000000
     atom   34 type  2   force =     0.00000000    0.00000000    0.00000000
     atom   35 type  2   force =     0.00000000    0.00000000    0.00000000
     atom   36 type  3   force =     0.00000000    0.00000000    0.00000000
     The SCF correction term to forces
     atom    1 type  1   force =    -0.00000137   -0.00002933   -0.00006936
     atom    2 type  2   force =     0.00000064   -0.00002446   -0.00004136
     atom    3 type  2   force =    -0.00000288   -0.00001309   -0.00000684
     atom    4 type  1   force =     0.00000422    0.00000086   -0.00008394
     atom    5 type  2   force =    -0.00000438   -0.00000172   -0.00004460
     atom    6 type  2   force =     0.00000312    0.00000187   -0.00001586
     atom    7 type  1   force =    -0.00001643    0.00003417   -0.00006315
     atom    8 type  2   force =    -0.00000882    0.00001690   -0.00004025
     atom    9 type  2   force =    -0.00001218    0.00000812   -0.00001677
     atom   10 type  1   force =    -0.00000539    0.00000108   -0.00005736
     atom   11 type  2   force =    -0.00000679    0.00000378   -0.00004051
     atom   12 type  2   force =    -0.00000388   -0.00000096   -0.00000400
     atom   13 type  1   force =    -0.00000255   -0.00002728   -0.00007144
     atom   14 type  2   force =     0.00000021   -0.00002295   -0.00003806
     atom   15 type  2   force =     0.00000198   -0.00001899   -0.00001024
     atom   16 type  1   force =    -0.00000161    0.00002913   -0.00006492
     atom   17 type  2   force =     0.00000165   -0.00000011   -0.00003948
     atom   18 type  2   force =     0.00000033   -0.00000514   -0.00001442
     atom   19 type  1   force =     0.00000986    0.00003439   -0.00005358
     atom   20 type  2   force =     0.00000615    0.00001327   -0.00000859
     atom   21 type  1   force =    -0.00000066   -0.00001379   -0.00005140
     atom   22 type  2   force =     0.00000127    0.00000320   -0.00003490
     atom   23 type  2   force =     0.00000257    0.00000248   -0.00000057
     atom   24 type  1   force =     0.00000813   -0.00003530   -0.00007997
     atom   25 type  2   force =    -0.00000165   -0.00002544   -0.00003609
     atom   26 type  2   force =     0.00000173   -0.00001521   -0.00000654
     atom   27 type  1   force =     0.00000523    0.00001622   -0.00006606
     atom   28 type  2   force =     0.00000051    0.00000424   -0.00005076
     atom   29 type  2   force =    -0.00000711    0.00000105   -0.00001338
     atom   30 type  1   force =     0.00000236    0.00003594   -0.00006264
     atom   31 type  2   force =     0.00001235    0.00001498   -0.00003098
     atom   32 type  2   force =     0.00001009    0.00000531   -0.00001275
     atom   33 type  1   force =     0.00000290   -0.00001146   -0.00005761
     atom   34 type  2   force =     0.00000667    0.00001387   -0.00003460
     atom   35 type  2   force =     0.00000197    0.00000824   -0.00000774
     atom   36 type  3   force =    -0.00000133   -0.00000205   -0.00000435

     Total force =     0.005680     Total SCF correction =     0.000289
     Energy error            =      8.6E-05 Ry
     Gradient error          =      2.0E-03 Ry/Bohr

     bfgs converged in  25 scf cycles and  24 bfgs steps
     (criteria: energy <  1.0E-04 Ry, force <  1.0E-02 Ry/Bohr)

     End of BFGS Geometry Optimization

     Final energy             =   -2205.5799540051 Ry

     File ./MoS2-V-O.bfgs deleted, as requested
Begin final coordinates

ATOMIC_POSITIONS (angstrom)
Mo            6.5551973449        1.7751993545        2.7547591798
S             8.1060461441        0.8530726275        4.3836757756
S             8.1511104849        0.8611728621        1.1845132654
Mo            8.1003717321        4.5122816632        2.7434655910
S             6.4831216184        3.6873160446        4.2973356348
S             6.5703472614        3.5778713165        1.1026378647
Mo            6.5019628467        7.2043244059        2.6645431884
S             8.0697084658        6.3416262106        4.3043134246
S             8.1323800449        6.3318891384        1.1190193622
Mo            8.1347009818        9.9516021329        2.7713323092
S             6.5124132085        8.9682195551        4.3214420999
S             6.5928468109        9.0519336943        1.1253769946
Mo            3.4133282502        1.7796627135        2.7423315322
S             4.9785700072        0.8398935112        4.3330118244
S             4.9913935617        0.8608228133        1.1590751316
Mo            4.9821080472        4.5503541200        2.6263728173
S             3.4416921356        3.6985766743        4.2607354999
S             3.4361161310        3.5605555034        1.0569094601
Mo            3.4669514145        7.2213885285        2.6430910634
S             4.9898880174        6.3402845380        1.0249505005
Mo            4.9904055029        9.9286166322        2.7215448448
S             3.4688740373        8.9635400616        4.3190371209
S             3.3905806712        9.0704931832        1.1127967654
Mo            0.2473612012        1.7593472490        2.8098497117
S             1.8637972111        0.8608823466        4.3768850353
S             1.8211560667        0.8646280155        1.1861882561
Mo            1.8977150936        4.5388537637        2.6268479411
S             0.1627419161        3.5794444102        4.4793211834
S             0.2465435976        3.5744888745        1.1785218506
Mo            0.2703010572        7.2134250351        2.7317669739
S             1.9162368120        6.3088517226        4.2777234198
S             1.8593697380        6.3592304087        1.0659969785
Mo            1.8479533040        9.9540110812        2.7723696011
S             0.2651323832        9.0252608727        4.3612693068
S             0.2624430608        9.0600243044        1.1805506392
H             8.7574897388        3.0947677083        5.4711854283
End final coordinates



     Writing all to output data dir ./MoS2-V-O.save/
 
     init_run     :      2.36s CPU      2.65s WALL (       1 calls)
     electrons    :   2152.75s CPU   2395.26s WALL (      25 calls)
     update_pot   :     33.51s CPU     35.30s WALL (      24 calls)
     forces       :     32.56s CPU     37.39s WALL (      25 calls)

     Called by init_run:
     wfcinit      :      0.38s CPU      0.43s WALL (       1 calls)
     potinit      :      1.30s CPU      1.44s WALL (       1 calls)
     hinit0       :      0.16s CPU      0.18s WALL (       1 calls)

     Called by electrons:
     c_bands      :    256.41s CPU    260.26s WALL (     208 calls)
     sum_band     :     60.71s CPU     75.14s WALL (     208 calls)
     v_of_rho     :     83.65s CPU    100.92s WALL (     217 calls)
     newd         :     28.08s CPU     41.58s WALL (     217 calls)
     mix_rho      :   1734.03s CPU   1927.17s WALL (     208 calls)

     Called by c_bands:
     init_us_2    :      4.42s CPU      4.75s WALL (     417 calls)
     init_us_2:cp :      4.42s CPU      4.75s WALL (     417 calls)
     regterg      :    240.71s CPU    244.20s WALL (     208 calls)

     Called by *egterg:
     rdiaghg      :     19.68s CPU     19.88s WALL (    1134 calls)
     h_psi        :    139.02s CPU    140.27s WALL (    1175 calls)
     s_psi        :     17.50s CPU     17.57s WALL (    1175 calls)
     g_psi        :      0.90s CPU      0.91s WALL (     966 calls)

     Called by h_psi:
     h_psi:calbec :     19.54s CPU     19.67s WALL (    1175 calls)
     vloc_psi     :    100.21s CPU    101.18s WALL (    1175 calls)
     add_vuspsi   :     17.26s CPU     17.39s WALL (    1175 calls)

     General routines
     calbec       :     27.72s CPU     27.89s WALL (    1483 calls)
     fft          :     55.38s CPU     65.65s WALL (   14702 calls)
     ffts         :    777.30s CPU    964.01s WALL (  424662 calls)
     fftw         :     86.01s CPU     86.71s WALL (  127702 calls)
     interpolate  :      1.56s CPU      1.84s WALL (     217 calls)
 
     Parallel routines
 
     PWSCF        :  37m 5.55s CPU  41m17.80s WALL

 
   This run was terminated on:   1:51: 4   4Nov2023            

=------------------------------------------------------------------------------=
   JOB DONE.
=------------------------------------------------------------------------------=
