
     Program PWSCF v.7.2 starts on  4Nov2023 at  2:18: 8 

     This program is part of the open-source Quantum ESPRESSO suite
     for quantum simulation of materials; please cite
         "P. Giannozzi et al., J. Phys.:Condens. Matter 21 395502 (2009);
         "P. Giannozzi et al., J. Phys.:Condens. Matter 29 465901 (2017);
         "P. Giannozzi et al., J. Chem. Phys. 152 154105 (2020);
          URL http://www.quantum-espresso.org", 
     in publications or presentations arising from this work. More details at
     http://www.quantum-espresso.org/quote

     Parallel version (MPI & OpenMP), running on      48 processor cores
     Number of MPI processes:                48
     Threads/MPI process:                     1

     MPI processes distributed on     1 nodes
     116953 MiB available memory on the printing compute node when the environment starts
 
     Waiting for input...
     Reading input from standard input
Warning: card &CELL ignored
Warning: card CELL_DYNAMICS = 'BFGS', ignored
Warning: card CELL_DOFREE = '2DXY' ignored
Warning: card / ignored

     Current dimensions of program PWSCF are:
     Max number of different atomic species (ntypx) = 10
     Max number of k-points (npk) =  40000
     Max angular momentum in pseudopotentials (lmaxx) =  4

     IMPORTANT: XC functional enforced from input :
     Exchange-correlation= RVV10
                           (   1   4  13   4  26   0   0)
     Any further DFT definition will be discarded
     Please, verify this is what you really want


     gamma-point specific algorithms are used
     signal trapping enabled: kill the code with -SIGUSR1 to stop cleanly the simulation 
 
     R & G space division:  proc/nbgrp/npool/nimage =      48
     Subspace diagonalization in iterative solution of the eigenvalue problem:
     one sub-group per band group will be used
     scalapack distributed-memory algorithm (size of sub-group:  2*  2 procs)

 
     Parallelization info
     --------------------
     sticks:   dense  smooth     PW     G-vecs:    dense   smooth      PW
     Min         243     194     47                49060    35090    4376
     Max         246     196     50                49086    35128    4410
     Sum       11735    9389   2349              2355467  1685513  210763
 
     Using Slab Decomposition
 


     bravais-lattice index     =            0
     lattice parameter (alat)  =      17.8707  a.u.
     unit-cell volume          =   17436.2743 (a.u.)^3
     number of atoms/cell      =           36
     number of atomic types    =            3
     number of electrons       =       307.00
     number of Kohn-Sham states=          185
     kinetic-energy cutoff     =      80.0000  Ry
     charge density cutoff     =     400.0000  Ry
     scf convergence threshold =      1.0E-06
     mixing beta               =       0.7000
     number of iterations used =            8  local-TF  mixing
     energy convergence thresh.=      1.0E-04
     force convergence thresh. =      1.0E-02
     Exchange-correlation= RVV10
                           (   1   4  13   4  26   0   0)
     nstep                     =          200


     celldm(1)=  17.870686  celldm(2)=   0.000000  celldm(3)=   0.000000
     celldm(4)=   0.000000  celldm(5)=   0.000000  celldm(6)=   0.000000

     crystal axes: (cart. coord. in units of alat)
               a(1) = (   1.000000   0.000000   0.000000 )  
               a(2) = (   0.000000   1.155671   0.000000 )  
               a(3) = (   0.000000   0.000000   2.643601 )  

     reciprocal axes: (cart. coord. in units 2 pi/alat)
               b(1) = (  1.000000  0.000000  0.000000 )  
               b(2) = (  0.000000  0.865298  0.000000 )  
               b(3) = (  0.000000  0.000000  0.378272 )  


     PseudoPot. # 1 for Mo read from file:
     ../pseudo/Mo_ONCV_PBE-1.0.oncvpsp.upf
     MD5 check sum: 1b5d28e075c9ccadda658a603575cd1f
     Pseudo is Norm-conserving, Zval = 14.0
     Generated using ONCVPSP code by D. R. Hamann
     Using radial grid of 1526 points,  6 beta functions with: 
                l(1) =   0
                l(2) =   0
                l(3) =   1
                l(4) =   1
                l(5) =   2
                l(6) =   2

     PseudoPot. # 2 for S  read from file:
     ../pseudo/s_pbe_v1.4.uspp.F.UPF
     MD5 check sum: 88d86576ff6df21479756cfb9bdac1df
     Pseudo is Ultrasoft + core correction, Zval =  6.0
     Generated by new atomic code, or converted to UPF format
     Using radial grid of  907 points,  6 beta functions with: 
                l(1) =   0
                l(2) =   0
                l(3) =   1
                l(4) =   1
                l(5) =   2
                l(6) =   2
     Q(r) pseudized with  8 coefficients,  rinner =    1.300   1.300   1.300
                                                       1.300   1.300

     PseudoPot. # 3 for H  read from file:
     ../pseudo/H_ONCV_PBE-1.0.oncvpsp.upf
     MD5 check sum: 1790becc920ee074925cf490c71280fe
     Pseudo is Norm-conserving, Zval =  1.0
     Generated using ONCVPSP code by D. R. Hamann
     Using radial grid of 1166 points,  2 beta functions with: 
                l(1) =   0
                l(2) =   0

     atomic species   valence    mass     pseudopotential
        Mo            14.00    95.94000     Mo( 1.00)
        S              6.00    32.06500     S ( 1.00)
        H              1.00     1.00794     H ( 1.00)

     No symmetry found



   Cartesian axes

     site n.     atom                  positions (alat units)
         1           Mo  tau(   1) = (   0.6952221   0.1890506   0.2985846  )
         2           S   tau(   2) = (   0.8646417   0.0856217   0.4689279  )
         3           S   tau(   3) = (   0.8663890   0.0857843   0.1351291  )
         4           Mo  tau(   4) = (   0.8560186   0.4753274   0.2873942  )
         5           S   tau(   5) = (   0.6873294   0.3936244   0.4596353  )
         6           S   tau(   6) = (   0.6929804   0.3713468   0.1185692  )
         7           Mo  tau(   7) = (   0.6862796   0.7633098   0.2825370  )
         8           S   tau(   8) = (   0.8545980   0.6708292   0.4486168  )
         9           S   tau(   9) = (   0.8545123   0.6666874   0.1146125  )
        10           Mo  tau(  10) = (   0.8629403   1.0471007   0.3006803  )
        11           S   tau(  11) = (   0.6868280   0.9456650   0.4634891  )
        12           S   tau(  12) = (   0.6998113   0.9568511   0.1205389  )
        13           Mo  tau(  13) = (   0.3618216   0.1847309   0.2935964  )
        14           S   tau(  14) = (   0.5260962   0.0863870   0.4600448  )
        15           S   tau(  15) = (   0.5348379   0.0894875   0.1297123  )
        16           Mo  tau(  16) = (   0.5265817   0.4772436   0.2784130  )
        17           S   tau(  17) = (   0.3624753   0.3882513   0.4525556  )
        18           S   tau(  18) = (   0.3635411   0.3752055   0.1119148  )
        19           Mo  tau(  19) = (   0.3652268   0.7630864   0.2781795  )
        20           S   tau(  20) = (   0.5269494   0.6690381   0.1096838  )
        21           Mo  tau(  21) = (   0.5300192   1.0470394   0.2900995  )
        22           S   tau(  22) = (   0.3670346   0.9457522   0.4574073  )
        23           S   tau(  23) = (   0.3604225   0.9585725   0.1159032  )
        24           Mo  tau(  24) = (   0.0313099   0.1847895   0.3013130  )
        25           S   tau(  25) = (   0.1956761   0.0838230   0.4650863  )
        26           S   tau(  26) = (   0.1967693   0.0903508   0.1278874  )
        27           Mo  tau(  27) = (   0.1967578   0.4753919   0.2813011  )
        28           S   tau(  28) = (   0.0287851   0.3864324   0.4586755  )
        29           S   tau(  29) = (   0.0244514   0.3729871   0.1239344  )
        30           Mo  tau(  30) = (   0.0286728   0.7631204   0.2856894  )
        31           S   tau(  31) = (   0.2011512   0.6675435   0.4465001  )
        32           S   tau(  32) = (   0.1969214   0.6672839   0.1104564  )
        33           Mo  tau(  33) = (   0.1950294   1.0511147   0.2932237  )
        34           S   tau(  34) = (   0.0312912   0.9612169   0.4667423  )
        35           S   tau(  35) = (   0.0292670   0.9563028   0.1216485  )
        36           H   tau(  36) = (   0.3333333   0.5136314   0.5650415  )

     number of k points=     1  Gaussian smearing, width (Ry)=  0.0100
                       cart. coord. in units 2pi/alat
        k(    1) = (   0.0000000   0.0000000   0.0000000), wk =   2.0000000

     Dense  grid:  1177734 G-vectors     FFT dimensions: ( 120, 135, 320)

     Smooth grid:   842757 G-vectors     FFT dimensions: ( 108, 120, 270)

     Estimated max dynamical RAM per process >     146.59 MB

     Estimated total dynamical RAM >       6.87 GB

     Initial potential from superposition of free atoms

     starting charge     306.9873, renormalised to     307.0000

     negative rho (up, down):  1.405E-04 0.000E+00


---------------------------------------------------------------------------------
Carrying out rVV10 run using the following parameters:
Nqs =      20    Nr_points =    1024   r_max =   100.000
b_value =  6.30000    beta =  0.00901
     q_mesh =  0.00010000  0.00030000  0.00058939  0.00100810
               0.00161396  0.00249058  0.00375900  0.00559430
               0.00824984  0.01209221  0.01765183  0.02569619
               0.03733578  0.05417739  0.07854596  0.11380545
               0.16482331  0.23864234  0.34545298  0.50000000

Gradients computed in Reciprocal space

---------------------------------------------------------------------------------


     Starting wfcs are  213 randomized atomic wfcs

     total cpu time spent up to now is        3.5 secs

     Self-consistent Calculation

     iteration #  1     ecut=    80.00 Ry     beta= 0.70
     Davidson diagonalization with overlap
     ethr =  1.00E-02,  avg # of iterations =  2.0

     Threshold (ethr) on eigenvalues was too large:
     Diagonalizing with lowered threshold

     Davidson diagonalization with overlap
     ethr =  3.77E-04,  avg # of iterations =  4.0

     negative rho (up, down):  2.520E-08 0.000E+00

     total cpu time spent up to now is       19.0 secs

     total energy              =   -2205.60008981 Ry
     estimated scf accuracy    <       1.44109804 Ry

     iteration #  2     ecut=    80.00 Ry     beta= 0.70
     Davidson diagonalization with overlap
     ethr =  4.69E-04,  avg # of iterations =  2.0

     total cpu time spent up to now is       21.3 secs

     total energy              =   -2205.47503455 Ry
     estimated scf accuracy    <       0.58275822 Ry

     iteration #  3     ecut=    80.00 Ry     beta= 0.70
     Davidson diagonalization with overlap
     ethr =  1.90E-04,  avg # of iterations =  2.0

     total cpu time spent up to now is       23.7 secs

     total energy              =   -2205.51960237 Ry
     estimated scf accuracy    <       0.16806592 Ry

     iteration #  4     ecut=    80.00 Ry     beta= 0.70
     Davidson diagonalization with overlap
     c_bands:  1 eigenvalues not converged
     ethr =  5.47E-05,  avg # of iterations = 20.0

     total cpu time spent up to now is       26.9 secs

     total energy              =   -2205.53697537 Ry
     estimated scf accuracy    <       0.03209148 Ry

     iteration #  5     ecut=    80.00 Ry     beta= 0.70
     Davidson diagonalization with overlap
     ethr =  1.05E-05,  avg # of iterations =  9.0

     total cpu time spent up to now is       29.4 secs

     total energy              =   -2205.53762355 Ry
     estimated scf accuracy    <       0.01849300 Ry

     iteration #  6     ecut=    80.00 Ry     beta= 0.70
     Davidson diagonalization with overlap
     ethr =  6.02E-06,  avg # of iterations =  2.0

     total cpu time spent up to now is       31.6 secs

     total energy              =   -2205.53650506 Ry
     estimated scf accuracy    <       0.01425927 Ry

     iteration #  7     ecut=    80.00 Ry     beta= 0.70
     Davidson diagonalization with overlap
     ethr =  4.64E-06,  avg # of iterations =  1.0

     total cpu time spent up to now is       35.0 secs

     total energy              =   -2205.53432780 Ry
     estimated scf accuracy    <       0.00859674 Ry

     iteration #  8     ecut=    80.00 Ry     beta= 0.70
     Davidson diagonalization with overlap
     c_bands:  1 eigenvalues not converged
     ethr =  2.80E-06,  avg # of iterations = 20.0

     negative rho (up, down):  4.300E-03 0.000E+00

     total cpu time spent up to now is       40.3 secs

     total energy              =   -2205.53422920 Ry
     estimated scf accuracy    <       0.00369600 Ry

     iteration #  9     ecut=    80.00 Ry     beta= 0.70
     Davidson diagonalization with overlap
     ethr =  1.20E-06,  avg # of iterations = 20.0

     negative rho (up, down):  3.561E-02 0.000E+00

     total cpu time spent up to now is       45.6 secs

     total energy              =   -2205.53414024 Ry
     estimated scf accuracy    <       0.00232164 Ry

     iteration # 10     ecut=    80.00 Ry     beta= 0.70
     Davidson diagonalization with overlap
     ethr =  7.56E-07,  avg # of iterations =  2.0

     negative rho (up, down):  2.978E-02 0.000E+00

     total cpu time spent up to now is       50.0 secs

     total energy              =   -2205.53418441 Ry
     estimated scf accuracy    <       0.00068368 Ry

     iteration # 11     ecut=    80.00 Ry     beta= 0.70
     Davidson diagonalization with overlap
     ethr =  2.23E-07,  avg # of iterations =  5.0

     negative rho (up, down):  1.125E-02 0.000E+00

     total cpu time spent up to now is       55.7 secs

     total energy              =   -2205.53419447 Ry
     estimated scf accuracy    <       0.00020947 Ry

     iteration # 12     ecut=    80.00 Ry     beta= 0.70
     Davidson diagonalization with overlap
     ethr =  6.82E-08,  avg # of iterations =  4.0

     negative rho (up, down):  3.535E-03 0.000E+00

     total cpu time spent up to now is       61.3 secs

     total energy              =   -2205.53426090 Ry
     estimated scf accuracy    <       0.00002236 Ry

     iteration # 13     ecut=    80.00 Ry     beta= 0.70
     Davidson diagonalization with overlap
     ethr =  7.28E-09,  avg # of iterations =  7.0

     negative rho (up, down):  6.185E-04 0.000E+00

     total cpu time spent up to now is       70.3 secs

     total energy              =   -2205.53427162 Ry
     estimated scf accuracy    <       0.00000310 Ry

     iteration # 14     ecut=    80.00 Ry     beta= 0.70
     Davidson diagonalization with overlap
     ethr =  1.01E-09,  avg # of iterations =  4.0

     negative rho (up, down):  1.368E-04 0.000E+00

     total cpu time spent up to now is       72.5 secs

     End of self-consistent calculation

          k = 0.0000 0.0000 0.0000 (105382 PWs)   bands (ev):

   -62.8895 -62.8562 -62.8506 -62.8378 -62.8299 -62.8074 -62.7912 -62.7795
   -62.7722 -62.7697 -62.7426 -62.7313 -37.2172 -37.1596 -37.1410 -37.1288
   -37.1140 -37.0949 -37.0711 -37.0635 -37.0564 -37.0486 -37.0472 -37.0351
   -37.0154 -37.0095 -37.0064 -36.9986 -36.9936 -36.9870 -36.9853 -36.9779
   -36.9568 -36.9450 -36.9315 -36.9152 -36.9104 -36.9050 -36.8923 -36.8881
   -36.8772 -36.8710 -36.8588 -36.8314 -36.8290 -36.7901 -36.7243 -36.6895
   -16.0313 -15.4339 -15.1226 -15.0540 -14.9035 -14.8256 -14.6897 -14.5006
   -14.4363 -14.3967 -14.3721 -14.3172 -14.3123 -14.2897 -14.1898 -14.1245
   -14.1110 -14.0784 -14.0157 -13.8806 -13.8324 -13.8121 -13.7859  -8.2288
    -7.6410  -7.4351  -7.2797  -7.2599  -7.2303  -7.1840  -7.1633  -7.0206
    -6.8470  -6.8109  -6.7276  -6.6725  -6.5107  -6.5013  -6.4248  -6.4049
    -6.3436  -6.2528  -6.1543  -5.9898  -5.9246  -5.8491  -5.8487  -5.7822
    -5.7400  -5.7136  -5.6881  -5.6482  -5.6158  -5.5588  -5.5175  -5.4683
    -5.4252  -5.3766  -5.1457  -5.1252  -5.0590  -4.9986  -4.9716  -4.9422
    -4.8980  -4.8349  -4.6732  -4.5594  -4.3808  -4.3181  -4.3103  -4.2446
    -4.1905  -4.0210  -3.9803  -3.8990  -3.8191  -3.7634  -3.7432  -3.6868
    -3.6336  -3.5633  -3.5377  -3.5067  -3.4702  -3.4488  -3.4242  -3.3784
    -3.3447  -3.2136  -3.1756  -2.8910  -2.8726  -2.7845  -2.7779  -2.7334
    -2.7029  -2.6591  -2.6436  -2.6198  -2.5723  -2.2784  -2.0556  -1.9835
    -1.9072  -0.9950  -0.8129  -0.6701  -0.1646  -0.1182  -0.0747  -0.0328
     0.1006   0.1375   0.1632   0.2449   0.2751   0.2844   0.4120   0.4382
     0.4751   0.5363   0.5687   0.5880   0.6191   0.6640   0.7229   0.7686
     0.7948   0.8276   0.8509   0.9193   0.9456   0.9754   1.0651   1.2316
     1.3929

     the Fermi energy is    -1.0011 ev

!    total energy              =   -2205.53427456 Ry
     estimated scf accuracy    <       0.00000054 Ry
     smearing contrib. (-TS)   =      -0.00647765 Ry
     internal energy E=F+TS    =   -2205.52779691 Ry

     The total energy is F=E-TS. E is the sum of the following terms:
     one-electron contribution =  -18045.81044113 Ry
     hartree contribution      =    9009.75572091 Ry
     xc contribution           =    -385.25108969 Ry
     ewald contribution        =    7215.77801299 Ry

     convergence has been achieved in  14 iterations

     negative rho (up, down):  1.368E-04 0.000E+00

     Forces acting on atoms (cartesian axes, Ry/au):

     atom    1 type  1   force =     0.01132682   -0.02367701    0.00710626
     atom    2 type  2   force =    -0.01538124    0.01687656    0.00074684
     atom    3 type  2   force =    -0.01116270    0.00858725   -0.00283068
     atom    4 type  1   force =     0.00578259    0.00419235    0.00044826
     atom    5 type  2   force =     0.00059380   -0.00582589   -0.00708907
     atom    6 type  2   force =     0.00398309    0.00903908   -0.00196936
     atom    7 type  1   force =     0.00737720   -0.01253158   -0.00728913
     atom    8 type  2   force =     0.00054986   -0.00346413    0.01733779
     atom    9 type  2   force =     0.01283814    0.00617428    0.01103396
     atom   10 type  1   force =    -0.01144215    0.01091787   -0.02677027
     atom   11 type  2   force =     0.00563298   -0.00139476   -0.00616369
     atom   12 type  2   force =    -0.00111589    0.00083145    0.00634446
     atom   13 type  1   force =     0.00084616   -0.01460923   -0.03327131
     atom   14 type  2   force =     0.01070872   -0.00247169    0.01295938
     atom   15 type  2   force =    -0.01611223    0.00278876   -0.00844644
     atom   16 type  1   force =     0.00058647    0.01148574    0.00128773
     atom   17 type  2   force =    -0.00328022    0.07909899    0.06047370
     atom   18 type  2   force =    -0.00380947   -0.00765332    0.01182440
     atom   19 type  1   force =    -0.00165110   -0.01257855   -0.01096173
     atom   20 type  2   force =     0.00266995   -0.00483878    0.00099975
     atom   21 type  1   force =    -0.00206818    0.00053909   -0.00029554
     atom   22 type  2   force =    -0.00356240   -0.00149610   -0.00428217
     atom   23 type  2   force =    -0.00218475    0.00528040    0.00928579
     atom   24 type  1   force =    -0.00687289   -0.00312561   -0.02178689
     atom   25 type  2   force =     0.01436761    0.01512329    0.00971205
     atom   26 type  2   force =    -0.00690247   -0.00018685   -0.00343218
     atom   27 type  1   force =    -0.00017822    0.00253617   -0.00216671
     atom   28 type  2   force =    -0.00008562   -0.00094627   -0.00380175
     atom   29 type  2   force =     0.00057234   -0.00161457   -0.00310026
     atom   30 type  1   force =    -0.00575094    0.01270087   -0.00754867
     atom   31 type  2   force =     0.01186784   -0.01049459    0.02298348
     atom   32 type  2   force =    -0.00817153    0.00655598    0.00641347
     atom   33 type  1   force =     0.01190960   -0.00949273   -0.01087771
     atom   34 type  2   force =     0.00246009   -0.04144023   -0.00887419
     atom   35 type  2   force =    -0.00827552    0.00641438    0.01471061
     atom   36 type  3   force =     0.00393425   -0.04130064   -0.02271020
     The non-local contrib.  to forces
     atom    1 type  1   force =     0.00138350    0.02698866   -0.01069158
     atom    2 type  2   force =    -0.01208374    0.00398058   -0.26973295
     atom    3 type  2   force =    -0.01446595   -0.00152004    0.27089237
     atom    4 type  1   force =    -0.00071719    0.00735106    0.00637868
     atom    5 type  2   force =     0.00428257   -0.02886235   -0.24980423
     atom    6 type  2   force =     0.00270172    0.01260468    0.26082972
     atom    7 type  1   force =    -0.01903449    0.00561758   -0.01692133
     atom    8 type  2   force =     0.00334781   -0.00412734   -0.25498514
     atom    9 type  2   force =     0.00792363   -0.00690334    0.27895121
     atom   10 type  1   force =     0.00493933    0.00195919   -0.00069611
     atom   11 type  2   force =     0.01492698    0.00399437   -0.25762554
     atom   12 type  2   force =    -0.01210802   -0.01700618    0.26299594
     atom   13 type  1   force =    -0.00241512    0.02723679   -0.02527415
     atom   14 type  2   force =     0.01558812   -0.01514674   -0.25964358
     atom   15 type  2   force =    -0.01625566   -0.00523385    0.26141039
     atom   16 type  1   force =    -0.00619582    0.02680105   -0.02590315
     atom   17 type  2   force =    -0.05920071    0.22441280    0.01729247
     atom   18 type  2   force =    -0.00677082   -0.00064949    0.27534218
     atom   19 type  1   force =     0.01429213    0.00244824   -0.01091269
     atom   20 type  2   force =    -0.00165642   -0.02404353    0.26547645
     atom   21 type  1   force =     0.00189735    0.02612865    0.00604927
     atom   22 type  2   force =    -0.00622861    0.00353283   -0.25740875
     atom   23 type  2   force =     0.00702816   -0.01435615    0.26883464
     atom   24 type  1   force =     0.00568253    0.01253360   -0.01058613
     atom   25 type  2   force =     0.00574579    0.00092943   -0.25807595
     atom   26 type  2   force =     0.00146542   -0.01168143    0.26488326
     atom   27 type  1   force =    -0.00399009    0.00410459    0.01447175
     atom   28 type  2   force =     0.00052574   -0.01895859   -0.27022122
     atom   29 type  2   force =     0.00455681    0.00147727    0.26376661
     atom   30 type  1   force =    -0.00116681    0.02069116    0.00464744
     atom   31 type  2   force =     0.01196275   -0.01225430   -0.19430706
     atom   32 type  2   force =    -0.00277193   -0.01076089    0.27468941
     atom   33 type  1   force =    -0.00447259    0.00712613    0.00396717
     atom   34 type  2   force =    -0.00234939   -0.03450924   -0.26990731
     atom   35 type  2   force =    -0.00253459   -0.01208268    0.27093808
     atom   36 type  3   force =     0.00357075   -0.02020275   -0.01947277
     The ionic contribution  to forces
     atom    1 type  1   force =     0.46911944    0.10013415    5.65556196
     atom    2 type  2   force =    -0.67146324    0.36175145   39.28635785
     atom    3 type  2   force =    -0.16671204   -0.00238111  -36.07755556
     atom    4 type  1   force =     0.06167511    0.55827424    0.57531280
     atom    5 type  2   force =    -0.81258176    1.42187200   38.70285702
     atom    6 type  2   force =     0.37037201   -0.52154491  -38.05377434
     atom    7 type  1   force =    -2.50490223   -2.64123970    2.48727422
     atom    8 type  2   force =    -1.00314052    0.08421593   37.37043772
     atom    9 type  2   force =     0.33787358   -0.01663432  -38.01956041
     atom   10 type  1   force =    -1.10821236   -0.29180487    5.68678545
     atom   11 type  2   force =    -0.52854270   -1.55237369   39.14131662
     atom   12 type  2   force =     0.45249743    0.71063896  -37.84734567
     atom   13 type  1   force =     0.50585814    0.69444438    2.66629458
     atom   14 type  2   force =     0.10748195   -0.10048907   38.50725909
     atom   15 type  2   force =     0.17255946   -0.09156042  -36.81162337
     atom   16 type  1   force =     0.31304761    3.87997488    0.00879345
     atom   17 type  2   force =     1.02622014    0.56922066   37.11796634
     atom   18 type  2   force =    -0.15344105   -0.68455513  -38.65675068
     atom   19 type  1   force =     2.76066791   -2.10169729    0.32671724
     atom   20 type  2   force =     0.26100653   -0.16389928  -38.53675829
     atom   21 type  1   force =     0.08800068    0.09077808    1.15565847
     atom   22 type  2   force =     0.46956790   -1.59326410   38.41106833
     atom   23 type  2   force =    -0.08407057    0.69361484  -38.30036444
     atom   24 type  1   force =    -0.65740053    0.98384124    5.77640189
     atom   25 type  2   force =     0.61627582    0.17452473   39.25535045
     atom   26 type  2   force =    -0.30075193    0.03401523  -37.34406790
     atom   27 type  1   force =    -0.30374595    0.30885981   -2.90406093
     atom   28 type  2   force =    -0.16488903    0.89750210   38.13624488
     atom   29 type  2   force =    -0.29813614   -0.45207871  -37.30456533
     atom   30 type  1   force =    -0.48352347   -0.73685479   -0.14478408
     atom   31 type  2   force =     0.86490741    0.37823135   37.01516114
     atom   32 type  2   force =    -0.50794444    0.03133272  -38.70654696
     atom   33 type  1   force =     0.75309395   -0.81356701    2.04896178
     atom   34 type  2   force =     0.19890260   -1.38431061   39.35460523
     atom   35 type  2   force =    -0.31356004    0.49797688  -37.81177994
     atom   36 type  3   force =     0.23389034    0.67705136    7.83315137
     The local contribution  to forces
     atom    1 type  1   force =    -0.45915536   -0.15089376   -5.63694516
     atom    2 type  2   force =     0.66780256   -0.34871950  -39.03637607
     atom    3 type  2   force =     0.16933641    0.01245621   35.82509495
     atom    4 type  1   force =    -0.05502077   -0.56128479   -0.58062939
     atom    5 type  2   force =     0.80937933   -1.40054316  -38.48015647
     atom    6 type  2   force =    -0.36908387    0.51917949   37.81200898
     atom    7 type  1   force =     2.53123200    2.62351694   -2.47707930
     atom    8 type  2   force =     1.00049387   -0.08398381  -37.11844962
     atom    9 type  2   force =    -0.33278932    0.02935741   37.77307230
     atom   10 type  1   force =     1.09168239    0.30044566   -5.71201983
     atom   11 type  2   force =     0.51998221    1.54745119  -38.91028496
     atom   12 type  2   force =    -0.44262969   -0.69433436   37.61192124
     atom   13 type  1   force =    -0.50256652   -0.73648413   -2.67359453
     atom   14 type  2   force =    -0.11159805    0.11297185  -38.25496496
     atom   15 type  2   force =    -0.17329360    0.09921432   36.56272982
     atom   16 type  1   force =    -0.30635074   -3.89521171    0.01900906
     atom   17 type  2   force =    -0.97387866   -0.70131299  -37.07924681
     atom   18 type  2   force =     0.15612783    0.67820747   38.41456530
     atom   19 type  1   force =    -2.77677822    2.08684772   -0.32614914
     atom   20 type  2   force =    -0.25694306    0.18239420   38.29378811
     atom   21 type  1   force =    -0.09184445   -0.11681139   -1.16131291
     atom   22 type  2   force =    -0.46703356    1.58852667  -38.17834553
     atom   23 type  2   force =     0.07545332   -0.67540293   38.06217044
     atom   24 type  1   force =     0.64477233   -0.99946987   -5.78675586
     atom   25 type  2   force =    -0.60769592   -0.16005100  -39.00789826
     atom   26 type  2   force =     0.29277605   -0.02315005   37.09698624
     atom   27 type  1   force =     0.30745402   -0.30998833    2.88795606
     atom   28 type  2   force =     0.16434469   -0.88097607  -37.89037945
     atom   29 type  2   force =     0.29461462    0.44965658   37.05864021
     atom   30 type  1   force =     0.47921938    0.72885612    0.13326027
     atom   31 type  2   force =    -0.86425696   -0.37734834  -36.81538778
     atom   32 type  2   force =     0.50273451   -0.01457690   38.45978243
     atom   33 type  1   force =    -0.73668055    0.79653716   -2.06307630
     atom   34 type  2   force =    -0.19460890    1.37632376  -39.11436430
     atom   35 type  2   force =     0.30785891   -0.48065872   37.57698649
     atom   36 type  3   force =    -0.23353338   -0.69812903   -7.83634676
     The core correction contribution to forces
     atom    1 type  1   force =     0.00000000    0.00000000    0.00000000
     atom    2 type  2   force =     0.00034574   -0.00025952    0.02071440
     atom    3 type  2   force =     0.00064918   -0.00003908   -0.02091542
     atom    4 type  1   force =     0.00000000    0.00000000    0.00000000
     atom    5 type  2   force =    -0.00044252    0.00163246    0.02017239
     atom    6 type  2   force =     0.00004170   -0.00118335   -0.02078392
     atom    7 type  1   force =     0.00000000    0.00000000    0.00000000
     atom    8 type  2   force =    -0.00010676    0.00054412    0.02040835
     atom    9 type  2   force =    -0.00016575    0.00045172   -0.02109222
     atom   10 type  1   force =     0.00000000    0.00000000    0.00000000
     atom   11 type  2   force =    -0.00069542   -0.00045474    0.02052191
     atom   12 type  2   force =     0.00112554    0.00140300   -0.02082790
     atom   13 type  1   force =     0.00000000    0.00000000    0.00000000
     atom   14 type  2   force =    -0.00075412    0.00016404    0.02047343
     atom   15 type  2   force =     0.00084305    0.00032509   -0.02057523
     atom   16 type  1   force =     0.00000000    0.00000000    0.00000000
     atom   17 type  2   force =     0.00351439   -0.01327156    0.00467399
     atom   18 type  2   force =     0.00020405   -0.00060897   -0.02110606
     atom   19 type  1   force =     0.00000000    0.00000000    0.00000000
     atom   20 type  2   force =     0.00018470    0.00093355   -0.02118370
     atom   21 type  1   force =     0.00000000    0.00000000    0.00000000
     atom   22 type  2   force =     0.00015341   -0.00043881    0.02045492
     atom   23 type  2   force =    -0.00057121    0.00118862   -0.02093262
     atom   24 type  1   force =     0.00000000    0.00000000    0.00000000
     atom   25 type  2   force =     0.00003602   -0.00029111    0.02053331
     atom   26 type  2   force =    -0.00032541    0.00062495   -0.02090267
     atom   27 type  1   force =     0.00000000    0.00000000    0.00000000
     atom   28 type  2   force =    -0.00004601    0.00149567    0.02069246
     atom   29 type  2   force =    -0.00044316   -0.00055841   -0.02062121
     atom   30 type  1   force =     0.00000000    0.00000000    0.00000000
     atom   31 type  2   force =    -0.00071861    0.00100977    0.01746207
     atom   32 type  2   force =    -0.00011966    0.00065197   -0.02107488
     atom   33 type  1   force =     0.00000000    0.00000000    0.00000000
     atom   34 type  2   force =     0.00044424    0.00104231    0.02094139
     atom   35 type  2   force =    -0.00006492    0.00104647   -0.02107651
     atom   36 type  3   force =     0.00000000    0.00000000    0.00000000
     The Hubbard contrib.    to forces
     atom    1 type  1   force =     0.00000000    0.00000000    0.00000000
     atom    2 type  2   force =     0.00000000    0.00000000    0.00000000
     atom    3 type  2   force =     0.00000000    0.00000000    0.00000000
     atom    4 type  1   force =     0.00000000    0.00000000    0.00000000
     atom    5 type  2   force =     0.00000000    0.00000000    0.00000000
     atom    6 type  2   force =     0.00000000    0.00000000    0.00000000
     atom    7 type  1   force =     0.00000000    0.00000000    0.00000000
     atom    8 type  2   force =     0.00000000    0.00000000    0.00000000
     atom    9 type  2   force =     0.00000000    0.00000000    0.00000000
     atom   10 type  1   force =     0.00000000    0.00000000    0.00000000
     atom   11 type  2   force =     0.00000000    0.00000000    0.00000000
     atom   12 type  2   force =     0.00000000    0.00000000    0.00000000
     atom   13 type  1   force =     0.00000000    0.00000000    0.00000000
     atom   14 type  2   force =     0.00000000    0.00000000    0.00000000
     atom   15 type  2   force =     0.00000000    0.00000000    0.00000000
     atom   16 type  1   force =     0.00000000    0.00000000    0.00000000
     atom   17 type  2   force =     0.00000000    0.00000000    0.00000000
     atom   18 type  2   force =     0.00000000    0.00000000    0.00000000
     atom   19 type  1   force =     0.00000000    0.00000000    0.00000000
     atom   20 type  2   force =     0.00000000    0.00000000    0.00000000
     atom   21 type  1   force =     0.00000000    0.00000000    0.00000000
     atom   22 type  2   force =     0.00000000    0.00000000    0.00000000
     atom   23 type  2   force =     0.00000000    0.00000000    0.00000000
     atom   24 type  1   force =     0.00000000    0.00000000    0.00000000
     atom   25 type  2   force =     0.00000000    0.00000000    0.00000000
     atom   26 type  2   force =     0.00000000    0.00000000    0.00000000
     atom   27 type  1   force =     0.00000000    0.00000000    0.00000000
     atom   28 type  2   force =     0.00000000    0.00000000    0.00000000
     atom   29 type  2   force =     0.00000000    0.00000000    0.00000000
     atom   30 type  1   force =     0.00000000    0.00000000    0.00000000
     atom   31 type  2   force =     0.00000000    0.00000000    0.00000000
     atom   32 type  2   force =     0.00000000    0.00000000    0.00000000
     atom   33 type  1   force =     0.00000000    0.00000000    0.00000000
     atom   34 type  2   force =     0.00000000    0.00000000    0.00000000
     atom   35 type  2   force =     0.00000000    0.00000000    0.00000000
     atom   36 type  3   force =     0.00000000    0.00000000    0.00000000
     The SCF correction term to forces
     atom    1 type  1   force =    -0.00002145    0.00008989   -0.00080265
     atom    2 type  2   force =     0.00001674    0.00011948   -0.00020009
     atom    3 type  2   force =     0.00002900    0.00006722   -0.00033071
     atom    4 type  1   force =    -0.00015526   -0.00015222   -0.00059752
     atom    5 type  2   force =    -0.00004452    0.00007110   -0.00014148
     atom    6 type  2   force =    -0.00004917   -0.00002089   -0.00023350
     atom    7 type  1   force =     0.00008123   -0.00043046   -0.00054641
     atom    8 type  2   force =    -0.00004524   -0.00011708   -0.00005721
     atom    9 type  2   force =    -0.00000470   -0.00010125   -0.00032063
     atom   10 type  1   force =     0.00014779    0.00031384   -0.00082348
     atom   11 type  2   force =    -0.00003880   -0.00001594   -0.00007542
     atom   12 type  2   force =    -0.00000184    0.00012597   -0.00038285
     atom   13 type  1   force =    -0.00003105    0.00018966   -0.00068091
     atom   14 type  2   force =    -0.00000988    0.00002418   -0.00014829
     atom   15 type  2   force =     0.00003383    0.00003957   -0.00037175
     atom   16 type  1   force =     0.00008471   -0.00008253   -0.00059534
     atom   17 type  2   force =     0.00006392    0.00004603   -0.00019598
     atom   18 type  2   force =     0.00006982   -0.00005126   -0.00021005
     atom   19 type  1   force =     0.00016638   -0.00018128   -0.00060083
     atom   20 type  2   force =     0.00007751   -0.00022778   -0.00030653
     atom   21 type  1   force =    -0.00012246    0.00043970   -0.00067407
     atom   22 type  2   force =    -0.00002224    0.00014326   -0.00003484
     atom   23 type  2   force =    -0.00002516    0.00023196   -0.00040594
     atom   24 type  1   force =     0.00007207   -0.00003463   -0.00083050
     atom   25 type  2   force =     0.00000520    0.00000718   -0.00018121
     atom   26 type  2   force =    -0.00006730    0.00000040   -0.00031481
     atom   27 type  1   force =     0.00010310   -0.00044395   -0.00051729
     atom   28 type  2   force =    -0.00002171   -0.00001344   -0.00012213
     atom   29 type  2   force =    -0.00002049   -0.00011535   -0.00030423
     atom   30 type  1   force =    -0.00028074    0.00000433   -0.00065599
     atom   31 type  2   force =    -0.00002746   -0.00013712    0.00007140
     atom   32 type  2   force =    -0.00007071   -0.00009499   -0.00042023
     atom   33 type  1   force =    -0.00003192    0.00040694   -0.00071406
     atom   34 type  2   force =     0.00007084    0.00000951   -0.00013291
     atom   35 type  2   force =     0.00002442    0.00012837   -0.00034121
     atom   36 type  3   force =     0.00000583   -0.00002427   -0.00002575

     Total force =     0.153080     Total SCF correction =     0.002915

     BFGS Geometry Optimization
     Energy error            =      0.0E+00 Ry
     Gradient error          =      7.9E-02 Ry/Bohr

     number of scf cycles    =   1
     number of bfgs steps    =   0

     energy             new  =   -2205.5342745606 Ry

     new trust radius        =       0.0996216822 bohr
     new conv_thr            =       0.0000010000 Ry


ATOMIC_POSITIONS (angstrom)
Mo            6.5805423049        1.7752768965        2.8274035050
S             8.1685699366        0.8186347156        4.4349335627
S             8.1873260419        0.8157859230        1.2763854964
Mo            8.0982225819        4.4972754427        2.7180556041
S             6.5002234809        3.7193285593        4.3429092718
S             6.5554575566        3.5165208298        1.1202380896
Mo            6.4938855449        7.2118058553        2.6680272450
S             8.0820187037        6.3420378550        4.2516363268
S             8.0877112971        6.3079696028        1.0897019213
Mo            8.1545641215        9.9079579002        2.8292955453
S             6.4981484378        8.9421887419        4.3798438484
S             6.6173566970        9.0491511957        1.1432646482
Mo            3.4221074327        1.7392249773        2.7588647424
S             4.9808323026        0.8156332495        4.3573909022
S             5.0493075306        0.8477378572        1.2221887954
Mo            4.9800670261        4.5192559939        2.6335659878
S             3.4261058439        3.7134570704        4.3117108860
S             3.4359046955        3.5441787349        1.0646088845
Mo            3.4529880162        7.2096682563        2.6248761665
S             4.9846470712        6.3243717157        1.0377827778
Mo            5.0111694864        9.9018853263        2.7432445666
S             3.4690729748        8.9429595662        4.3233252867
S             3.4072730446        9.0677842506        1.1009821252
Mo            0.2924535091        1.7458555293        2.8379155815
S             1.8580652256        0.8006969083        4.4033488320
S             1.8571474058        0.8543270432        1.2075846213
Mo            1.8605969987        4.4970088425        2.6590508043
S             0.2721685436        3.6538980825        4.3355722984
S             0.2315340763        3.5263948315        1.1703772994
Mo            0.2681088834        7.2233671077        2.6977018459
S             1.9085184402        6.3072453389        4.2346064538
S             1.8579140282        6.3138130895        1.0479531443
Mo            1.8506489511        9.9351158178        2.7671900179
S             0.2972147228        9.0680686041        4.4091734456
S             0.2723921828        9.0469200579        1.1581852996
H             3.1543352483        4.8354335300        5.3314440418



     Writing config-only to output data dir ./MoS2-V-O.save/
     NEW-OLD atomic charge density approx. for the potential

     negative rho (up, down):  1.470E-04 0.000E+00

     total cpu time spent up to now is       75.8 secs

     Self-consistent Calculation

     iteration #  1     ecut=    80.00 Ry     beta= 0.70
     Davidson diagonalization with overlap
     ethr =  1.00E-06,  avg # of iterations = 11.0

     negative rho (up, down):  8.299E-05 0.000E+00

     total cpu time spent up to now is       88.3 secs

     total energy              =   -2205.55385696 Ry
     estimated scf accuracy    <       0.00264003 Ry

     iteration #  2     ecut=    80.00 Ry     beta= 0.70
     Davidson diagonalization with overlap
     ethr =  8.60E-07,  avg # of iterations =  2.0

     negative rho (up, down):  7.394E-05 0.000E+00

     total cpu time spent up to now is      101.7 secs

     total energy              =   -2205.55392297 Ry
     estimated scf accuracy    <       0.00063372 Ry

     iteration #  3     ecut=    80.00 Ry     beta= 0.70
     Davidson diagonalization with overlap
     ethr =  2.06E-07,  avg # of iterations =  2.0

     negative rho (up, down):  7.021E-05 0.000E+00

     total cpu time spent up to now is      117.5 secs

     total energy              =   -2205.55393950 Ry
     estimated scf accuracy    <       0.00022689 Ry

     iteration #  4     ecut=    80.00 Ry     beta= 0.70
     Davidson diagonalization with overlap
     ethr =  7.39E-08,  avg # of iterations =  5.0

     negative rho (up, down):  6.578E-05 0.000E+00

     total cpu time spent up to now is      130.5 secs

     total energy              =   -2205.55396641 Ry
     estimated scf accuracy    <       0.00002075 Ry

     iteration #  5     ecut=    80.00 Ry     beta= 0.70
     Davidson diagonalization with overlap
     ethr =  6.76E-09,  avg # of iterations = 12.0

     negative rho (up, down):  5.969E-05 0.000E+00

     total cpu time spent up to now is      144.0 secs

     total energy              =   -2205.55397276 Ry
     estimated scf accuracy    <       0.00000803 Ry

     iteration #  6     ecut=    80.00 Ry     beta= 0.70
     Davidson diagonalization with overlap
     ethr =  2.62E-09,  avg # of iterations =  3.0

     negative rho (up, down):  5.238E-05 0.000E+00

     total cpu time spent up to now is      153.5 secs

     total energy              =   -2205.55397408 Ry
     estimated scf accuracy    <       0.00000210 Ry

     iteration #  7     ecut=    80.00 Ry     beta= 0.70
     Davidson diagonalization with overlap
     ethr =  6.85E-10,  avg # of iterations =  5.0

     negative rho (up, down):  1.372E-04 0.000E+00

     total cpu time spent up to now is      155.6 secs

     End of self-consistent calculation

          k = 0.0000 0.0000 0.0000 (105382 PWs)   bands (ev):

   -62.8867 -62.8459 -62.8415 -62.8347 -62.8218 -62.7943 -62.7804 -62.7719
   -62.7603 -62.7560 -62.7328 -62.7188 -37.2070 -37.1494 -37.1348 -37.1180
   -37.1024 -37.0850 -37.0648 -37.0524 -37.0469 -37.0414 -37.0373 -37.0248
   -37.0064 -37.0055 -36.9959 -36.9865 -36.9824 -36.9775 -36.9733 -36.9648
   -36.9478 -36.9380 -36.9207 -36.9039 -36.8995 -36.8966 -36.8818 -36.8749
   -36.8688 -36.8579 -36.8473 -36.8217 -36.8202 -36.7811 -36.7118 -36.6800
   -16.0376 -15.4866 -15.1134 -15.0493 -14.8865 -14.8235 -14.6921 -14.4824
   -14.4158 -14.3914 -14.3701 -14.3078 -14.3009 -14.2855 -14.1844 -14.1156
   -14.1048 -14.0752 -14.0077 -13.8555 -13.8327 -13.8063 -13.7879  -8.3787
    -7.6284  -7.4269  -7.2600  -7.2418  -7.2278  -7.1692  -7.1623  -7.0275
    -6.8331  -6.8011  -6.7169  -6.6516  -6.5092  -6.4903  -6.4081  -6.3913
    -6.3537  -6.2445  -6.1663  -5.9766  -5.9031  -5.8354  -5.8252  -5.7811
    -5.7346  -5.6992  -5.6785  -5.6445  -5.6048  -5.5540  -5.5215  -5.4552
    -5.4042  -5.3505  -5.1228  -5.1077  -5.0391  -4.9869  -4.9681  -4.9293
    -4.8983  -4.8332  -4.6676  -4.5676  -4.3958  -4.3097  -4.2949  -4.2302
    -4.1918  -4.0276  -3.9765  -3.9014  -3.8058  -3.7614  -3.7306  -3.6779
    -3.6395  -3.5548  -3.5327  -3.5064  -3.4603  -3.4420  -3.4122  -3.3679
    -3.3390  -3.2220  -3.1716  -2.8732  -2.8617  -2.7673  -2.7618  -2.7341
    -2.6788  -2.6497  -2.6457  -2.6220  -2.5623  -2.2632  -2.0431  -1.9828
    -1.9246  -0.9803  -0.7938  -0.6629  -0.1482  -0.1132  -0.0630  -0.0197
     0.1091   0.1482   0.1674   0.2650   0.2967   0.3022   0.4184   0.4656
     0.4899   0.5531   0.5694   0.6047   0.6333   0.6661   0.7442   0.7535
     0.7937   0.8369   0.8661   0.9183   0.9630   0.9960   1.0692   1.2707
     1.3990

     the Fermi energy is    -0.9859 ev

!    total energy              =   -2205.55397427 Ry
     estimated scf accuracy    <       0.00000082 Ry
     smearing contrib. (-TS)   =      -0.00642154 Ry
     internal energy E=F+TS    =   -2205.54755274 Ry

     The total energy is F=E-TS. E is the sum of the following terms:
     one-electron contribution =  -18042.95107462 Ry
     hartree contribution      =    9008.43141522 Ry
     xc contribution           =    -385.26173403 Ry
     ewald contribution        =    7214.23384069 Ry

     convergence has been achieved in   7 iterations

     negative rho (up, down):  1.372E-04 0.000E+00

     Forces acting on atoms (cartesian axes, Ry/au):

     atom    1 type  1   force =     0.00101917   -0.01142926    0.00157248
     atom    2 type  2   force =    -0.00949426    0.01095743   -0.00156219
     atom    3 type  2   force =    -0.01029153    0.00723737   -0.00888537
     atom    4 type  1   force =     0.00531357    0.00302070    0.00222967
     atom    5 type  2   force =     0.00186461   -0.00628368   -0.00760584
     atom    6 type  2   force =     0.00372861    0.00558320    0.00046472
     atom    7 type  1   force =     0.00673206   -0.00883402   -0.00127477
     atom    8 type  2   force =     0.00126056   -0.00281880    0.01258717
     atom    9 type  2   force =     0.01140265    0.00494798    0.00627285
     atom   10 type  1   force =    -0.00434201    0.00804618   -0.00920242
     atom   11 type  2   force =     0.00538897   -0.00161959   -0.00798638
     atom   12 type  2   force =    -0.00302167    0.00001250    0.00171754
     atom   13 type  1   force =     0.00206754   -0.00272800   -0.01248682
     atom   14 type  2   force =     0.00599393   -0.00147447    0.00706505
     atom   15 type  2   force =    -0.01014900    0.00011538   -0.00886763
     atom   16 type  1   force =    -0.00094950    0.00882436    0.00421464
     atom   17 type  2   force =     0.00027199    0.05795325    0.04735233
     atom   18 type  2   force =    -0.00208221   -0.00561980    0.00959356
     atom   19 type  1   force =    -0.00181831   -0.00997579   -0.00377700
     atom   20 type  2   force =     0.00263330   -0.00456995   -0.00295269
     atom   21 type  1   force =    -0.00170558    0.00026148    0.00245721
     atom   22 type  2   force =    -0.00235607   -0.00309034   -0.00553849
     atom   23 type  2   force =    -0.00064350    0.00293292    0.00409977
     atom   24 type  1   force =    -0.00312101   -0.00290227   -0.00796178
     atom   25 type  2   force =     0.01093600    0.01159703    0.00031176
     atom   26 type  2   force =    -0.00610547   -0.00319279   -0.00774891
     atom   27 type  1   force =     0.00013350    0.00358845    0.00429875
     atom   28 type  2   force =    -0.00005249   -0.00223248   -0.00591480
     atom   29 type  2   force =     0.00053107    0.00021461   -0.00482948
     atom   30 type  1   force =    -0.00129628    0.00223244    0.00439445
     atom   31 type  2   force =     0.00389037   -0.00259856    0.01148395
     atom   32 type  2   force =    -0.00793277    0.00561213    0.00289142
     atom   33 type  1   force =     0.00439888   -0.00355066   -0.00008366
     atom   34 type  2   force =    -0.00046579   -0.03034688   -0.01387933
     atom   35 type  2   force =    -0.00654603    0.00755845    0.00694997
     atom   36 type  3   force =     0.00480671   -0.03742851   -0.01939972
     The non-local contrib.  to forces
     atom    1 type  1   force =     0.00318576    0.02264353   -0.01168186
     atom    2 type  2   force =    -0.00827334    0.00047066   -0.26949852
     atom    3 type  2   force =    -0.01231685   -0.00356431    0.26555287
     atom    4 type  1   force =    -0.00070516    0.00904897    0.00575878
     atom    5 type  2   force =     0.00592509   -0.02904490   -0.25052244
     atom    6 type  2   force =     0.00318395    0.00955071    0.26339954
     atom    7 type  1   force =    -0.01877915    0.00528144   -0.01860929
     atom    8 type  2   force =     0.00413996   -0.00389674   -0.25796085
     atom    9 type  2   force =     0.00682647   -0.00754000    0.27608694
     atom   10 type  1   force =     0.00332208    0.00295027   -0.00159580
     atom   11 type  2   force =     0.01368912    0.00318829   -0.25888307
     atom   12 type  2   force =    -0.01268973   -0.01784418    0.26106969
     atom   13 type  1   force =    -0.00182231    0.02480926   -0.02747699
     atom   14 type  2   force =     0.01331814   -0.01485918   -0.26205588
     atom   15 type  2   force =    -0.01254403   -0.00731492    0.26081344
     atom   16 type  1   force =    -0.00740137    0.02871661   -0.02759787
     atom   17 type  2   force =    -0.06549698    0.23659507    0.01860724
     atom   18 type  2   force =    -0.00566214   -0.00027734    0.27571262
     atom   19 type  1   force =     0.01599007    0.00317803   -0.01147428
     atom   20 type  2   force =    -0.00158698   -0.02295094    0.26330005
     atom   21 type  1   force =     0.00128626    0.02632052    0.00455211
     atom   22 type  2   force =    -0.00442267    0.00169867   -0.25839323
     atom   23 type  2   force =     0.00842255   -0.01697173    0.26564166
     atom   24 type  1   force =     0.00414263    0.01306188   -0.01060100
     atom   25 type  2   force =     0.00184259   -0.00302982   -0.26298624
     atom   26 type  2   force =     0.00223215   -0.01369275    0.26230992
     atom   27 type  1   force =    -0.00384798    0.00359446    0.01133180
     atom   28 type  2   force =     0.00050978   -0.01847293   -0.27067667
     atom   29 type  2   force =     0.00425027    0.00141487    0.26370313
     atom   30 type  1   force =    -0.00206569    0.02260207    0.00384860
     atom   31 type  2   force =     0.00199478   -0.00261262   -0.20610113
     atom   32 type  2   force =    -0.00239541   -0.01130682    0.27261492
     atom   33 type  1   force =    -0.00260822    0.00566840    0.00162284
     atom   34 type  2   force =    -0.00444686   -0.02637415   -0.27417451
     atom   35 type  2   force =    -0.00179439   -0.01112938    0.26652180
     atom   36 type  3   force =     0.00525988   -0.02574827   -0.02450623
     The ionic contribution  to forces
     atom    1 type  1   force =     0.13578288    0.47457025    5.84004840
     atom    2 type  2   force =    -0.47317618    0.25425855   39.36537224
     atom    3 type  2   force =    -0.16089917    0.04210047  -36.17929303
     atom    4 type  1   force =     0.00630366    0.44086158    0.67250895
     atom    5 type  2   force =    -0.84365511    1.36500049   38.59333879
     atom    6 type  2   force =     0.31745154   -0.57900702  -37.94669566
     atom    7 type  1   force =    -2.57444423   -2.49820909    2.43270290
     atom    8 type  2   force =    -0.98950228    0.09632330   37.49435182
     atom    9 type  2   force =     0.32642950   -0.06841305  -38.00660946
     atom   10 type  1   force =    -0.86837973   -0.29769165    5.38645663
     atom   11 type  2   force =    -0.50163054   -1.55923347   39.10384494
     atom   12 type  2   force =     0.37011041    0.65286788  -37.82911405
     atom   13 type  1   force =     0.53709630    1.10901875    2.34265899
     atom   14 type  2   force =    -0.05344767    0.00806027   38.56426380
     atom   15 type  2   force =     0.27212621   -0.04595297  -36.84967314
     atom   16 type  1   force =     0.29182078    3.43392992    0.13089056
     atom   17 type  2   force =     1.10859034    0.15308330   37.18602978
     atom   18 type  2   force =    -0.10854022   -0.63319774  -38.51942529
     atom   19 type  1   force =     2.76886997   -1.97115614    0.13089422
     atom   20 type  2   force =     0.26211116   -0.15804333  -38.58579639
     atom   21 type  1   force =     0.07137324    0.02986679    1.33666866
     atom   22 type  2   force =     0.47541583   -1.59129127   38.40747360
     atom   23 type  2   force =    -0.03582867    0.64165708  -38.27505769
     atom   24 type  1   force =    -0.41054760    0.90989015    5.54124936
     atom   25 type  2   force =     0.56418924    0.19084124   39.22332853
     atom   26 type  2   force =    -0.34542332    0.01562247  -37.33756762
     atom   27 type  1   force =    -0.26417790    0.09562914   -2.88262085
     atom   28 type  2   force =    -0.13130665    0.79325074   38.09251057
     atom   29 type  2   force =    -0.28639194   -0.40675067  -37.30683500
     atom   30 type  1   force =    -0.37944364   -0.89070419   -0.14062504
     atom   31 type  2   force =     0.79062839    0.46157205   37.09987034
     atom   32 type  2   force =    -0.51424490   -0.00588517  -38.68921938
     atom   33 type  1   force =     0.55918390   -0.57629812    2.16030911
     atom   34 type  2   force =     0.15132608   -1.16899907   39.28102419
     atom   35 type  2   force =    -0.27258207    0.52185210  -37.75799709
     atom   36 type  3   force =     0.20481237    0.76057641    7.92073329
     The local contribution  to forces
     atom    1 type  1   force =    -0.13767608   -0.50889525   -5.82775460
     atom    2 type  2   force =     0.47154920   -0.24355488  -39.11872509
     atom    3 type  2   force =     0.16237213   -0.03144212   35.92549629
     atom    4 type  1   force =    -0.00031838   -0.44695333   -0.67712382
     atom    5 type  2   force =     0.84019018   -1.34387402  -38.37101565
     atom    6 type  2   force =    -0.31683811    0.57614752   37.70428060
     atom    7 type  1   force =     2.60000700    2.48419285   -2.41636092
     atom    8 type  2   force =     0.98671470   -0.09575677  -37.24483911
     atom    9 type  2   force =    -0.32176671    0.08051464   37.75765354
     atom   10 type  1   force =     0.86066442    0.30280153   -5.39524876
     atom   11 type  2   force =     0.49393856    1.55492808  -38.87397667
     atom   12 type  2   force =    -0.36145584   -0.63633720   37.59034506
     atom   13 type  1   force =    -0.53331937   -1.13705804   -2.32899316
     atom   14 type  2   force =     0.04702852    0.00495745  -38.31613732
     atom   15 type  2   force =    -0.27053828    0.05287417   36.60029923
     atom   16 type  1   force =    -0.28512523   -3.45351336   -0.10016060
     atom   17 type  2   force =    -1.04680857   -0.31680260  -37.16104108
     atom   18 type  2   force =     0.11192089    0.62837341   38.27413163
     atom   19 type  1   force =    -2.78665705    1.95809136   -0.12417693
     atom   20 type  2   force =    -0.25803390    0.17551351   38.34046104
     atom   21 type  1   force =    -0.07425101   -0.05585027   -1.33979157
     atom   22 type  2   force =    -0.47343437    1.58700279  -38.17557463
     atom   23 type  2   force =     0.02732398   -0.62293257   38.03413229
     atom   24 type  1   force =     0.40310183   -0.92594322   -5.53967113
     atom   25 type  2   force =    -0.55530048   -0.17617534  -38.98109631
     atom   26 type  2   force =     0.33749203   -0.00583970   37.08808510
     atom   27 type  1   force =     0.26794174   -0.09550306    2.87450219
     atom   28 type  2   force =     0.13072010   -0.77844091  -37.84893544
     atom   29 type  2   force =     0.28306011    0.40600739   37.05871219
     atom   30 type  1   force =     0.38009268    0.87053107    0.14011833
     atom   31 type  2   force =    -0.78837274   -0.46223140  -36.90057556
     atom   32 type  2   force =     0.50885504    0.02219585   38.44026017
     atom   33 type  1   force =    -0.55222805    0.56710086   -2.16308722
     atom   34 type  2   force =    -0.14781710    1.16416264  -39.04229849
     atom   35 type  2   force =     0.26784496   -0.50414606   37.51919367
     atom   36 type  3   force =    -0.20525482   -0.77227349   -7.91571253
     The core correction contribution to forces
     atom    1 type  1   force =     0.00000000    0.00000000    0.00000000
     atom    2 type  2   force =     0.00029655   -0.00019855    0.02074831
     atom    3 type  2   force =     0.00053907    0.00008640   -0.02079681
     atom    4 type  1   force =     0.00000000    0.00000000    0.00000000
     atom    5 type  2   force =    -0.00053391    0.00161254    0.02014381
     atom    6 type  2   force =    -0.00000647   -0.00108328   -0.02080732
     atom    7 type  1   force =     0.00000000    0.00000000    0.00000000
     atom    8 type  2   force =    -0.00011772    0.00054904    0.02050848
     atom    9 type  2   force =    -0.00010236    0.00043518   -0.02105439
     atom   10 type  1   force =     0.00000000    0.00000000    0.00000000
     atom   11 type  2   force =    -0.00058997   -0.00043222    0.02053957
     atom   12 type  2   force =     0.00107965    0.00139238   -0.02077042
     atom   13 type  1   force =     0.00000000    0.00000000    0.00000000
     atom   14 type  2   force =    -0.00076302    0.00021400    0.02055312
     atom   15 type  2   force =     0.00078885    0.00042013   -0.02057318
     atom   16 type  1   force =     0.00000000    0.00000000    0.00000000
     atom   17 type  2   force =     0.00397538   -0.01469288    0.00364080
     atom   18 type  2   force =     0.00018160   -0.00055936   -0.02116641
     atom   19 type  1   force =     0.00000000    0.00000000    0.00000000
     atom   20 type  2   force =     0.00019564    0.00090464   -0.02113948
     atom   21 type  1   force =     0.00000000    0.00000000    0.00000000
     atom   22 type  2   force =     0.00007394   -0.00039322    0.02049268
     atom   23 type  2   force =    -0.00058417    0.00127296   -0.02084455
     atom   24 type  1   force =     0.00000000    0.00000000    0.00000000
     atom   25 type  2   force =     0.00019554   -0.00010840    0.02064602
     atom   26 type  2   force =    -0.00041626    0.00067159   -0.02082687
     atom   27 type  1   force =     0.00000000    0.00000000    0.00000000
     atom   28 type  2   force =    -0.00003448    0.00139335    0.02069163
     atom   29 type  2   force =    -0.00043576   -0.00051817   -0.02063717
     atom   30 type  1   force =     0.00000000    0.00000000    0.00000000
     atom   31 type  2   force =    -0.00033692    0.00066737    0.01784725
     atom   32 type  2   force =    -0.00017524    0.00065128   -0.02101818
     atom   33 type  1   force =     0.00000000    0.00000000    0.00000000
     atom   34 type  2   force =     0.00047768    0.00079366    0.02108244
     atom   35 type  2   force =    -0.00007762    0.00102623   -0.02095504
     atom   36 type  3   force =     0.00000000    0.00000000    0.00000000
     The Hubbard contrib.    to forces
     atom    1 type  1   force =     0.00000000    0.00000000    0.00000000
     atom    2 type  2   force =     0.00000000    0.00000000    0.00000000
     atom    3 type  2   force =     0.00000000    0.00000000    0.00000000
     atom    4 type  1   force =     0.00000000    0.00000000    0.00000000
     atom    5 type  2   force =     0.00000000    0.00000000    0.00000000
     atom    6 type  2   force =     0.00000000    0.00000000    0.00000000
     atom    7 type  1   force =     0.00000000    0.00000000    0.00000000
     atom    8 type  2   force =     0.00000000    0.00000000    0.00000000
     atom    9 type  2   force =     0.00000000    0.00000000    0.00000000
     atom   10 type  1   force =     0.00000000    0.00000000    0.00000000
     atom   11 type  2   force =     0.00000000    0.00000000    0.00000000
     atom   12 type  2   force =     0.00000000    0.00000000    0.00000000
     atom   13 type  1   force =     0.00000000    0.00000000    0.00000000
     atom   14 type  2   force =     0.00000000    0.00000000    0.00000000
     atom   15 type  2   force =     0.00000000    0.00000000    0.00000000
     atom   16 type  1   force =     0.00000000    0.00000000    0.00000000
     atom   17 type  2   force =     0.00000000    0.00000000    0.00000000
     atom   18 type  2   force =     0.00000000    0.00000000    0.00000000
     atom   19 type  1   force =     0.00000000    0.00000000    0.00000000
     atom   20 type  2   force =     0.00000000    0.00000000    0.00000000
     atom   21 type  1   force =     0.00000000    0.00000000    0.00000000
     atom   22 type  2   force =     0.00000000    0.00000000    0.00000000
     atom   23 type  2   force =     0.00000000    0.00000000    0.00000000
     atom   24 type  1   force =     0.00000000    0.00000000    0.00000000
     atom   25 type  2   force =     0.00000000    0.00000000    0.00000000
     atom   26 type  2   force =     0.00000000    0.00000000    0.00000000
     atom   27 type  1   force =     0.00000000    0.00000000    0.00000000
     atom   28 type  2   force =     0.00000000    0.00000000    0.00000000
     atom   29 type  2   force =     0.00000000    0.00000000    0.00000000
     atom   30 type  1   force =     0.00000000    0.00000000    0.00000000
     atom   31 type  2   force =     0.00000000    0.00000000    0.00000000
     atom   32 type  2   force =     0.00000000    0.00000000    0.00000000
     atom   33 type  1   force =     0.00000000    0.00000000    0.00000000
     atom   34 type  2   force =     0.00000000    0.00000000    0.00000000
     atom   35 type  2   force =     0.00000000    0.00000000    0.00000000
     atom   36 type  3   force =     0.00000000    0.00000000    0.00000000
     The SCF correction term to forces
     atom    1 type  1   force =    -0.00027231    0.00025135    0.00094576
     atom    2 type  2   force =     0.00011061   -0.00001920    0.00052608
     atom    3 type  2   force =     0.00001438    0.00005608    0.00014053
     atom    4 type  1   force =     0.00003454    0.00006264    0.00107098
     atom    5 type  2   force =    -0.00006054    0.00002136    0.00043485
     atom    6 type  2   force =    -0.00006120   -0.00002558    0.00027277
     atom    7 type  1   force =    -0.00005046   -0.00010007    0.00097776
     atom    8 type  2   force =     0.00002700   -0.00003849    0.00051205
     atom    9 type  2   force =     0.00001685   -0.00004964    0.00018145
     atom   10 type  1   force =     0.00005232   -0.00001482    0.00117073
     atom   11 type  2   force =    -0.00001710   -0.00007111    0.00047406
     atom   12 type  2   force =    -0.00006506   -0.00006723    0.00017248
     atom   13 type  1   force =     0.00011402    0.00050118    0.00130956
     atom   14 type  2   force =    -0.00014094    0.00015215    0.00042655
     atom   15 type  2   force =     0.00001935    0.00008812    0.00025124
     atom   16 type  1   force =    -0.00024258   -0.00030966    0.00106777
     atom   17 type  2   force =     0.00001292   -0.00023050    0.00010080
     atom   18 type  2   force =     0.00001875    0.00004038    0.00032623
     atom   19 type  1   force =    -0.00002021   -0.00008989    0.00096520
     atom   20 type  2   force =    -0.00005153    0.00000533    0.00020730
     atom   21 type  1   force =    -0.00011298   -0.00007640    0.00101322
     atom   22 type  2   force =     0.00001230   -0.00010815    0.00044830
     atom   23 type  2   force =     0.00002391   -0.00009368    0.00021329
     atom   24 type  1   force =     0.00018322    0.00008807    0.00104621
     atom   25 type  2   force =     0.00001021    0.00006850    0.00040496
     atom   26 type  2   force =     0.00001103    0.00004476    0.00023578
     atom   27 type  1   force =     0.00021874   -0.00013294    0.00107082
     atom   28 type  2   force =     0.00005986    0.00003643    0.00048032
     atom   29 type  2   force =     0.00004949    0.00006033    0.00021259
     atom   30 type  1   force =     0.00012146   -0.00019735    0.00103778
     atom   31 type  2   force =    -0.00002204    0.00000519    0.00042825
     atom   32 type  2   force =     0.00002883   -0.00004386    0.00023911
     atom   33 type  1   force =     0.00005235   -0.00002264    0.00105682
     atom   34 type  2   force =    -0.00000448    0.00006919    0.00047226
     atom   35 type  2   force =     0.00006419   -0.00004529    0.00017185
     atom   36 type  3   force =    -0.00000962    0.00001600    0.00007097

     Total force =     0.109303     Total SCF correction =     0.004165
     Energy error            =      2.0E-02 Ry
     Gradient error          =      5.8E-02 Ry/Bohr

     number of scf cycles    =   2
     number of bfgs steps    =   1

     energy             old  =   -2205.5342745606 Ry
     energy             new  =   -2205.5539742713 Ry

     CASE: energy            _new < energy            _old

     new trust radius        =       0.1095838504 bohr
     new conv_thr            =       0.0000000580 Ry


ATOMIC_POSITIONS (angstrom)
Mo            6.5824019720        1.7655112192        2.8291600767
S             8.1609176412        0.8273724170        4.4340261538
S             8.1796224018        0.8212825041        1.2704648147
Mo            8.1022020711        4.4996348443        2.7195132042
S             6.5014659206        3.7147311623        4.3373405163
S             6.5582420138        3.5210202005        1.1203205494
Mo            6.4989328487        7.2048767085        2.6664392485
S             8.0828745759        6.3398842227        4.2614537698
S             8.0962971158        6.3117600133        1.0948513152
Mo            8.1505915219        9.9142158578        2.8206056686
S             6.5021595428        8.9410152471        4.3741338299
S             6.6153267907        9.0492483108        1.1450311771
Mo            3.4235052366        1.7359328498        2.7474010338
S             4.9857704744        0.8144359347        4.3632476924
S             5.0411628974        0.8481100340        1.2156767465
Mo            4.9795297251        4.5260668135        2.6363684752
S             3.4259258094        3.7585800827        4.3481339215
S             3.4341796504        3.5398049220        1.0719422978
Mo            3.4516613938        7.2020122883        2.6213122923
S             4.9865982174        6.3209635834        1.0360234913
Mo            5.0098693707        9.9021084707        2.7447661924
S             3.4672013183        8.9408454531        4.3193646123
S             3.4066318259        9.0702049134        1.1045702091
Mo            0.2897430667        1.7436854565        2.8305447080
S             1.8665201649        0.8096508056        4.4045880377
S             1.8525471465        0.8522886512        1.2023178208
Mo            1.8606622690        4.4995494389        2.6615357909
S             0.2721261733        3.6523852697        4.3314252811
S             0.2319312112        3.5263572490        1.1669916482
Mo            0.2666723394        7.2261411917        2.6996698335
S             1.9122512077        6.3044765518        4.2443322833
S             1.8520224516        6.3180643021        1.0504691532
Mo            1.8547076576        9.9318526549        2.7659699260
S             0.2971842437        9.0444380021        4.3994473229
S             0.2673660859        9.0523864598        1.1641572485
H             3.1577959920        4.8073412130        5.3167435287



     Writing config-only to output data dir ./MoS2-V-O.save/
     NEW-OLD atomic charge density approx. for the potential

     negative rho (up, down):  1.490E-04 0.000E+00

     total cpu time spent up to now is      158.9 secs

     Self-consistent Calculation

     iteration #  1     ecut=    80.00 Ry     beta= 0.70
     Davidson diagonalization with overlap
     ethr =  1.00E-06,  avg # of iterations = 10.0

     negative rho (up, down):  7.342E-05 0.000E+00

     total cpu time spent up to now is      177.4 secs

     total energy              =   -2205.56767602 Ry
     estimated scf accuracy    <       0.00211603 Ry

     iteration #  2     ecut=    80.00 Ry     beta= 0.70
     Davidson diagonalization with overlap
     ethr =  6.89E-07,  avg # of iterations =  2.0

     negative rho (up, down):  5.182E-05 0.000E+00

     total cpu time spent up to now is      189.2 secs

     total energy              =   -2205.56773524 Ry
     estimated scf accuracy    <       0.00043559 Ry

     iteration #  3     ecut=    80.00 Ry     beta= 0.70
     Davidson diagonalization with overlap
     ethr =  1.42E-07,  avg # of iterations =  3.0

     negative rho (up, down):  3.745E-05 0.000E+00

     total cpu time spent up to now is      203.5 secs

     total energy              =   -2205.56775941 Ry
     estimated scf accuracy    <       0.00015482 Ry

     iteration #  4     ecut=    80.00 Ry     beta= 0.70
     Davidson diagonalization with overlap
     ethr =  5.04E-08,  avg # of iterations =  6.0

     negative rho (up, down):  3.247E-05 0.000E+00

     total cpu time spent up to now is      220.8 secs

     total energy              =   -2205.56777459 Ry
     estimated scf accuracy    <       0.00001612 Ry

     iteration #  5     ecut=    80.00 Ry     beta= 0.70
     Davidson diagonalization with overlap
     ethr =  5.25E-09,  avg # of iterations =  5.0

     negative rho (up, down):  3.200E-05 0.000E+00

     total cpu time spent up to now is      232.5 secs

     total energy              =   -2205.56777784 Ry
     estimated scf accuracy    <       0.00000526 Ry

     iteration #  6     ecut=    80.00 Ry     beta= 0.70
     Davidson diagonalization with overlap
     ethr =  1.71E-09,  avg # of iterations =  4.0

     negative rho (up, down):  3.620E-05 0.000E+00

     total cpu time spent up to now is      245.2 secs

     total energy              =   -2205.56777853 Ry
     estimated scf accuracy    <       0.00000124 Ry

     iteration #  7     ecut=    80.00 Ry     beta= 0.70
     Davidson diagonalization with overlap
     ethr =  4.04E-10,  avg # of iterations =  5.0

     negative rho (up, down):  4.785E-05 0.000E+00

     total cpu time spent up to now is      255.9 secs

     total energy              =   -2205.56777870 Ry
     estimated scf accuracy    <       0.00000040 Ry

     iteration #  8     ecut=    80.00 Ry     beta= 0.70
     Davidson diagonalization with overlap
     ethr =  1.29E-10,  avg # of iterations =  4.0

     negative rho (up, down):  7.450E-05 0.000E+00

     total cpu time spent up to now is      267.1 secs

     total energy              =   -2205.56777867 Ry
     estimated scf accuracy    <       0.00000013 Ry

     iteration #  9     ecut=    80.00 Ry     beta= 0.70
     Davidson diagonalization with overlap
     ethr =  4.36E-11,  avg # of iterations =  4.0

     negative rho (up, down):  1.379E-04 0.000E+00

     total cpu time spent up to now is      269.1 secs

     End of self-consistent calculation

          k = 0.0000 0.0000 0.0000 (105382 PWs)   bands (ev):

   -62.8790 -62.8377 -62.8303 -62.8255 -62.8110 -62.7798 -62.7668 -62.7601
   -62.7486 -62.7362 -62.7170 -62.7023 -37.1939 -37.1369 -37.1244 -37.1054
   -37.0889 -37.0715 -37.0558 -37.0390 -37.0358 -37.0296 -37.0259 -37.0124
   -37.0014 -36.9939 -36.9838 -36.9728 -36.9683 -36.9654 -36.9589 -36.9500
   -36.9352 -36.9268 -36.9059 -36.8884 -36.8838 -36.8821 -36.8684 -36.8619
   -36.8536 -36.8417 -36.8333 -36.8092 -36.8086 -36.7694 -36.6929 -36.6660
   -16.0638 -15.5691 -15.1030 -15.0435 -14.8687 -14.8167 -14.6903 -14.4641
   -14.3960 -14.3813 -14.3670 -14.2994 -14.2806 -14.2750 -14.1749 -14.1018
   -14.0949 -14.0657 -13.9958 -13.8425 -13.8218 -13.8000 -13.7771  -8.5639
    -7.6146  -7.4164  -7.2534  -7.2215  -7.2094  -7.1618  -7.1427  -7.0254
    -6.8158  -6.7894  -6.7039  -6.6299  -6.5056  -6.4774  -6.4004  -6.3782
    -6.3541  -6.2327  -6.1742  -5.9629  -5.8832  -5.8228  -5.8025  -5.7753
    -5.7255  -5.6843  -5.6643  -5.6281  -5.5915  -5.5405  -5.5174  -5.4381
    -5.3875  -5.3301  -5.1102  -5.0848  -5.0216  -4.9762  -4.9527  -4.9132
    -4.8960  -4.8259  -4.6601  -4.5728  -4.3994  -4.2976  -4.2794  -4.2135
    -4.1841  -4.0230  -3.9706  -3.8980  -3.7934  -3.7543  -3.7112  -3.6647
    -3.6425  -3.5468  -3.5184  -3.5017  -3.4467  -3.4327  -3.3967  -3.3531
    -3.3274  -3.2214  -3.1659  -2.8522  -2.8488  -2.7575  -2.7437  -2.7246
    -2.6695  -2.6411  -2.6293  -2.6097  -2.5479  -2.2468  -2.0280  -1.9759
    -1.9285  -0.9619  -0.7687  -0.6497  -0.1306  -0.1058  -0.0529  -0.0023
     0.1148   0.1634   0.1709   0.2771   0.3140   0.3280   0.4267   0.4779
     0.5133   0.5715   0.5747   0.6227   0.6513   0.6775   0.7454   0.7659
     0.8004   0.8590   0.8811   0.9249   0.9736   1.0128   1.0792   1.3100
     1.4095

     the Fermi energy is    -0.9668 ev

!    total energy              =   -2205.56777854 Ry
     estimated scf accuracy    <       0.00000004 Ry
     smearing contrib. (-TS)   =      -0.00633574 Ry
     internal energy E=F+TS    =   -2205.56144280 Ry

     The total energy is F=E-TS. E is the sum of the following terms:
     one-electron contribution =  -18039.91542205 Ry
     hartree contribution      =    9007.01417648 Ry
     xc contribution           =    -385.28305768 Ry
     ewald contribution        =    7212.62286045 Ry

     convergence has been achieved in   9 iterations

     negative rho (up, down):  1.379E-04 0.000E+00

     Forces acting on atoms (cartesian axes, Ry/au):

     atom    1 type  1   force =    -0.00553966   -0.00229084   -0.00380246
     atom    2 type  2   force =    -0.00476796    0.00608317   -0.00195665
     atom    3 type  2   force =    -0.00836647    0.00555080   -0.01035482
     atom    4 type  1   force =     0.00453895    0.00171352    0.00161613
     atom    5 type  2   force =     0.00271188   -0.00610304   -0.00663552
     atom    6 type  2   force =     0.00291996    0.00358191    0.00247056
     atom    7 type  1   force =     0.00556531   -0.00532288    0.00071764
     atom    8 type  2   force =     0.00145081   -0.00296681    0.00968789
     atom    9 type  2   force =     0.00945941    0.00346065    0.00333342
     atom   10 type  1   force =    -0.00094279    0.00554252   -0.00071444
     atom   11 type  2   force =     0.00490682   -0.00163892   -0.00727709
     atom   12 type  2   force =    -0.00374602   -0.00064432    0.00000386
     atom   13 type  1   force =     0.00166680    0.00254522   -0.00105284
     atom   14 type  2   force =     0.00210249   -0.00055504    0.00327658
     atom   15 type  2   force =    -0.00601961   -0.00189396   -0.00746861
     atom   16 type  1   force =    -0.00203945    0.00644262    0.00531419
     atom   17 type  2   force =     0.00630239    0.02798426    0.02593066
     atom   18 type  2   force =    -0.00070681   -0.00259579    0.00849555
     atom   19 type  1   force =    -0.00155346   -0.00747979   -0.00077312
     atom   20 type  2   force =     0.00247739   -0.00387284   -0.00396634
     atom   21 type  1   force =    -0.00115651    0.00015024    0.00186310
     atom   22 type  2   force =    -0.00133163   -0.00423043   -0.00460977
     atom   23 type  2   force =     0.00005928    0.00084687    0.00172556
     atom   24 type  1   force =    -0.00117882   -0.00179996   -0.00220636
     atom   25 type  2   force =     0.00780146    0.00844075   -0.00434690
     atom   26 type  2   force =    -0.00393851   -0.00425110   -0.00747405
     atom   27 type  1   force =     0.00039248    0.00385239    0.00653846
     atom   28 type  2   force =     0.00002681   -0.00301127   -0.00556125
     atom   29 type  2   force =     0.00128443    0.00154851   -0.00396057
     atom   30 type  1   force =     0.00091666   -0.00350826    0.00764361
     atom   31 type  2   force =    -0.00271425    0.00439275    0.00376575
     atom   32 type  2   force =    -0.00677220    0.00404096    0.00142106
     atom   33 type  1   force =    -0.00039502    0.00041951    0.00319078
     atom   34 type  2   force =    -0.00219055   -0.01917155   -0.01293400
     atom   35 type  2   force =    -0.00435045    0.00649855    0.00309896
     atom   36 type  3   force =     0.00312684   -0.02175839   -0.00499898
     The non-local contrib.  to forces
     atom    1 type  1   force =     0.00423273    0.01922797   -0.01212461
     atom    2 type  2   force =    -0.00527390   -0.00251286   -0.26837492
     atom    3 type  2   force =    -0.00974940   -0.00528211    0.26305202
     atom    4 type  1   force =    -0.00085931    0.01048507    0.00557533
     atom    5 type  2   force =     0.00739128   -0.02835072   -0.25020828
     atom    6 type  2   force =     0.00336043    0.00766567    0.26549523
     atom    7 type  1   force =    -0.01833956    0.00521031   -0.01960821
     atom    8 type  2   force =     0.00497803   -0.00403707   -0.25954472
     atom    9 type  2   force =     0.00505976   -0.00848724    0.27388654
     atom   10 type  1   force =     0.00236761    0.00388737   -0.00148154
     atom   11 type  2   force =     0.01258281    0.00262845   -0.25851859
     atom   12 type  2   force =    -0.01245658   -0.01834967    0.26082494
     atom   13 type  1   force =    -0.00130184    0.02345026   -0.02953241
     atom   14 type  2   force =     0.01091498   -0.01447885   -0.26323617
     atom   15 type  2   force =    -0.01003835   -0.00899699    0.26122086
     atom   16 type  1   force =    -0.00859601    0.03065924   -0.02858070
     atom   17 type  2   force =    -0.07016919    0.23893934    0.01311986
     atom   18 type  2   force =    -0.00483763    0.00113649    0.27614162
     atom   19 type  1   force =     0.01762437    0.00411776   -0.01140466
     atom   20 type  2   force =    -0.00155263   -0.02130445    0.26249266
     atom   21 type  1   force =     0.00087109    0.02618152    0.00367527
     atom   22 type  2   force =    -0.00305014    0.00035968   -0.25807492
     atom   23 type  2   force =     0.00920567   -0.01944523    0.26415646
     atom   24 type  1   force =     0.00289045    0.01323777   -0.00964793
     atom   25 type  2   force =    -0.00140873   -0.00644792   -0.26499926
     atom   26 type  2   force =     0.00430938   -0.01391122    0.26264740
     atom   27 type  1   force =    -0.00377204    0.00338452    0.00838949
     atom   28 type  2   force =     0.00065291   -0.01778993   -0.26964151
     atom   29 type  2   force =     0.00454388    0.00119661    0.26524625
     atom   30 type  1   force =    -0.00252680    0.02400860    0.00414786
     atom   31 type  2   force =    -0.00767930    0.00612405   -0.21683583
     atom   32 type  2   force =    -0.00101156   -0.01234484    0.27114687
     atom   33 type  1   force =    -0.00159915    0.00437725    0.00058596
     atom   34 type  2   force =    -0.00529900   -0.01857871   -0.27469580
     atom   35 type  2   force =    -0.00059892   -0.01204652    0.26464459
     atom   36 type  3   force =     0.00778730   -0.03345304   -0.03164167
     The ionic contribution  to forces
     atom    1 type  1   force =    -0.09894361    0.74109095    5.86498971
     atom    2 type  2   force =    -0.32232261    0.17567612   39.41219555
     atom    3 type  2   force =    -0.14117042    0.07050414  -36.29718695
     atom    4 type  1   force =    -0.07347800    0.30196952    0.73193513
     atom    5 type  2   force =    -0.86098152    1.30476540   38.46799822
     atom    6 type  2   force =     0.26659579   -0.60872114  -37.85094683
     atom    7 type  1   force =    -2.67201050   -2.33209687    2.36243278
     atom    8 type  2   force =    -1.01120357    0.10063530   37.63060947
     atom    9 type  2   force =     0.30932111   -0.09555333  -38.00685208
     atom   10 type  1   force =    -0.71759586   -0.28191103    5.17417191
     atom   11 type  2   force =    -0.49490864   -1.55388350   39.03435515
     atom   12 type  2   force =     0.31063362    0.60167602  -37.80132196
     atom   13 type  1   force =     0.52432701    1.41045792    2.14923646
     atom   14 type  2   force =    -0.18098805    0.08130447   38.60890545
     atom   15 type  2   force =     0.32890571   -0.02340862  -36.91105652
     atom   16 type  1   force =     0.29217304    3.04360727    0.26404730
[...]
     atom   27 type  1   force =    -0.00324063    0.00584595   -0.00127166
     atom   28 type  2   force =     0.00605145   -0.00835209   -0.26579817
     atom   29 type  2   force =    -0.00295200   -0.00587549    0.27069448
     atom   30 type  1   force =    -0.00253908    0.02412895    0.00478817
     atom   31 type  2   force =    -0.01091768    0.00083836   -0.23404057
     atom   32 type  2   force =     0.00470313   -0.01083526    0.26667889
     atom   33 type  1   force =    -0.00134694    0.00259968   -0.00014240
     atom   34 type  2   force =    -0.00034513   -0.00793598   -0.26967040
     atom   35 type  2   force =     0.00068963   -0.01477163    0.26446864
     atom   36 type  3   force =     0.01266145   -0.03472581   -0.04198576
     The ionic contribution  to forces
     atom    1 type  1   force =    -0.29597177    0.69621029    2.35304946
     atom    2 type  2   force =    -0.18443115    0.04141290   38.71051905
     atom    3 type  2   force =     0.00555889    0.11467761  -37.38917798
     atom    4 type  1   force =    -0.28156106   -0.00032170    0.50114423
     atom    5 type  2   force =    -0.68040881    0.88646836   38.17162182
     atom    6 type  2   force =     0.04465029   -0.34997221  -37.71941147
     atom    7 type  1   force =    -2.88104199   -1.74106561    2.31903647
     atom    8 type  2   force =    -1.24401311    0.18590508   38.24838836
     atom    9 type  2   force =     0.20876303   -0.13221530  -38.02705354
     atom   10 type  1   force =    -0.54546092   -0.11675124    2.60731198
     atom   11 type  2   force =    -0.51654541   -1.30387323   38.54646121
     atom   12 type  2   force =     0.16116980    0.33864891  -38.00338190
     atom   13 type  1   force =     0.40370169    1.64611677    2.48942776
     atom   14 type  2   force =    -0.07769913   -0.04509655   38.34607138
     atom   15 type  2   force =     0.15537886    0.02471221  -37.45879748
     atom   16 type  1   force =     0.26765420    2.54014873    3.43435449
     atom   17 type  2   force =     1.26408387   -0.66655840   38.12238616
     atom   18 type  2   force =    -0.07757182   -0.38790637  -37.38788994
     atom   19 type  1   force =     3.21453647   -1.21311319    1.01733973
     atom   20 type  2   force =     0.10736915   -0.09669265  -38.52976751
     atom   21 type  1   force =     0.02179986   -0.13454969    0.93627806
     atom   22 type  2   force =     0.58291516   -1.21872885   38.27762213
     atom   23 type  2   force =    -0.05334031    0.32985399  -38.05577345
     atom   24 type  1   force =    -0.16511876    0.47536367    2.46411266
     atom   25 type  2   force =     0.28066848    0.04359795   38.81640137
     atom   26 type  2   force =    -0.14742411    0.08670407  -37.65962456
     atom   27 type  1   force =     0.11475896   -0.75994064    1.24798095
     atom   28 type  2   force =    -0.19096031    0.19997920   38.01060624
     atom   29 type  2   force =     0.03577246   -0.16023572  -37.41387369
     atom   30 type  1   force =    -0.26387780   -0.43446286    1.34860276
     atom   31 type  2   force =     0.78060092    0.67835214   38.06743307
     atom   32 type  2   force =    -0.39371218   -0.17967912  -38.25558769
     atom   33 type  1   force =     0.46306827   -0.14954387    2.45424193
     atom   34 type  2   force =    -0.03579327   -0.29752347   38.75237340
     atom   35 type  2   force =    -0.06828162    0.22568468  -37.62979045
     atom   36 type  3   force =    -0.00923685    0.87439407    8.28736503
     The local contribution  to forces
     atom    1 type  1   force =     0.29653004   -0.71186837   -2.34781636
     atom    2 type  2   force =     0.18752506   -0.03544395  -38.46680174
     atom    3 type  2   force =    -0.00280381   -0.10636782   37.14381530
     atom    4 type  1   force =     0.28106007   -0.00905972   -0.50567987
     atom    5 type  2   force =     0.67766218   -0.87008169  -37.94138971
     atom    6 type  2   force =    -0.05062533    0.35186970   37.47378601
     atom    7 type  1   force =     2.89668976    1.73384862   -2.30066360
     atom    8 type  2   force =     1.23688640   -0.18313056  -38.00350970
     atom    9 type  2   force =    -0.20503639    0.14205225   37.77781133
     atom   10 type  1   force =     0.54525149    0.10905219   -2.61000483
     atom   11 type  2   force =     0.51030337    1.30443324  -38.31250839
     atom   12 type  2   force =    -0.15410513   -0.32551353   37.76176820
     atom   13 type  1   force =    -0.40177607   -1.66930227   -2.45855487
     atom   14 type  2   force =     0.07366849    0.05775976  -38.10321860
     atom   15 type  2   force =    -0.15221880   -0.01464441   37.21346900
     atom   16 type  1   force =    -0.25904047   -2.57526713   -3.39854665
     atom   17 type  2   force =    -1.15999214    0.43281383  -38.15725122
     atom   18 type  2   force =     0.08053067    0.39140015   37.13728964
     atom   19 type  1   force =    -3.23387473    1.20577976   -1.00488631
     atom   20 type  2   force =    -0.10675218    0.10700077   38.28780450
     atom   21 type  1   force =    -0.02200170    0.11161908   -0.93886864
     atom   22 type  2   force =    -0.57926355    1.21805791  -38.04170882
     atom   23 type  2   force =     0.04372628   -0.31181989   37.81191139
     atom   24 type  1   force =     0.16466155   -0.48819715   -2.46360807
     atom   25 type  2   force =    -0.27609743   -0.03202771  -38.57602126
     atom   26 type  2   force =     0.14250092   -0.07594296   37.41325934
     atom   27 type  1   force =    -0.11189981    0.75433816   -1.24645760
     atom   28 type  2   force =     0.18544266   -0.19238649  -37.76441847
     atom   29 type  2   force =    -0.03368528    0.16716409   37.16483218
     atom   30 type  1   force =     0.26649331    0.41035643   -1.35261144
     atom   31 type  2   force =    -0.76977503   -0.68020234  -37.85305583
     atom   32 type  2   force =     0.39060236    0.18965979   38.00881417
     atom   33 type  1   force =    -0.46182052    0.14658496   -2.45391424
     atom   34 type  2   force =     0.03585219    0.30674697  -38.50331972
     atom   35 type  2   force =     0.06769357   -0.21220116   37.38613684
     atom   36 type  3   force =    -0.00359890   -0.84117029   -8.24476692
     The core correction contribution to forces
     atom    1 type  1   force =     0.00000000    0.00000000    0.00000000
     atom    2 type  2   force =     0.00009817    0.00029961    0.02068171
     atom    3 type  2   force =     0.00016835    0.00046500   -0.02084148
     atom    4 type  1   force =     0.00000000    0.00000000    0.00000000
     atom    5 type  2   force =    -0.00022051    0.00065384    0.02004995
     atom    6 type  2   force =    -0.00036916   -0.00026686   -0.02074267
     atom    7 type  1   force =     0.00000000    0.00000000    0.00000000
     atom    8 type  2   force =    -0.00038137    0.00044648    0.02080397
     atom    9 type  2   force =     0.00047517    0.00050755   -0.02099744
     atom   10 type  1   force =     0.00000000    0.00000000    0.00000000
     atom   11 type  2   force =    -0.00015245   -0.00016030    0.02031826
     atom   12 type  2   force =     0.00065573    0.00089489   -0.02076844
     atom   13 type  1   force =     0.00000000    0.00000000    0.00000000
     atom   14 type  2   force =    -0.00025471    0.00018213    0.02060487
     atom   15 type  2   force =     0.00018895    0.00034903   -0.02078682
     atom   16 type  1   force =     0.00000000    0.00000000    0.00000000
     atom   17 type  2   force =     0.00666061   -0.01600540    0.00072266
     atom   18 type  2   force =     0.00019498   -0.00021227   -0.02116175
     atom   19 type  1   force =     0.00000000    0.00000000    0.00000000
     atom   20 type  2   force =     0.00007515    0.00041937   -0.02115084
     atom   21 type  1   force =     0.00000000    0.00000000    0.00000000
     atom   22 type  2   force =     0.00004401   -0.00028870    0.02043260
     atom   23 type  2   force =    -0.00069743    0.00118032   -0.02079474
     atom   24 type  1   force =     0.00000000    0.00000000    0.00000000
     atom   25 type  2   force =     0.00030922    0.00035163    0.02061127
     atom   26 type  2   force =    -0.00037732    0.00038563   -0.02099068
     atom   27 type  1   force =     0.00000000    0.00000000    0.00000000
     atom   28 type  2   force =    -0.00042180    0.00054344    0.02060988
     atom   29 type  2   force =     0.00026680    0.00014523   -0.02089273
     atom   30 type  1   force =     0.00000000    0.00000000    0.00000000
     atom   31 type  2   force =     0.00033076    0.00065179    0.01914268
     atom   32 type  2   force =    -0.00067249    0.00044367   -0.02093327
     atom   33 type  1   force =     0.00000000    0.00000000    0.00000000
     atom   34 type  2   force =     0.00000080    0.00035702    0.02099075
     atom   35 type  2   force =    -0.00007779    0.00086679   -0.02080730
     atom   36 type  3   force =     0.00000000    0.00000000    0.00000000
     The Hubbard contrib.    to forces
     atom    1 type  1   force =     0.00000000    0.00000000    0.00000000
     atom    2 type  2   force =     0.00000000    0.00000000    0.00000000
     atom    3 type  2   force =     0.00000000    0.00000000    0.00000000
     atom    4 type  1   force =     0.00000000    0.00000000    0.00000000
     atom    5 type  2   force =     0.00000000    0.00000000    0.00000000
     atom    6 type  2   force =     0.00000000    0.00000000    0.00000000
     atom    7 type  1   force =     0.00000000    0.00000000    0.00000000
     atom    8 type  2   force =     0.00000000    0.00000000    0.00000000
     atom    9 type  2   force =     0.00000000    0.00000000    0.00000000
     atom   10 type  1   force =     0.00000000    0.00000000    0.00000000
     atom   11 type  2   force =     0.00000000    0.00000000    0.00000000
     atom   12 type  2   force =     0.00000000    0.00000000    0.00000000
     atom   13 type  1   force =     0.00000000    0.00000000    0.00000000
     atom   14 type  2   force =     0.00000000    0.00000000    0.00000000
     atom   15 type  2   force =     0.00000000    0.00000000    0.00000000
     atom   16 type  1   force =     0.00000000    0.00000000    0.00000000
     atom   17 type  2   force =     0.00000000    0.00000000    0.00000000
     atom   18 type  2   force =     0.00000000    0.00000000    0.00000000
     atom   19 type  1   force =     0.00000000    0.00000000    0.00000000
     atom   20 type  2   force =     0.00000000    0.00000000    0.00000000
     atom   21 type  1   force =     0.00000000    0.00000000    0.00000000
     atom   22 type  2   force =     0.00000000    0.00000000    0.00000000
     atom   23 type  2   force =     0.00000000    0.00000000    0.00000000
     atom   24 type  1   force =     0.00000000    0.00000000    0.00000000
     atom   25 type  2   force =     0.00000000    0.00000000    0.00000000
     atom   26 type  2   force =     0.00000000    0.00000000    0.00000000
     atom   27 type  1   force =     0.00000000    0.00000000    0.00000000
     atom   28 type  2   force =     0.00000000    0.00000000    0.00000000
     atom   29 type  2   force =     0.00000000    0.00000000    0.00000000
     atom   30 type  1   force =     0.00000000    0.00000000    0.00000000
     atom   31 type  2   force =     0.00000000    0.00000000    0.00000000
     atom   32 type  2   force =     0.00000000    0.00000000    0.00000000
     atom   33 type  1   force =     0.00000000    0.00000000    0.00000000
     atom   34 type  2   force =     0.00000000    0.00000000    0.00000000
     atom   35 type  2   force =     0.00000000    0.00000000    0.00000000
     atom   36 type  3   force =     0.00000000    0.00000000    0.00000000
     The SCF correction term to forces
     atom    1 type  1   force =    -0.00001398    0.00002147    0.00007227
     atom    2 type  2   force =     0.00000169    0.00001789    0.00004218
     atom    3 type  2   force =     0.00000721    0.00002462    0.00001178
     atom    4 type  1   force =     0.00001148   -0.00000921    0.00003775
     atom    5 type  2   force =    -0.00000751   -0.00001569    0.00003318
     atom    6 type  2   force =    -0.00000233   -0.00000555    0.00000210
     atom    7 type  1   force =    -0.00000871   -0.00001720    0.00004534
     atom    8 type  2   force =     0.00000460    0.00000387    0.00002508
     atom    9 type  2   force =     0.00000816   -0.00001344    0.00000137
     atom   10 type  1   force =     0.00001521    0.00001043    0.00008530
     atom   11 type  2   force =    -0.00000418    0.00000133    0.00004469
     atom   12 type  2   force =    -0.00000802   -0.00001488    0.00000393
     atom   13 type  1   force =     0.00000277    0.00003180    0.00008277
     atom   14 type  2   force =    -0.00001168    0.00001947    0.00003745
     atom   15 type  2   force =    -0.00001052    0.00002525    0.00001475
     atom   16 type  1   force =    -0.00003904   -0.00004031    0.00005127
     atom   17 type  2   force =    -0.00000107   -0.00001592    0.00001112
     atom   18 type  2   force =    -0.00000355    0.00000002    0.00001230
     atom   19 type  1   force =    -0.00001358   -0.00001900    0.00003298
     atom   20 type  2   force =    -0.00001372   -0.00000899   -0.00000177
     atom   21 type  1   force =    -0.00001892    0.00003442    0.00006815
     atom   22 type  2   force =     0.00000358    0.00000604    0.00003291
     atom   23 type  2   force =    -0.00000116   -0.00001461    0.00000117
     atom   24 type  1   force =     0.00002623    0.00003198    0.00007682
     atom   25 type  2   force =     0.00000356    0.00002206    0.00003262
     atom   26 type  2   force =     0.00000800    0.00002496    0.00002008
     atom   27 type  1   force =     0.00001767   -0.00002420    0.00003834
     atom   28 type  2   force =     0.00000975   -0.00002226    0.00002843
     atom   29 type  2   force =     0.00001252   -0.00000056    0.00000599
     atom   30 type  1   force =     0.00002002   -0.00002734    0.00003260
     atom   31 type  2   force =    -0.00000167   -0.00000471    0.00001040
     atom   32 type  2   force =     0.00000148   -0.00001226    0.00000278
     atom   33 type  1   force =    -0.00000676    0.00003211    0.00006858
     atom   34 type  2   force =     0.00000115    0.00000453    0.00003358
     atom   35 type  2   force =     0.00001212   -0.00001887    0.00001299
     atom   36 type  3   force =     0.00000057   -0.00000277    0.00000463

     Total force =     0.005715     Total SCF correction =     0.000276
     Energy error            =      8.1E-05 Ry
     Gradient error          =      1.6E-03 Ry/Bohr

     bfgs converged in  18 scf cycles and  17 bfgs steps
     (criteria: energy <  1.0E-04 Ry, force <  1.0E-02 Ry/Bohr)

     End of BFGS Geometry Optimization

     Final energy             =   -2205.5843915916 Ry

     File ./MoS2-V-O.bfgs deleted, as requested
Begin final coordinates

ATOMIC_POSITIONS (angstrom)
Mo            6.5508070504        1.7607742386        2.7575669730
S             8.1249787599        0.8556666795        4.3616939238
S             8.1405034429        0.8545488815        1.1741209034
Mo            8.1378164539        4.4960431331        2.7169662935
S             6.5493092634        3.6577781981        4.3118493478
S             6.5573290253        3.5734767050        1.1248208989
Mo            6.5297874114        7.1878529305        2.6642071209
S             8.0897955567        6.3116110466        4.3031778010
S             8.1442091796        6.3185838744        1.1071384686
Mo            8.1310437200        9.9452481665        2.7591309838
S             6.5265028267        8.9511392335        4.3236341145
S             6.5901329968        9.0306199099        1.1159159957
Mo            3.4185107217        1.7458236143        2.7432379512
S             4.9890514832        0.8065111447        4.3348776455
S             4.9794340104        0.8351430832        1.1622549616
Mo            4.9994721917        4.5658874158        2.6955095515
S             3.4863950695        3.8081303407        4.4692124519
S             3.4538444732        3.5749154798        1.1494745014
Mo            3.4434525991        7.1787815382        2.6464768331
S             4.9925238956        6.3101435769        1.0524370546
Mo            4.9958783282        9.8938160304        2.7210142344
S             3.4576840392        8.9406611521        4.3039340105
S             3.3882034163        9.0394410731        1.1093812659
Mo            0.2786424702        1.7417967326        2.7682401539
S             1.8614251758        0.8397143480        4.3672732528
S             1.8560054266        0.8431359671        1.1612920329
Mo            1.8832726784        4.5144905454        2.7376849176
S             0.2751885664        3.6092931193        4.3199851597
S             0.2896621776        3.5605251783        1.1567531996
Mo            0.2591836828        7.2230331025        2.7271347262
S             1.8864153696        6.3367009563        4.3044562387
S             1.8335772373        6.3158726836        1.0995912305
Mo            1.8463684692        9.9365098583        2.7539520677
S             0.2568639934        9.0334969169        4.3484924981
S             0.2574514256        9.0578244499        1.1589408214
H             3.1638777572        4.6832439950        5.5085102863
End final coordinates



     Writing all to output data dir ./MoS2-V-O.save/
 
     init_run     :      3.12s CPU      3.28s WALL (       1 calls)
     electrons    :   1508.47s CPU   1652.74s WALL (      18 calls)
     update_pot   :     23.69s CPU     24.68s WALL (      17 calls)
     forces       :     24.28s CPU     26.02s WALL (      18 calls)

     Called by init_run:
     wfcinit      :      0.39s CPU      0.43s WALL (       1 calls)
     potinit      :      2.03s CPU      2.12s WALL (       1 calls)
     hinit0       :      0.18s CPU      0.19s WALL (       1 calls)

     Called by electrons:
     c_bands      :    184.78s CPU    186.79s WALL (     154 calls)
     sum_band     :     49.49s CPU     54.05s WALL (     154 calls)
     v_of_rho     :     63.02s CPU     72.63s WALL (     160 calls)
     newd         :     25.74s CPU     28.82s WALL (     160 calls)
     mix_rho      :   1194.10s CPU   1318.30s WALL (     154 calls)

     Called by c_bands:
     init_us_2    :      3.39s CPU      3.52s WALL (     309 calls)
     init_us_2:cp :      3.39s CPU      3.52s WALL (     309 calls)
     regterg      :    173.56s CPU    175.43s WALL (     154 calls)

     Called by *egterg:
     rdiaghg      :     14.79s CPU     14.88s WALL (     846 calls)
     h_psi        :    100.39s CPU    101.25s WALL (     876 calls)
     s_psi        :     12.79s CPU     12.84s WALL (     876 calls)
     g_psi        :      0.66s CPU      0.67s WALL (     721 calls)

     Called by h_psi:
     h_psi:calbec :     13.86s CPU     13.91s WALL (     876 calls)
     vloc_psi     :     72.37s CPU     73.11s WALL (     876 calls)
     add_vuspsi   :     12.52s CPU     12.58s WALL (     876 calls)

     General routines
     calbec       :     19.87s CPU     19.93s WALL (    1102 calls)
     fft          :     42.58s CPU     49.52s WALL (   10815 calls)
     ffts         :    534.07s CPU    654.13s WALL (  290634 calls)
     fftw         :     60.64s CPU     61.18s WALL (   93072 calls)
     interpolate  :      1.11s CPU      1.31s WALL (     160 calls)
 
     Parallel routines
 
     PWSCF        :  26m 3.20s CPU  28m32.29s WALL

 
   This run was terminated on:   2:46:40   4Nov2023            

=------------------------------------------------------------------------------=
   JOB DONE.
=------------------------------------------------------------------------------=
