
     Program PWSCF v.7.2 starts on  4Nov2023 at  2:41:16 

     This program is part of the open-source Quantum ESPRESSO suite
     for quantum simulation of materials; please cite
         "P. Giannozzi et al., J. Phys.:Condens. Matter 21 395502 (2009);
         "P. Giannozzi et al., J. Phys.:Condens. Matter 29 465901 (2017);
         "P. Giannozzi et al., J. Chem. Phys. 152 154105 (2020);
          URL http://www.quantum-espresso.org", 
     in publications or presentations arising from this work. More details at
     http://www.quantum-espresso.org/quote

     Parallel version (MPI & OpenMP), running on      48 processor cores
     Number of MPI processes:                48
     Threads/MPI process:                     1

     MPI processes distributed on     1 nodes
     19444 MiB available memory on the printing compute node when the environment starts
 
     Waiting for input...
     Reading input from standard input
Warning: card &CELL ignored
Warning: card CELL_DYNAMICS = 'BFGS', ignored
Warning: card CELL_DOFREE = '2DXY' ignored
Warning: card / ignored

     Current dimensions of program PWSCF are:
     Max number of different atomic species (ntypx) = 10
     Max number of k-points (npk) =  40000
     Max angular momentum in pseudopotentials (lmaxx) =  4

     IMPORTANT: XC functional enforced from input :
     Exchange-correlation= RVV10
                           (   1   4  13   4  26   0   0)
     Any further DFT definition will be discarded
     Please, verify this is what you really want


     gamma-point specific algorithms are used
     signal trapping enabled: kill the code with -SIGUSR1 to stop cleanly the simulation 
 
     R & G space division:  proc/nbgrp/npool/nimage =      48
     Subspace diagonalization in iterative solution of the eigenvalue problem:
     one sub-group per band group will be used
     scalapack distributed-memory algorithm (size of sub-group:  2*  2 procs)

 
     Parallelization info
     --------------------
     sticks:   dense  smooth     PW     G-vecs:    dense   smooth      PW
     Min         243     194     47                49060    35090    4376
     Max         246     196     50                49086    35128    4410
     Sum       11735    9389   2349              2355467  1685513  210763
 
     Using Slab Decomposition
 


     bravais-lattice index     =            0
     lattice parameter (alat)  =      17.8707  a.u.
     unit-cell volume          =   17436.2743 (a.u.)^3
     number of atoms/cell      =           36
     number of atomic types    =            3
     number of electrons       =       307.00
     number of Kohn-Sham states=          185
     kinetic-energy cutoff     =      80.0000  Ry
     charge density cutoff     =     400.0000  Ry
     scf convergence threshold =      1.0E-06
     mixing beta               =       0.7000
     number of iterations used =            8  local-TF  mixing
     energy convergence thresh.=      1.0E-04
     force convergence thresh. =      1.0E-02
     Exchange-correlation= RVV10
                           (   1   4  13   4  26   0   0)
     nstep                     =          200


     celldm(1)=  17.870686  celldm(2)=   0.000000  celldm(3)=   0.000000
     celldm(4)=   0.000000  celldm(5)=   0.000000  celldm(6)=   0.000000

     crystal axes: (cart. coord. in units of alat)
               a(1) = (   1.000000   0.000000   0.000000 )  
               a(2) = (   0.000000   1.155671   0.000000 )  
               a(3) = (   0.000000   0.000000   2.643601 )  

     reciprocal axes: (cart. coord. in units 2 pi/alat)
               b(1) = (  1.000000  0.000000  0.000000 )  
               b(2) = (  0.000000  0.865298  0.000000 )  
               b(3) = (  0.000000  0.000000  0.378272 )  


     PseudoPot. # 1 for Mo read from file:
     ../pseudo/Mo_ONCV_PBE-1.0.oncvpsp.upf
     MD5 check sum: 1b5d28e075c9ccadda658a603575cd1f
     Pseudo is Norm-conserving, Zval = 14.0
     Generated using ONCVPSP code by D. R. Hamann
     Using radial grid of 1526 points,  6 beta functions with: 
                l(1) =   0
                l(2) =   0
                l(3) =   1
                l(4) =   1
                l(5) =   2
                l(6) =   2

     PseudoPot. # 2 for S  read from file:
     ../pseudo/s_pbe_v1.4.uspp.F.UPF
     MD5 check sum: 88d86576ff6df21479756cfb9bdac1df
     Pseudo is Ultrasoft + core correction, Zval =  6.0
     Generated by new atomic code, or converted to UPF format
     Using radial grid of  907 points,  6 beta functions with: 
                l(1) =   0
                l(2) =   0
                l(3) =   1
                l(4) =   1
                l(5) =   2
                l(6) =   2
     Q(r) pseudized with  8 coefficients,  rinner =    1.300   1.300   1.300
                                                       1.300   1.300

     PseudoPot. # 3 for H  read from file:
     ../pseudo/H_ONCV_PBE-1.0.oncvpsp.upf
     MD5 check sum: 1790becc920ee074925cf490c71280fe
     Pseudo is Norm-conserving, Zval =  1.0
     Generated using ONCVPSP code by D. R. Hamann
     Using radial grid of 1166 points,  2 beta functions with: 
                l(1) =   0
                l(2) =   0

     atomic species   valence    mass     pseudopotential
        Mo            14.00    95.94000     Mo( 1.00)
        S              6.00    32.06500     S ( 1.00)
        H              1.00     1.00794     H ( 1.00)

     No symmetry found



   Cartesian axes

     site n.     atom                  positions (alat units)
         1           Mo  tau(   1) = (   0.6952221   0.1890506   0.2985846  )
         2           S   tau(   2) = (   0.8646417   0.0856217   0.4689279  )
         3           S   tau(   3) = (   0.8663890   0.0857843   0.1351291  )
         4           Mo  tau(   4) = (   0.8560186   0.4753274   0.2873942  )
         5           S   tau(   5) = (   0.6873294   0.3936244   0.4596353  )
         6           S   tau(   6) = (   0.6929804   0.3713468   0.1185692  )
         7           Mo  tau(   7) = (   0.6862796   0.7633098   0.2825370  )
         8           S   tau(   8) = (   0.8545980   0.6708292   0.4486168  )
         9           S   tau(   9) = (   0.8545123   0.6666874   0.1146125  )
        10           Mo  tau(  10) = (   0.8629403   1.0471007   0.3006803  )
        11           S   tau(  11) = (   0.6868280   0.9456650   0.4634891  )
        12           S   tau(  12) = (   0.6998113   0.9568511   0.1205389  )
        13           Mo  tau(  13) = (   0.3618216   0.1847309   0.2935964  )
        14           S   tau(  14) = (   0.5260962   0.0863870   0.4600448  )
        15           S   tau(  15) = (   0.5348379   0.0894875   0.1297123  )
        16           Mo  tau(  16) = (   0.5265817   0.4772436   0.2784130  )
        17           S   tau(  17) = (   0.3624753   0.3882513   0.4525556  )
        18           S   tau(  18) = (   0.3635411   0.3752055   0.1119148  )
        19           Mo  tau(  19) = (   0.3652268   0.7630864   0.2781795  )
        20           S   tau(  20) = (   0.5269494   0.6690381   0.1096838  )
        21           Mo  tau(  21) = (   0.5300192   1.0470394   0.2900995  )
        22           S   tau(  22) = (   0.3670346   0.9457522   0.4574073  )
        23           S   tau(  23) = (   0.3604225   0.9585725   0.1159032  )
        24           Mo  tau(  24) = (   0.0313099   0.1847895   0.3013130  )
        25           S   tau(  25) = (   0.1956761   0.0838230   0.4650863  )
        26           S   tau(  26) = (   0.1967693   0.0903508   0.1278874  )
        27           Mo  tau(  27) = (   0.1967578   0.4753919   0.2813011  )
        28           S   tau(  28) = (   0.0287851   0.3864324   0.4586755  )
        29           S   tau(  29) = (   0.0244514   0.3729871   0.1239344  )
        30           Mo  tau(  30) = (   0.0286728   0.7631204   0.2856894  )
        31           S   tau(  31) = (   0.2011512   0.6675435   0.4465001  )
        32           S   tau(  32) = (   0.1969214   0.6672839   0.1104564  )
        33           Mo  tau(  33) = (   0.1950294   1.0511147   0.2932237  )
        34           S   tau(  34) = (   0.0312912   0.9612169   0.4667423  )
        35           S   tau(  35) = (   0.0292670   0.9563028   0.1216485  )
        36           H   tau(  36) = (   0.5555556   0.5136314   0.5407634  )

     number of k points=     1  Gaussian smearing, width (Ry)=  0.0100
                       cart. coord. in units 2pi/alat
        k(    1) = (   0.0000000   0.0000000   0.0000000), wk =   2.0000000

     Dense  grid:  1177734 G-vectors     FFT dimensions: ( 120, 135, 320)

     Smooth grid:   842757 G-vectors     FFT dimensions: ( 108, 120, 270)

     Estimated max dynamical RAM per process >     146.59 MB

     Estimated total dynamical RAM >       6.87 GB

     Initial potential from superposition of free atoms

     starting charge     306.9873, renormalised to     307.0000

     negative rho (up, down):  1.413E-04 0.000E+00


---------------------------------------------------------------------------------
Carrying out rVV10 run using the following parameters:
Nqs =      20    Nr_points =    1024   r_max =   100.000
b_value =  6.30000    beta =  0.00901
     q_mesh =  0.00010000  0.00030000  0.00058939  0.00100810
               0.00161396  0.00249058  0.00375900  0.00559430
               0.00824984  0.01209221  0.01765183  0.02569619
               0.03733578  0.05417739  0.07854596  0.11380545
               0.16482331  0.23864234  0.34545298  0.50000000

Gradients computed in Reciprocal space

---------------------------------------------------------------------------------


     Starting wfcs are  213 randomized atomic wfcs

     total cpu time spent up to now is        4.7 secs

     Self-consistent Calculation

     iteration #  1     ecut=    80.00 Ry     beta= 0.70
     Davidson diagonalization with overlap
     ethr =  1.00E-02,  avg # of iterations =  2.0

     Threshold (ethr) on eigenvalues was too large:
     Diagonalizing with lowered threshold

     Davidson diagonalization with overlap
     ethr =  3.56E-04,  avg # of iterations =  4.0

     negative rho (up, down):  1.333E-08 0.000E+00

     total cpu time spent up to now is       27.3 secs

     total energy              =   -2205.58573371 Ry
     estimated scf accuracy    <       1.39536980 Ry

     iteration #  2     ecut=    80.00 Ry     beta= 0.70
     Davidson diagonalization with overlap
     ethr =  4.55E-04,  avg # of iterations =  1.0

     total cpu time spent up to now is       29.8 secs

     total energy              =   -2205.41394396 Ry
     estimated scf accuracy    <       0.56656511 Ry

     iteration #  3     ecut=    80.00 Ry     beta= 0.70
     Davidson diagonalization with overlap
     ethr =  1.85E-04,  avg # of iterations = 11.0

     total cpu time spent up to now is       33.2 secs

     total energy              =   -2205.51723100 Ry
     estimated scf accuracy    <       0.04834719 Ry

     iteration #  4     ecut=    80.00 Ry     beta= 0.70
     Davidson diagonalization with overlap
     c_bands:  1 eigenvalues not converged
     ethr =  1.57E-05,  avg # of iterations = 20.0

     total cpu time spent up to now is       37.2 secs

     total energy              =   -2205.51831219 Ry
     estimated scf accuracy    <       0.02406496 Ry

     iteration #  5     ecut=    80.00 Ry     beta= 0.70
     Davidson diagonalization with overlap
     ethr =  7.84E-06,  avg # of iterations =  8.0

     total cpu time spent up to now is       40.2 secs

     total energy              =   -2205.51773537 Ry
     estimated scf accuracy    <       0.01722891 Ry

     iteration #  6     ecut=    80.00 Ry     beta= 0.70
     Davidson diagonalization with overlap
     ethr =  5.61E-06,  avg # of iterations =  1.0

     total cpu time spent up to now is       42.7 secs

     total energy              =   -2205.51689052 Ry
     estimated scf accuracy    <       0.01043808 Ry

     iteration #  7     ecut=    80.00 Ry     beta= 0.70
     Davidson diagonalization with overlap
     ethr =  3.40E-06,  avg # of iterations =  1.0

     total cpu time spent up to now is       46.0 secs

     total energy              =   -2205.51557547 Ry
     estimated scf accuracy    <       0.00648634 Ry

     iteration #  8     ecut=    80.00 Ry     beta= 0.70
     Davidson diagonalization with overlap
     ethr =  2.11E-06,  avg # of iterations =  2.0

     negative rho (up, down):  1.143E-02 0.000E+00

     total cpu time spent up to now is       50.6 secs

     total energy              =   -2205.51491769 Ry
     estimated scf accuracy    <       0.00355576 Ry

     iteration #  9     ecut=    80.00 Ry     beta= 0.70
     Davidson diagonalization with overlap
     ethr =  1.16E-06,  avg # of iterations =  2.0

     negative rho (up, down):  2.966E-02 0.000E+00

     total cpu time spent up to now is       56.0 secs

     total energy              =   -2205.51487665 Ry
     estimated scf accuracy    <       0.00200208 Ry

     iteration # 10     ecut=    80.00 Ry     beta= 0.70
     Davidson diagonalization with overlap
     ethr =  6.52E-07,  avg # of iterations =  2.0

     negative rho (up, down):  2.555E-02 0.000E+00

     total cpu time spent up to now is       61.3 secs

     total energy              =   -2205.51498941 Ry
     estimated scf accuracy    <       0.00063634 Ry

     iteration # 11     ecut=    80.00 Ry     beta= 0.70
     Davidson diagonalization with overlap
     ethr =  2.07E-07,  avg # of iterations =  2.0

     negative rho (up, down):  9.719E-03 0.000E+00

     total cpu time spent up to now is       66.8 secs

     total energy              =   -2205.51503459 Ry
     estimated scf accuracy    <       0.00009417 Ry

     iteration # 12     ecut=    80.00 Ry     beta= 0.70
     Davidson diagonalization with overlap
     c_bands:  1 eigenvalues not converged
     ethr =  3.07E-08,  avg # of iterations = 20.0

     negative rho (up, down):  2.483E-03 0.000E+00

     total cpu time spent up to now is       75.3 secs

     total energy              =   -2205.51508505 Ry
     estimated scf accuracy    <       0.00001612 Ry

     iteration # 13     ecut=    80.00 Ry     beta= 0.70
     Davidson diagonalization with overlap
     ethr =  5.25E-09,  avg # of iterations =  2.0

     negative rho (up, down):  3.057E-04 0.000E+00

     total cpu time spent up to now is       86.9 secs

     total energy              =   -2205.51508600 Ry
     estimated scf accuracy    <       0.00000536 Ry

     iteration # 14     ecut=    80.00 Ry     beta= 0.70
     Davidson diagonalization with overlap
     ethr =  1.74E-09,  avg # of iterations =  2.0

     negative rho (up, down):  1.377E-04 0.000E+00

     total cpu time spent up to now is       89.5 secs

     End of self-consistent calculation

          k = 0.0000 0.0000 0.0000 (105382 PWs)   bands (ev):

   -62.8839 -62.8734 -62.8615 -62.8431 -62.8244 -62.8191 -62.8160 -62.7999
   -62.7833 -62.7785 -62.7507 -62.7256 -37.2155 -37.1535 -37.1416 -37.1380
   -37.1236 -37.0972 -37.0885 -37.0730 -37.0668 -37.0592 -37.0569 -37.0549
   -37.0279 -37.0218 -37.0116 -37.0054 -37.0019 -36.9984 -36.9891 -36.9869
   -36.9809 -36.9572 -36.9445 -36.9242 -36.9213 -36.9142 -36.8962 -36.8876
   -36.8764 -36.8734 -36.8576 -36.8458 -36.8380 -36.8076 -36.7430 -36.6897
   -15.9924 -15.2878 -15.1132 -14.9915 -14.8978 -14.8627 -14.6305 -14.5112
   -14.4443 -14.4357 -14.3756 -14.3264 -14.3103 -14.2808 -14.2006 -14.1251
   -14.1000 -14.0886 -14.0159 -13.8757 -13.8365 -13.8163 -13.7942  -7.7746
    -7.6454  -7.4461  -7.2988  -7.2721  -7.1990  -7.1853  -7.1523  -6.9953
    -6.8337  -6.8178  -6.7473  -6.7030  -6.5607  -6.5034  -6.4417  -6.4268
    -6.3838  -6.2263  -6.0805  -5.9769  -5.9152  -5.8929  -5.8389  -5.7462
    -5.7377  -5.7168  -5.6850  -5.6629  -5.6081  -5.5803  -5.5176  -5.4560
    -5.4087  -5.3808  -5.1531  -5.1213  -5.0808  -4.9983  -4.9855  -4.9477
    -4.9268  -4.8673  -4.6591  -4.6092  -4.3818  -4.3212  -4.2862  -4.2359
    -4.1636  -4.0339  -3.9798  -3.9078  -3.8164  -3.7621  -3.7363  -3.6861
    -3.6179  -3.5662  -3.5238  -3.4928  -3.4762  -3.4624  -3.4439  -3.3846
    -3.3516  -3.1804  -3.1264  -2.9423  -2.8787  -2.7970  -2.7765  -2.7187
    -2.7084  -2.6513  -2.6312  -2.6248  -2.5761  -2.3753  -2.0871  -1.9856
    -1.9331  -1.0833  -0.7137  -0.5536  -0.1682  -0.1404  -0.0775  -0.0421
     0.0643   0.1245   0.1568   0.2206   0.2643   0.2696   0.3844   0.4276
     0.4702   0.5218   0.5529   0.5594   0.6129   0.6833   0.7200   0.7481
     0.7938   0.8235   0.8674   0.8701   0.9294   0.9942   1.0394   1.0980
     1.3946

     the Fermi energy is    -1.0833 ev

!    total energy              =   -2205.51508946 Ry
     estimated scf accuracy    <       0.00000021 Ry
     smearing contrib. (-TS)   =      -0.00564541 Ry
     internal energy E=F+TS    =   -2205.50944405 Ry

     The total energy is F=E-TS. E is the sum of the following terms:
     one-electron contribution =  -18050.53267549 Ry
     hartree contribution      =    9012.08619612 Ry
     xc contribution           =    -385.21514432 Ry
     ewald contribution        =    7218.15217965 Ry

     convergence has been achieved in  14 iterations

     negative rho (up, down):  1.377E-04 0.000E+00

     Forces acting on atoms (cartesian axes, Ry/au):

     atom    1 type  1   force =     0.01162267   -0.03278039   -0.00468308
     atom    2 type  2   force =    -0.01300137    0.01712660    0.00236302
     atom    3 type  2   force =    -0.01184368    0.00999187   -0.00198700
     atom    4 type  1   force =     0.00699150   -0.00391096    0.00706589
     atom    5 type  2   force =     0.00062003   -0.00011670    0.02175754
     atom    6 type  2   force =     0.00349399    0.01048733    0.00154957
     atom    7 type  1   force =    -0.00213185    0.00376352   -0.00908965
     atom    8 type  2   force =     0.00150870   -0.00233102    0.01545189
     atom    9 type  2   force =     0.01391164    0.00446305    0.00841528
     atom   10 type  1   force =    -0.01168581    0.00872483   -0.02698471
     atom   11 type  2   force =     0.00355414   -0.00230882   -0.00641274
     atom   12 type  2   force =    -0.00030093   -0.00053520    0.00661882
     atom   13 type  1   force =     0.00611599    0.00227676   -0.01049276
     atom   14 type  2   force =     0.00776110   -0.00093321    0.01275056
     atom   15 type  2   force =    -0.01298226    0.00252670   -0.00922566
     atom   16 type  1   force =    -0.00626837    0.01172051    0.03487514
     atom   17 type  2   force =    -0.00664069   -0.00956843   -0.00149365
     atom   18 type  2   force =    -0.00377990   -0.00446600    0.01447967
     atom   19 type  1   force =     0.00994680    0.00608668   -0.00742404
     atom   20 type  2   force =     0.00251257   -0.00334324    0.00234507
     atom   21 type  1   force =    -0.00505557    0.00394104   -0.00064381
     atom   22 type  2   force =    -0.00213014   -0.00235198   -0.00281316
     atom   23 type  2   force =    -0.00092937    0.00066941    0.01129679
     atom   24 type  1   force =    -0.01095028   -0.00220466   -0.02269125
     atom   25 type  2   force =     0.01567393    0.01871301    0.00745541
     atom   26 type  2   force =    -0.01138731   -0.00014566   -0.00338981
     atom   27 type  1   force =    -0.00451898   -0.00669095    0.01011819
     atom   28 type  2   force =     0.00238620    0.00017114   -0.00667111
     atom   29 type  2   force =     0.00297570    0.00138321   -0.00374203
     atom   30 type  1   force =    -0.00332103    0.00949761   -0.00410691
     atom   31 type  2   force =    -0.00018990    0.00215910    0.01444116
     atom   32 type  2   force =    -0.01152232    0.00499403    0.00683753
     atom   33 type  1   force =     0.01314485   -0.00591183   -0.00880514
     atom   34 type  2   force =     0.00316782   -0.04232620   -0.01037303
     atom   35 type  2   force =    -0.00830881    0.00740889    0.01480888
     atom   36 type  3   force =     0.02156097   -0.00618004   -0.05160089
     The non-local contrib.  to forces
     atom    1 type  1   force =     0.00082002    0.03867447   -0.00973797
     atom    2 type  2   force =    -0.00982628    0.00132094   -0.27083079
     atom    3 type  2   force =    -0.01467002   -0.00275562    0.27191401
     atom    4 type  1   force =    -0.00591375    0.01060729   -0.00007100
     atom    5 type  2   force =    -0.12117268    0.10280922   -0.18380240
     atom    6 type  2   force =    -0.00315035    0.01086520    0.26242082
     atom    7 type  1   force =    -0.02040969   -0.00467824   -0.01733166
     atom    8 type  2   force =     0.00134264   -0.00453774   -0.25261941
     atom    9 type  2   force =     0.00953673   -0.01180002    0.27863880
     atom   10 type  1   force =     0.00653567    0.00101305    0.00075245
     atom   11 type  2   force =     0.01461772    0.00420454   -0.26060493
     atom   12 type  2   force =    -0.01145266   -0.01594476    0.26372594
     atom   13 type  1   force =    -0.00350555    0.02037036   -0.00787843
     atom   14 type  2   force =     0.01076125   -0.01244365   -0.26197508
     atom   15 type  2   force =    -0.01201004   -0.00221693    0.25933059
     atom   16 type  1   force =     0.00147936    0.03994004   -0.03249372
     atom   17 type  2   force =     0.00422278   -0.01099149   -0.24587674
     atom   18 type  2   force =    -0.00008783   -0.00207767    0.27464336
     atom   19 type  1   force =     0.01290660   -0.00925865   -0.00855774
     atom   20 type  2   force =     0.00005936   -0.02241357    0.26476143
     atom   21 type  1   force =     0.00290396    0.01862806    0.00686856
     atom   22 type  2   force =    -0.00826942    0.00229622   -0.26012665
     atom   23 type  2   force =     0.00559003   -0.01530272    0.26853807
     atom   24 type  1   force =     0.00611030    0.01202799   -0.01215752
     atom   25 type  2   force =     0.00887624    0.00474218   -0.25900409
     atom   26 type  2   force =    -0.00279789   -0.01384609    0.26415410
     atom   27 type  1   force =     0.00013026    0.01381138    0.00629961
     atom   28 type  2   force =    -0.00178133   -0.02549869   -0.27070824
     atom   29 type  2   force =     0.00689559    0.00387050    0.26298580
     atom   30 type  1   force =     0.00133985    0.01823324    0.00654518
     atom   31 type  2   force =    -0.00731772    0.00092102   -0.25065072
     atom   32 type  2   force =    -0.00540192   -0.01249569    0.27380005
     atom   33 type  1   force =    -0.00643292    0.00841755    0.00772736
     atom   34 type  2   force =    -0.00052497   -0.03939484   -0.27291832
     atom   35 type  2   force =    -0.00254860   -0.01279350    0.27161560
     atom   36 type  3   force =     0.00713216   -0.00738855   -0.01144260
     The ionic contribution  to forces
     atom    1 type  1   force =     0.50707941   -0.05986316    5.54807516
     atom    2 type  2   force =    -0.61925622    0.33914244   39.29039675
     atom    3 type  2   force =    -0.14791546   -0.00918464  -36.08369902
     atom    4 type  1   force =     0.40036573    0.53174873    0.42176304
     atom    5 type  2   force =    -0.33014621    0.90691896   38.37427079
     atom    6 type  2   force =     0.38109570   -0.54339944  -38.11519991
     atom    7 type  1   force =    -2.44896402   -2.43551231    2.29085633
     atom    8 type  2   force =    -0.77951703    0.16004602   37.33890916
     atom    9 type  2   force =     0.37768762   -0.00630798  -38.04485154
     atom   10 type  1   force =    -1.04859735   -0.28178518    5.68393347
     atom   11 type  2   force =    -0.52246986   -1.49423947   39.13817736
     atom   12 type  2   force =     0.45512949    0.72222730  -37.86131986
     atom   13 type  1   force =     0.35127889    0.74822833    2.74127328
     atom   14 type  2   force =     0.04870187   -0.14103916   38.51064819
     atom   15 type  2   force =     0.15534893   -0.10210232  -36.82160353
     atom   16 type  1   force =    -0.14658227    3.78877317   -0.59542436
     atom   17 type  2   force =     0.36168125    1.19549871   37.74428769
     atom   18 type  2   force =    -0.20076479   -0.68131273  -38.63773424
     atom   19 type  1   force =     2.53296959   -2.16949507    0.44218867
     atom   20 type  2   force =     0.22115342   -0.14735895  -38.57709135
     atom   21 type  1   force =     0.03086036    0.10544926    1.14913193
     atom   22 type  2   force =     0.41026926   -1.62083811   38.43165713
     atom   23 type  2   force =    -0.10087165    0.69206122  -38.29383217
     atom   24 type  1   force =    -0.53457836    1.02807141    5.83309300
     atom   25 type  2   force =     0.62248464    0.22757901   39.28006421
     atom   26 type  2   force =    -0.30155838    0.04200851  -37.32849987
     atom   27 type  1   force =    -0.18527116    0.37060632   -2.41157891
     atom   28 type  2   force =     0.07747999    0.95727717   38.20097884
     atom   29 type  2   force =    -0.25854793   -0.44772231  -37.28509420
     atom   30 type  1   force =    -0.31798086   -0.78667148   -0.06699727
     atom   31 type  2   force =     1.08538365    0.03488189   37.29944822
     atom   32 type  2   force =    -0.50791111    0.01915521  -38.66365933
     atom   33 type  1   force =     0.75297952   -0.82774338    2.09117261
     atom   34 type  2   force =     0.24437219   -1.40247661   39.36870375
     atom   35 type  2   force =    -0.29823438    0.49553162  -37.80456210
     atom   36 type  3   force =    -0.26715444    0.79184701    7.41211807
     The local contribution  to forces
     atom    1 type  1   force =    -0.49636305   -0.01156169   -5.54273093
     atom    2 type  2   force =     0.61583963   -0.32324917  -39.03787307
     atom    3 type  2   force =     0.15006500    0.02187652   35.83090597
     atom    4 type  1   force =    -0.38748770   -0.54615581   -0.41434946
     atom    5 type  2   force =     0.44557616   -1.00445844  -38.18466839
     atom    6 type  2   force =    -0.37482483    0.54414582   37.87533999
     atom    7 type  1   force =     2.46749392    2.44421954   -2.28238957
     atom    8 type  2   force =     0.77960749   -0.15837408  -37.09113946
     atom    9 type  2   force =    -0.37304086    0.02193521   37.79583425
     atom   10 type  1   force =     1.03038083    0.28923142   -5.71134113
     atom   11 type  2   force =     0.51210875    1.48819593  -38.90460009
     atom   12 type  2   force =    -0.44508155   -0.70823818   37.62523598
     atom   13 type  1   force =    -0.34159218   -0.76631853   -2.74363995
     atom   14 type  2   force =    -0.05111219    0.15245198  -38.25647358
     atom   15 type  2   force =    -0.15701161    0.10660531   36.57367656
     atom   16 type  1   force =     0.13880854   -3.81719534    0.66301922
     atom   17 type  2   force =    -0.37222637   -1.19473778  -37.51973304
     atom   18 type  2   force =     0.19720748    0.67950494   38.39877278
     atom   19 type  1   force =    -2.53619837    2.18513416   -0.44086341
     atom   20 type  2   force =    -0.21883234    0.16564154   38.33590315
     atom   21 type  1   force =    -0.03884972   -0.12028518   -1.15640248
     atom   22 type  2   force =    -0.40441060    1.61662680  -38.19488139
     atom   23 type  2   force =     0.09481982   -0.67741877   38.05767949
     atom   24 type  1   force =     0.51752173   -1.04238101   -5.84333142
     atom   25 type  2   force =    -0.61561978   -0.21331114  -39.03415295
     atom   26 type  2   force =     0.29314277   -0.02910905   37.08198707
     atom   27 type  1   force =     0.18062528   -0.39096311    2.41557765
     atom   28 type  2   force =    -0.07352236   -0.93339556  -37.95767213
     atom   29 type  2   force =     0.25522552    0.44594776   37.03903621
     atom   30 type  1   force =     0.31333982    0.77806691    0.05657403
     atom   31 type  2   force =    -1.07867653   -0.03364449  -37.05475233
     atom   32 type  2   force =     0.50177122   -0.00236273   38.41786094
     atom   33 type  1   force =    -0.73337484    0.81315123   -2.10741084
     atom   34 type  2   force =    -0.24103014    1.39826341  -39.12721668
     atom   35 type  2   force =     0.29258468   -0.47647584   37.56904559
     atom   36 type  3   force =     0.28158977   -0.79063897   -7.45226480
     The core correction contribution to forces
     atom    1 type  1   force =     0.00000000    0.00000000    0.00000000
     atom    2 type  2   force =     0.00024567   -0.00016106    0.02074592
     atom    3 type  2   force =     0.00067094    0.00000689   -0.02096337
     atom    4 type  1   force =     0.00000000    0.00000000    0.00000000
     atom    5 type  2   force =     0.00634252   -0.00540335    0.01607767
     atom    6 type  2   force =     0.00034606   -0.00110874   -0.02087421
     atom    7 type  1   force =     0.00000000    0.00000000    0.00000000
     atom    8 type  2   force =     0.00007345    0.00062885    0.02030220
     atom    9 type  2   force =    -0.00025558    0.00070971   -0.02106551
     atom   10 type  1   force =     0.00000000    0.00000000    0.00000000
     atom   11 type  2   force =    -0.00068589   -0.00047691    0.02065208
     atom   12 type  2   force =     0.00108939    0.00135321   -0.02084500
     atom   13 type  1   force =     0.00000000    0.00000000    0.00000000
     atom   14 type  2   force =    -0.00058381    0.00003936    0.02059468
     atom   15 type  2   force =     0.00067999    0.00017572   -0.02046295
     atom   16 type  1   force =     0.00000000    0.00000000    0.00000000
     atom   17 type  2   force =    -0.00029183    0.00064946    0.01988029
     atom   18 type  2   force =    -0.00013283   -0.00054653   -0.02107146
     atom   19 type  1   force =     0.00000000    0.00000000    0.00000000
     atom   20 type  2   force =     0.00011681    0.00085811   -0.02118950
     atom   21 type  1   force =     0.00000000    0.00000000    0.00000000
     atom   22 type  2   force =     0.00023824   -0.00041732    0.02056391
     atom   23 type  2   force =    -0.00049789    0.00127751   -0.02091765
     atom   24 type  1   force =     0.00000000    0.00000000    0.00000000
     atom   25 type  2   force =    -0.00007719   -0.00041247    0.02061447
     atom   26 type  2   force =    -0.00015277    0.00072728   -0.02088760
     atom   27 type  1   force =     0.00000000    0.00000000    0.00000000
     atom   28 type  2   force =     0.00020242    0.00177943    0.02074997
     atom   29 type  2   force =    -0.00057480   -0.00067096   -0.02055839
     atom   30 type  1   force =     0.00000000    0.00000000    0.00000000
     atom   31 type  2   force =     0.00040255    0.00009196    0.02039333
     atom   32 type  2   force =     0.00002007    0.00076549   -0.02103087
     atom   33 type  1   force =     0.00000000    0.00000000    0.00000000
     atom   34 type  2   force =     0.00037162    0.00127070    0.02109951
     atom   35 type  2   force =    -0.00006973    0.00107452   -0.02110939
     atom   36 type  3   force =     0.00000000    0.00000000    0.00000000
     The Hubbard contrib.    to forces
     atom    1 type  1   force =     0.00000000    0.00000000    0.00000000
     atom    2 type  2   force =     0.00000000    0.00000000    0.00000000
     atom    3 type  2   force =     0.00000000    0.00000000    0.00000000
     atom    4 type  1   force =     0.00000000    0.00000000    0.00000000
     atom    5 type  2   force =     0.00000000    0.00000000    0.00000000
     atom    6 type  2   force =     0.00000000    0.00000000    0.00000000
     atom    7 type  1   force =     0.00000000    0.00000000    0.00000000
     atom    8 type  2   force =     0.00000000    0.00000000    0.00000000
     atom    9 type  2   force =     0.00000000    0.00000000    0.00000000
     atom   10 type  1   force =     0.00000000    0.00000000    0.00000000
     atom   11 type  2   force =     0.00000000    0.00000000    0.00000000
     atom   12 type  2   force =     0.00000000    0.00000000    0.00000000
     atom   13 type  1   force =     0.00000000    0.00000000    0.00000000
     atom   14 type  2   force =     0.00000000    0.00000000    0.00000000
     atom   15 type  2   force =     0.00000000    0.00000000    0.00000000
     atom   16 type  1   force =     0.00000000    0.00000000    0.00000000
     atom   17 type  2   force =     0.00000000    0.00000000    0.00000000
     atom   18 type  2   force =     0.00000000    0.00000000    0.00000000
     atom   19 type  1   force =     0.00000000    0.00000000    0.00000000
     atom   20 type  2   force =     0.00000000    0.00000000    0.00000000
     atom   21 type  1   force =     0.00000000    0.00000000    0.00000000
     atom   22 type  2   force =     0.00000000    0.00000000    0.00000000
     atom   23 type  2   force =     0.00000000    0.00000000    0.00000000
     atom   24 type  1   force =     0.00000000    0.00000000    0.00000000
     atom   25 type  2   force =     0.00000000    0.00000000    0.00000000
     atom   26 type  2   force =     0.00000000    0.00000000    0.00000000
     atom   27 type  1   force =     0.00000000    0.00000000    0.00000000
     atom   28 type  2   force =     0.00000000    0.00000000    0.00000000
     atom   29 type  2   force =     0.00000000    0.00000000    0.00000000
     atom   30 type  1   force =     0.00000000    0.00000000    0.00000000
     atom   31 type  2   force =     0.00000000    0.00000000    0.00000000
     atom   32 type  2   force =     0.00000000    0.00000000    0.00000000
     atom   33 type  1   force =     0.00000000    0.00000000    0.00000000
     atom   34 type  2   force =     0.00000000    0.00000000    0.00000000
     atom   35 type  2   force =     0.00000000    0.00000000    0.00000000
     atom   36 type  3   force =     0.00000000    0.00000000    0.00000000
     The SCF correction term to forces
     atom    1 type  1   force =     0.00008604   -0.00003376   -0.00028233
     atom    2 type  2   force =    -0.00000443    0.00006970   -0.00006879
     atom    3 type  2   force =     0.00000561    0.00004497   -0.00013759
     atom    4 type  1   force =     0.00002696   -0.00011491   -0.00026969
     atom    5 type  2   force =     0.00002000    0.00001315   -0.00011313
     atom    6 type  2   force =     0.00002716   -0.00001926   -0.00013011
     atom    7 type  1   force =    -0.00025230   -0.00026922   -0.00021775
     atom    8 type  2   force =     0.00000189   -0.00009780    0.00000641
     atom    9 type  2   force =    -0.00001652   -0.00007761   -0.00013373
     atom   10 type  1   force =    -0.00000521    0.00026179   -0.00032249
     atom   11 type  2   force =    -0.00001683    0.00000335   -0.00003016
     atom   12 type  2   force =     0.00001414    0.00006347   -0.00017125
     atom   13 type  1   force =    -0.00006543   -0.00000714   -0.00024066
     atom   14 type  2   force =    -0.00000628    0.00005451   -0.00003665
     atom   15 type  2   force =     0.00001022    0.00006117   -0.00015932
     atom   16 type  1   force =     0.00002575    0.00019889   -0.00021899
     atom   17 type  2   force =    -0.00002678    0.00000892   -0.00004484
     atom   18 type  2   force =    -0.00000218   -0.00003776   -0.00012376
     atom   19 type  1   force =     0.00026871   -0.00029750   -0.00018456
     atom   20 type  2   force =     0.00001506   -0.00007411   -0.00003165
     atom   21 type  1   force =     0.00002957    0.00014515   -0.00023481
     atom   22 type  2   force =     0.00004212   -0.00002331   -0.00001915
     atom   23 type  2   force =     0.00003006    0.00004841   -0.00016394
     atom   24 type  1   force =    -0.00000421    0.00007320   -0.00028831
     atom   25 type  2   force =     0.00000977    0.00011167   -0.00005924
     atom   26 type  2   force =    -0.00002129    0.00006993   -0.00013651
     atom   27 type  1   force =    -0.00000360   -0.00014930   -0.00017315
     atom   28 type  2   force =     0.00000722    0.00000503   -0.00001255
     atom   29 type  2   force =    -0.00002293   -0.00004553   -0.00010444
     atom   30 type  1   force =    -0.00002010   -0.00013482   -0.00022183
     atom   31 type  2   force =     0.00001790   -0.00009504    0.00000967
     atom   32 type  2   force =    -0.00000083   -0.00007200   -0.00012626
     atom   33 type  1   force =    -0.00002716    0.00025902   -0.00028726
     atom   34 type  2   force =    -0.00002113    0.00000738   -0.00003428
     atom   35 type  2   force =    -0.00004104    0.00006833   -0.00017382
     atom   36 type  3   force =    -0.00000677   -0.00000328   -0.00000456

     Total force =     0.122719     Total SCF correction =     0.001288

     BFGS Geometry Optimization
     Energy error            =      0.0E+00 Ry
     Gradient error          =      5.2E-02 Ry/Bohr

     number of scf cycles    =   1
     number of bfgs steps    =   0

     energy             new  =   -2205.5150894604 Ry

     new trust radius        =       0.0562647365 bohr
     new conv_thr            =       0.0000010000 Ry


ATOMIC_POSITIONS (angstrom)
Mo            6.5806988583        1.7704595946        2.8211648536
S             8.1698293088        0.8187670308        4.4357888101
S             8.1869656791        0.8165292153        1.2768319532
Mo            8.0988623052        4.4929873534        2.7215575041
S             6.5002373601        3.7223497317        4.3581742420
S             6.5551987380        3.5172872141        1.1221002240
Mo            6.4888535726        7.2204288547        2.6670744485
S             8.0825260957        6.3426374721        4.2506383538
S             8.0882793680        6.3070640610        1.0883161757
Mo            8.1544351864        9.9067973940        2.8291820691
S             6.4970483676        8.9417050410        4.3797120574
S             6.6177879553        9.0484279993        1.1434098302
Mo            3.4248961058        1.7481606622        2.7709186330
S             4.9792724861        0.8164473783        4.3572803991
S             5.0509638388        0.8475991801        1.2217764521
Mo            4.9764396041        4.5193802319        2.6513396803
S             3.4243275583        3.6665362891        4.2789191736
S             3.4359203443        3.5458653929        1.0660139917
Mo            3.4591253583        7.2195454731        2.6267482267
S             4.9845637884        6.3251631202        1.0384946895
Mo            5.0095886265        9.9036855574        2.7430602702
S             3.4698308941        8.9425066553        4.3241026523
S             3.4079373620        9.0653442184        1.1020463041
Mo            0.2902958466        1.7463428733        2.8374370187
S             1.8587564969        0.8025965033        4.4021546744
S             1.8547741315        0.8543488358        1.2076070415
Mo            1.8582999702        4.4921260623        2.6655516980
S             0.2734765698        3.6544893872        4.3340538990
S             0.2328058781        3.5279811911        1.1700376852
Mo            0.2693947369        7.2216720107        2.6995231464
S             1.9021377579        6.3139413808        4.2300860534
S             1.8561408672        6.3129865380        1.0481775463
Mo            1.8513026174        9.9370107503        2.7682867736
S             0.2975892393        9.0675997650        4.4083802956
S             0.2723745666        9.0474463298        1.1582373023
H             5.2651651278        4.8540185511        5.0865634481



     Writing config-only to output data dir ./MoS2-V-O.save/
     NEW-OLD atomic charge density approx. for the potential

     negative rho (up, down):  1.424E-04 0.000E+00

     total cpu time spent up to now is       93.3 secs

     Self-consistent Calculation

     iteration #  1     ecut=    80.00 Ry     beta= 0.70
     Davidson diagonalization with overlap
     ethr =  1.00E-06,  avg # of iterations =  8.0

     negative rho (up, down):  1.212E-04 0.000E+00

     total cpu time spent up to now is      119.0 secs

     total energy              =   -2205.52798445 Ry
     estimated scf accuracy    <       0.00093604 Ry

     iteration #  2     ecut=    80.00 Ry     beta= 0.70
     Davidson diagonalization with overlap
     ethr =  3.05E-07,  avg # of iterations =  2.0

     negative rho (up, down):  1.181E-04 0.000E+00

     total cpu time spent up to now is      135.1 secs

     total energy              =   -2205.52801943 Ry
     estimated scf accuracy    <       0.00020843 Ry

     iteration #  3     ecut=    80.00 Ry     beta= 0.70
     Davidson diagonalization with overlap
     ethr =  6.79E-08,  avg # of iterations =  4.0

     negative rho (up, down):  1.156E-04 0.000E+00

     total cpu time spent up to now is      148.8 secs

     total energy              =   -2205.52804897 Ry
     estimated scf accuracy    <       0.00002828 Ry

     iteration #  4     ecut=    80.00 Ry     beta= 0.70
     Davidson diagonalization with overlap
     ethr =  9.21E-09,  avg # of iterations =  5.0

     negative rho (up, down):  1.143E-04 0.000E+00

     total cpu time spent up to now is      166.7 secs

     total energy              =   -2205.52806040 Ry
     estimated scf accuracy    <       0.00000413 Ry

     iteration #  5     ecut=    80.00 Ry     beta= 0.70
     Davidson diagonalization with overlap
     ethr =  1.34E-09,  avg # of iterations =  2.0

     negative rho (up, down):  1.131E-04 0.000E+00

     total cpu time spent up to now is      180.5 secs

     total energy              =   -2205.52806073 Ry
     estimated scf accuracy    <       0.00000112 Ry

     iteration #  6     ecut=    80.00 Ry     beta= 0.70
     Davidson diagonalization with overlap
     ethr =  3.64E-10,  avg # of iterations =  6.0

     negative rho (up, down):  1.382E-04 0.000E+00

     total cpu time spent up to now is      183.3 secs

     End of self-consistent calculation

          k = 0.0000 0.0000 0.0000 (105382 PWs)   bands (ev):

   -62.8861 -62.8740 -62.8559 -62.8410 -62.8248 -62.8195 -62.8116 -62.7970
   -62.7809 -62.7727 -62.7479 -62.7201 -37.2128 -37.1469 -37.1417 -37.1351
   -37.1184 -37.0975 -37.0901 -37.0734 -37.0627 -37.0572 -37.0552 -37.0495
   -37.0256 -37.0188 -37.0095 -37.0029 -36.9973 -36.9951 -36.9883 -36.9853
   -36.9795 -36.9551 -36.9452 -36.9221 -36.9192 -36.9101 -36.8949 -36.8849
   -36.8730 -36.8680 -36.8543 -36.8435 -36.8353 -36.8072 -36.7388 -36.6851
   -15.9915 -15.2930 -15.1081 -14.9905 -14.9023 -14.8539 -14.6334 -14.5174
   -14.4357 -14.4229 -14.3814 -14.3198 -14.3072 -14.2816 -14.2019 -14.1281
   -14.1018 -14.0848 -14.0153 -13.8610 -13.8337 -13.8199 -13.7983  -7.8109
    -7.6418  -7.4522  -7.3015  -7.2745  -7.1962  -7.1809  -7.1587  -6.9996
    -6.8402  -6.8137  -6.7455  -6.6937  -6.5650  -6.5009  -6.4415  -6.4234
    -6.3791  -6.2210  -6.0771  -5.9649  -5.9217  -5.8897  -5.8283  -5.7519
    -5.7406  -5.7119  -5.6810  -5.6599  -5.6086  -5.5850  -5.5121  -5.4524
    -5.3950  -5.3651  -5.1340  -5.1154  -5.0729  -4.9989  -4.9831  -4.9513
    -4.9300  -4.8792  -4.6616  -4.6051  -4.3791  -4.3205  -4.2747  -4.2300
    -4.1730  -4.0465  -3.9813  -3.9104  -3.8094  -3.7636  -3.7268  -3.6800
    -3.6229  -3.5512  -3.5384  -3.5049  -3.4770  -3.4607  -3.4404  -3.3778
    -3.3401  -3.1782  -3.1357  -2.9422  -2.8774  -2.7885  -2.7751  -2.7122
    -2.7042  -2.6566  -2.6421  -2.6242  -2.5827  -2.3695  -2.0854  -1.9927
    -1.9446  -1.0957  -0.7117  -0.4958  -0.1615  -0.1387  -0.0812  -0.0316
     0.0868   0.1205   0.1549   0.2212   0.2736   0.2834   0.3862   0.4361
     0.4775   0.5327   0.5589   0.5696   0.6227   0.6777   0.7254   0.7300
     0.7892   0.8281   0.8647   0.8836   0.9312   0.9985   1.0285   1.1079
     1.3991

     the Fermi energy is    -1.0958 ev

!    total energy              =   -2205.52806070 Ry
     estimated scf accuracy    <       0.00000036 Ry
     smearing contrib. (-TS)   =      -0.00564385 Ry
     internal energy E=F+TS    =   -2205.52241686 Ry

     The total energy is F=E-TS. E is the sum of the following terms:
     one-electron contribution =  -18052.07813445 Ry
     hartree contribution      =    9012.87248801 Ry
     xc contribution           =    -385.21671564 Ry
     ewald contribution        =    7218.89994522 Ry

     convergence has been achieved in   6 iterations

     negative rho (up, down):  1.382E-04 0.000E+00

     Forces acting on atoms (cartesian axes, Ry/au):

     atom    1 type  1   force =     0.00243785   -0.01582539   -0.00321325
     atom    2 type  2   force =    -0.00825359    0.01073308   -0.00101377
     atom    3 type  2   force =    -0.01040945    0.00736260   -0.00934092
     atom    4 type  1   force =     0.00490258   -0.00119645    0.00652319
     atom    5 type  2   force =     0.00185052   -0.00304545    0.01862918
     atom    6 type  2   force =     0.00102389    0.00853992    0.00804054
     atom    7 type  1   force =     0.00074324    0.00125687   -0.00207559
     atom    8 type  2   force =     0.00057506   -0.00133150    0.00983553
     atom    9 type  2   force =     0.01163064    0.00286907    0.00679480
     atom   10 type  1   force =    -0.00445575    0.00735559   -0.00891081
     atom   11 type  2   force =     0.00286989   -0.00105179   -0.00753842
     atom   12 type  2   force =    -0.00241225    0.00051536    0.00034233
     atom   13 type  1   force =     0.00474210    0.00028502   -0.00462953
     atom   14 type  2   force =     0.00579595   -0.00128512    0.00813290
     atom   15 type  2   force =    -0.00986855    0.00081503   -0.00921056
     atom   16 type  1   force =    -0.00217032    0.00807321    0.02557483
     atom   17 type  2   force =    -0.00714074   -0.00996435    0.00172346
     atom   18 type  2   force =    -0.00146195   -0.00078287    0.01423598
     atom   19 type  1   force =     0.00536576    0.00310485   -0.00121059
     atom   20 type  2   force =     0.00215925   -0.00483825    0.00166415
     atom   21 type  1   force =    -0.00383926    0.00303632    0.00222950
     atom   22 type  2   force =    -0.00073593   -0.00170603   -0.00219265
     atom   23 type  2   force =     0.00007925    0.00086110    0.00475056
     atom   24 type  1   force =    -0.00664592   -0.00146687   -0.00958504
     atom   25 type  2   force =     0.01073167    0.01409905   -0.00023843
     atom   26 type  2   force =    -0.00797153   -0.00093508   -0.00479113
     atom   27 type  1   force =    -0.00445527   -0.00264994    0.00702564
     atom   28 type  2   force =     0.00151855   -0.00237482   -0.00539148
     atom   29 type  2   force =     0.00184003    0.00257581   -0.00431770
     atom   30 type  1   force =    -0.00227763    0.00217010    0.00268895
     atom   31 type  2   force =     0.00056025    0.00240963    0.00846591
     atom   32 type  2   force =    -0.00907082    0.00356315    0.00659743
     atom   33 type  1   force =     0.00584615   -0.00161951    0.00080753
     atom   34 type  2   force =     0.00038753   -0.03088933   -0.01456236
     atom   35 type  2   force =    -0.00613152    0.00754871    0.00793356
     atom   36 type  3   force =     0.02224031   -0.00621174   -0.05377373
     The non-local contrib.  to forces
     atom    1 type  1   force =     0.00296342    0.03301191   -0.00915400
     atom    2 type  2   force =    -0.00651339   -0.00302603   -0.27092369
     atom    3 type  2   force =    -0.01239244   -0.00576413    0.26614475
     atom    4 type  1   force =    -0.00405570    0.01148267   -0.00054378
     atom    5 type  2   force =    -0.12584550    0.10752274   -0.18822478
     atom    6 type  2   force =    -0.00497954    0.00721305    0.26773500
     atom    7 type  1   force =    -0.02036581   -0.00501986   -0.01828985
     atom    8 type  2   force =     0.00051073   -0.00445430   -0.25692863
     atom    9 type  2   force =     0.00727931   -0.01272859    0.27807752
     atom   10 type  1   force =     0.00494980    0.00074500   -0.00026594
     atom   11 type  2   force =     0.01303689    0.00494235   -0.26122634
     atom   12 type  2   force =    -0.01248583   -0.01498112    0.26046669
     atom   13 type  1   force =    -0.00261045    0.02113622   -0.00786958
     atom   14 type  2   force =     0.00877086   -0.01279766   -0.26384547
     atom   15 type  2   force =    -0.00942925   -0.00400688    0.25882199
     atom   16 type  1   force =     0.00022121    0.04451879   -0.03067715
     atom   17 type  2   force =     0.00424357   -0.01044642   -0.24464235
     atom   18 type  2   force =     0.00117636   -0.00067903    0.27491880
     atom   19 type  1   force =     0.01356062   -0.00859212   -0.00923691
     atom   20 type  2   force =    -0.00026862   -0.02137292    0.26386995
     atom   21 type  1   force =     0.00197049    0.01863728    0.00522626
     atom   22 type  2   force =    -0.00654813    0.00268146   -0.25962430
     atom   23 type  2   force =     0.00640853   -0.01529814    0.26458509
     atom   24 type  1   force =     0.00402173    0.01269127   -0.01148103
     atom   25 type  2   force =     0.00522893    0.00101105   -0.26398177
     atom   26 type  2   force =    -0.00023681   -0.01387521    0.26385824
     atom   27 type  1   force =    -0.00064320    0.01268704    0.00625085
     atom   28 type  2   force =    -0.00237550   -0.02640434   -0.26998477
     atom   29 type  2   force =     0.00578168    0.00296850    0.26335775
     atom   30 type  1   force =     0.00107663    0.01889470    0.00573719
     atom   31 type  2   force =    -0.00631982    0.00038690   -0.25564080
     atom   32 type  2   force =    -0.00283980   -0.01308798    0.27422122
     atom   33 type  1   force =    -0.00443938    0.00647030    0.00581402
     atom   34 type  2   force =    -0.00282328   -0.03010483   -0.27693197
     atom   35 type  2   force =    -0.00139399   -0.01243433    0.26796783
     atom   36 type  3   force =     0.00782483   -0.00805154   -0.01220905
     The ionic contribution  to forces
     atom    1 type  1   force =     0.23100615    0.46274807    5.40401802
     atom    2 type  2   force =    -0.43929811    0.22936039   39.37307421
     atom    3 type  2   force =    -0.10796650    0.01742403  -36.22832930
     atom    4 type  1   force =     0.17084504    0.55969438    0.58265509
     atom    5 type  2   force =    -0.27902633    0.79876839   38.37028950
     atom    6 type  2   force =     0.25929298   -0.48867433  -37.96147792
     atom    7 type  1   force =    -2.31672090   -2.60047522    2.09483215
     atom    8 type  2   force =    -0.80472195    0.17852610   37.37462075
     atom    9 type  2   force =     0.33302359   -0.09072110  -37.98794511
     atom   10 type  1   force =    -0.74669833   -0.31489559    5.35704863
     atom   11 type  2   force =    -0.46683311   -1.49065536   39.12979693
     atom   12 type  2   force =     0.39568316    0.67681650  -37.90165550
     atom   13 type  1   force =     0.33682381    0.72611106    2.51379122
     atom   14 type  2   force =    -0.01414766   -0.09654937   38.58968144
     atom   15 type  2   force =     0.15243268   -0.03277626  -36.91341427
     atom   16 type  1   force =     0.03028604    3.66629513    0.18377959
     atom   17 type  2   force =     0.33942416    1.13791688   37.76347229
     atom   18 type  2   force =    -0.10512738   -0.56818120  -38.54888872
     atom   19 type  1   force =     2.34998611   -2.38450648    0.25075130
     atom   20 type  2   force =     0.21763956   -0.29116545  -38.60200256
     atom   21 type  1   force =     0.01411250    0.12771389    1.25289095
     atom   22 type  2   force =     0.38849750   -1.61169713   38.48140640
     atom   23 type  2   force =    -0.09927022    0.67076647  -38.32665759
     atom   24 type  1   force =    -0.32193570    0.88524377    5.47876494
     atom   25 type  2   force =     0.49619378    0.17073395   39.23806653
     atom   26 type  2   force =    -0.26614057    0.04278036  -37.31582253
     atom   27 type  1   force =    -0.12371413    0.54780468   -2.20767036
     atom   28 type  2   force =     0.07538002    0.87237311   38.19295185
     atom   29 type  2   force =    -0.25408363   -0.36357615  -37.34314627
     atom   30 type  1   force =    -0.26642818   -0.95792211   -0.11261281
     atom   31 type  2   force =     1.10224657    0.05070716   37.30156828
     atom   32 type  2   force =    -0.45901478   -0.04955159  -38.58727098
     atom   33 type  1   force =     0.51402699   -0.59336265    2.15839422
     atom   34 type  2   force =     0.18915877   -1.19083457   39.27337014
     atom   35 type  2   force =    -0.24133086    0.48789494  -37.75042946
     atom   36 type  3   force =    -0.28360108    0.81586532    7.42209893
     The local contribution  to forces
     atom    1 type  1   force =    -0.23133944   -0.51234649   -5.39873330
     atom    2 type  2   force =     0.43725769   -0.21561729  -39.12427329
     atom    3 type  2   force =     0.10928603   -0.00458035   35.97360766
     atom    4 type  1   force =    -0.16177835   -0.57220093   -0.57618008
     atom    5 type  2   force =     0.39994433   -0.90342522  -38.17969856
     atom    6 type  2   force =    -0.25357965    0.49083484   37.72247327
     atom    7 type  1   force =     2.33789519    2.60712800   -2.07924108
     atom    8 type  2   force =     0.80468540   -0.17590360  -37.12852618
     atom    9 type  2   force =    -0.32855627    0.10580002   37.73754694
     atom   10 type  1   force =     0.73707219    0.32143631   -5.36651466
     atom   11 type  2   force =     0.45725684    1.48520084  -38.89712405
     atom   12 type  2   force =    -0.38663092   -0.66258509   37.66220454
     atom   13 type  1   force =    -0.32947554   -0.74724430   -2.51116909
     atom   14 type  2   force =     0.01176071    0.10781034  -38.33864562
     atom   15 type  2   force =    -0.15342527    0.03717463   36.66566565
     atom   16 type  1   force =    -0.03268632   -3.70257731   -0.12798356
     atom   17 type  2   force =    -0.35046043   -1.13803928  -37.53725370
     atom   18 type  2   force =     0.10260058    0.56847481   38.30910383
     atom   19 type  1   force =    -2.35792842    2.39661756   -0.24338803
     atom   20 type  2   force =    -0.21520016    0.30712115   38.36077622
     atom   21 type  1   force =    -0.01973072   -0.14325723   -1.25656166
     atom   22 type  2   force =    -0.38283266    1.60793761  -38.24476699
     atom   23 type  2   force =     0.09348043   -0.65573098   38.08744001
     atom   24 type  1   force =     0.31112675   -0.89964927   -5.47753894
     atom   25 type  2   force =    -0.49066520   -0.15744374  -38.99522777
     atom   26 type  2   force =     0.25864845   -0.03066075   37.06782735
     atom   27 type  1   force =     0.11985754   -0.56337016    2.20793108
     atom   28 type  2   force =    -0.07171525   -0.85009970  -37.94934767
     atom   29 type  2   force =     0.25063252    0.36364716   37.09588747
     atom   30 type  1   force =     0.26278450    0.94161512    0.10903168
     atom   31 type  2   force =    -1.09587940   -0.04877712  -37.05805035
     atom   32 type  2   force =     0.45276401    0.06555564   38.34032370
     atom   33 type  1   force =    -0.50372992    0.58521065   -2.16408867
     atom   34 type  2   force =    -0.18637156    1.18898089  -39.03245115
     atom   35 type  2   force =     0.23659648   -0.46892510   37.51123752
     atom   36 type  3   force =     0.29802187   -0.81402636   -7.46372581
     The core correction contribution to forces
     atom    1 type  1   force =     0.00000000    0.00000000    0.00000000
     atom    2 type  2   force =     0.00020372   -0.00005444    0.02079373
     atom    3 type  2   force =     0.00059258    0.00015039   -0.02085440
     atom    4 type  1   force =     0.00000000    0.00000000    0.00000000
     atom    5 type  2   force =     0.00675664   -0.00588754    0.01607862
     atom    6 type  2   force =     0.00032537   -0.00089017   -0.02099205
     atom    7 type  1   force =     0.00000000    0.00000000    0.00000000
     atom    8 type  2   force =     0.00009497    0.00064866    0.02042135
     atom    9 type  2   force =    -0.00015715    0.00069382   -0.02105881
     atom   10 type  1   force =     0.00000000    0.00000000    0.00000000
     atom   11 type  2   force =    -0.00056081   -0.00050634    0.02066972
     atom   12 type  2   force =     0.00106785    0.00130115   -0.02075851
     atom   13 type  1   force =     0.00000000    0.00000000    0.00000000
     atom   14 type  2   force =    -0.00053991    0.00009293    0.02067146
     atom   15 type  2   force =     0.00057398    0.00027078   -0.02046865
     atom   16 type  1   force =     0.00000000    0.00000000    0.00000000
     atom   17 type  2   force =    -0.00035973    0.00053333    0.01986928
     atom   18 type  2   force =    -0.00011862   -0.00051738   -0.02109847
     atom   19 type  1   force =     0.00000000    0.00000000    0.00000000
     atom   20 type  2   force =     0.00013612    0.00070302   -0.02117853
     atom   21 type  1   force =     0.00000000    0.00000000    0.00000000
     atom   22 type  2   force =     0.00015183   -0.00045527    0.02058064
     atom   23 type  2   force =    -0.00050698    0.00128372   -0.02084197
     atom   24 type  1   force =     0.00000000    0.00000000    0.00000000
     atom   25 type  2   force =     0.00003178   -0.00025827    0.02073187
     atom   26 type  2   force =    -0.00024675    0.00071838   -0.02086281
     atom   27 type  1   force =     0.00000000    0.00000000    0.00000000
     atom   28 type  2   force =     0.00023838    0.00173239    0.02076525
     atom   29 type  2   force =    -0.00051033   -0.00055804   -0.02061013
     atom   30 type  1   force =     0.00000000    0.00000000    0.00000000
     atom   31 type  2   force =     0.00037167    0.00015502    0.02050122
     atom   32 type  2   force =    -0.00008608    0.00073681   -0.02101357
     atom   33 type  1   force =     0.00000000    0.00000000    0.00000000
     atom   34 type  2   force =     0.00041379    0.00096983    0.02122841
     atom   35 type  2   force =    -0.00009057    0.00106528   -0.02100632
     atom   36 type  3   force =     0.00000000    0.00000000    0.00000000
     The Hubbard contrib.    to forces
     atom    1 type  1   force =     0.00000000    0.00000000    0.00000000
     atom    2 type  2   force =     0.00000000    0.00000000    0.00000000
     atom    3 type  2   force =     0.00000000    0.00000000    0.00000000
     atom    4 type  1   force =     0.00000000    0.00000000    0.00000000
     atom    5 type  2   force =     0.00000000    0.00000000    0.00000000
     atom    6 type  2   force =     0.00000000    0.00000000    0.00000000
     atom    7 type  1   force =     0.00000000    0.00000000    0.00000000
     atom    8 type  2   force =     0.00000000    0.00000000    0.00000000
     atom    9 type  2   force =     0.00000000    0.00000000    0.00000000
     atom   10 type  1   force =     0.00000000    0.00000000    0.00000000
     atom   11 type  2   force =     0.00000000    0.00000000    0.00000000
     atom   12 type  2   force =     0.00000000    0.00000000    0.00000000
     atom   13 type  1   force =     0.00000000    0.00000000    0.00000000
     atom   14 type  2   force =     0.00000000    0.00000000    0.00000000
     atom   15 type  2   force =     0.00000000    0.00000000    0.00000000
     atom   16 type  1   force =     0.00000000    0.00000000    0.00000000
     atom   17 type  2   force =     0.00000000    0.00000000    0.00000000
     atom   18 type  2   force =     0.00000000    0.00000000    0.00000000
     atom   19 type  1   force =     0.00000000    0.00000000    0.00000000
     atom   20 type  2   force =     0.00000000    0.00000000    0.00000000
     atom   21 type  1   force =     0.00000000    0.00000000    0.00000000
     atom   22 type  2   force =     0.00000000    0.00000000    0.00000000
     atom   23 type  2   force =     0.00000000    0.00000000    0.00000000
     atom   24 type  1   force =     0.00000000    0.00000000    0.00000000
     atom   25 type  2   force =     0.00000000    0.00000000    0.00000000
     atom   26 type  2   force =     0.00000000    0.00000000    0.00000000
     atom   27 type  1   force =     0.00000000    0.00000000    0.00000000
     atom   28 type  2   force =     0.00000000    0.00000000    0.00000000
     atom   29 type  2   force =     0.00000000    0.00000000    0.00000000
     atom   30 type  1   force =     0.00000000    0.00000000    0.00000000
     atom   31 type  2   force =     0.00000000    0.00000000    0.00000000
     atom   32 type  2   force =     0.00000000    0.00000000    0.00000000
     atom   33 type  1   force =     0.00000000    0.00000000    0.00000000
     atom   34 type  2   force =     0.00000000    0.00000000    0.00000000
     atom   35 type  2   force =     0.00000000    0.00000000    0.00000000
     atom   36 type  3   force =     0.00000000    0.00000000    0.00000000
     The SCF correction term to forces
     atom    1 type  1   force =    -0.00019176    0.00075728    0.00064036
     atom    2 type  2   force =     0.00009702    0.00006660    0.00029961
     atom    3 type  2   force =     0.00007140    0.00012881    0.00007471
     atom    4 type  1   force =    -0.00010789   -0.00017642    0.00057629
     atom    5 type  2   force =     0.00002189   -0.00002766    0.00016873
     atom    6 type  2   force =    -0.00003474    0.00005268    0.00028657
     atom    7 type  1   force =    -0.00006472   -0.00037990    0.00060752
     atom    8 type  2   force =     0.00000643   -0.00015220    0.00023257
     atom    9 type  2   force =     0.00004168   -0.00017892    0.00015860
     atom   10 type  1   force =     0.00022110    0.00006603    0.00080549
     atom   11 type  2   force =    -0.00002941   -0.00003712    0.00032966
     atom   12 type  2   force =    -0.00004599   -0.00003992    0.00006946
     atom   13 type  1   force =     0.00000480    0.00027819    0.00060226
     atom   14 type  2   force =    -0.00004753    0.00015479    0.00025542
     atom   15 type  2   force =    -0.00002017    0.00014890    0.00016905
     atom   16 type  1   force =     0.00000926   -0.00016725    0.00044029
     atom   17 type  2   force =     0.00001221    0.00006730    0.00026228
     atom   18 type  2   force =     0.00000764    0.00011609    0.00018487
     atom   19 type  1   force =    -0.00025203   -0.00041796    0.00064738
     atom   20 type  2   force =    -0.00014713   -0.00012789    0.00018340
     atom   21 type  1   force =    -0.00019101   -0.00006147    0.00065829
     atom   22 type  2   force =    -0.00000396   -0.00017655    0.00019594
     atom   23 type  2   force =    -0.00003200   -0.00016382    0.00020935
     atom   24 type  1   force =     0.00014181    0.00024351    0.00065433
     atom   25 type  2   force =    -0.00005709    0.00005221    0.00015706
     atom   26 type  2   force =     0.00000467    0.00009829    0.00019295
     atom   27 type  1   force =     0.00004504    0.00022466    0.00049840
     atom   28 type  2   force =    -0.00000858    0.00001987    0.00020819
     atom   29 type  2   force =     0.00002030    0.00009050    0.00017781
     atom   30 type  1   force =     0.00028994   -0.00042146    0.00051722
     atom   31 type  2   force =     0.00014174   -0.00006618    0.00007190
     atom   32 type  2   force =     0.00010634   -0.00009357    0.00032139
     atom   33 type  1   force =    -0.00001102    0.00005834    0.00067230
     atom   34 type  2   force =     0.00001033    0.00009550    0.00020654
     atom   35 type  2   force =     0.00008793   -0.00005592    0.00014833
     atom   36 type  3   force =    -0.00000479   -0.00000301    0.00004654

     Total force =     0.095032     Total SCF correction =     0.002753
     Energy error            =      1.3E-02 Ry
     Gradient error          =      5.4E-02 Ry/Bohr

     number of scf cycles    =   2
     number of bfgs steps    =   1

     energy             old  =   -2205.5150894604 Ry
     energy             new  =   -2205.5280607034 Ry

     CASE: energy            _new < energy            _old

     new trust radius        =       0.0618912101 bohr
     new conv_thr            =       0.0000000538 Ry


ATOMIC_POSITIONS (angstrom)
Mo            6.5832203756        1.7594123863        2.8191678155
S             8.1645784303        0.8256227137        4.4356377124
S             8.1809111567        0.8210129695        1.2724765611
Mo            8.1018901010        4.4919734765        2.7253072277
S             6.5011284334        3.7209959668        4.3690797025
S             6.5560847310        3.5223504720        1.1258292322
Mo            6.4889145372        7.2214509102        2.6650281296
S             8.0829671256        6.3417612513        4.2568904878
S             8.0951287991        6.3088823066        1.0923536244
Mo            8.1510184405        9.9111200472        2.8218982854
S             6.4987536254        8.9409545850        4.3755973523
S             6.6166896578        9.0485878804        1.1443858190
Mo            3.4277441460        1.7485699391        2.7675742586
S             4.9827891124        0.8157658748        4.3624469261
S             5.0450051766        0.8482726942        1.2165756327
Mo            4.9747034787        4.5243920538        2.6669353610
S             3.4203593025        3.6609612501        4.2794907740
S             3.4348060642        3.5449641676        1.0740799370
Mo            3.4627253970        7.2216698906        2.6252900079
S             4.9858266504        6.3226185985        1.0395189437
Mo            5.0072698534        9.9055122510        2.7439603810
S             3.4692416191        8.9414631199        4.3227876164
S             3.4078563047        9.0658063635        1.1055441746
Mo            0.2860077203        1.7454228826        2.8303921936
S             1.8654303926        0.8111301862        4.4029796127
S             1.8498485800        0.8539194755        1.2050774291
Mo            1.8557772320        4.4901263299        2.6699030269
S             0.2744419298        3.6534664239        4.3308510687
S             0.2339861222        3.5292863873        1.1676723363
Mo            0.2679789926        7.2238107653        2.7001934047
S             1.9023604415        6.3152702610        4.2356098595
S             1.8507150729        6.3151762223        1.0519314355
Mo            1.8555127386        9.9355613036        2.7675437674
S             0.2981547211        9.0487378365        4.4006829783
S             0.2686420693        9.0516897934        1.1635728695
H             5.2776340360        4.8505162631        5.0564816316



     Writing config-only to output data dir ./MoS2-V-O.save/
     NEW-OLD atomic charge density approx. for the potential

     negative rho (up, down):  1.418E-04 0.000E+00

     total cpu time spent up to now is      187.2 secs

     Self-consistent Calculation

     iteration #  1     ecut=    80.00 Ry     beta= 0.70
     Davidson diagonalization with overlap
     ethr =  1.00E-06,  avg # of iterations =  7.0

     negative rho (up, down):  1.200E-04 0.000E+00

     total cpu time spent up to now is      200.9 secs

     total energy              =   -2205.53716066 Ry
     estimated scf accuracy    <       0.00045571 Ry

     iteration #  2     ecut=    80.00 Ry     beta= 0.70
     Davidson diagonalization with overlap
     ethr =  1.48E-07,  avg # of iterations =  4.0

     negative rho (up, down):  1.127E-04 0.000E+00

     total cpu time spent up to now is      215.2 secs

     total energy              =   -2205.53725197 Ry
     estimated scf accuracy    <       0.00011601 Ry

     iteration #  3     ecut=    80.00 Ry     beta= 0.70
     Davidson diagonalization with overlap
     ethr =  3.78E-08,  avg # of iterations =  4.0

     negative rho (up, down):  1.037E-04 0.000E+00

     total cpu time spent up to now is      229.6 secs

     total energy              =   -2205.53726022 Ry
     estimated scf accuracy    <       0.00002701 Ry

     iteration #  4     ecut=    80.00 Ry     beta= 0.70
     Davidson diagonalization with overlap
     ethr =  8.80E-09,  avg # of iterations =  4.0

     negative rho (up, down):  1.023E-04 0.000E+00

     total cpu time spent up to now is      246.0 secs

     total energy              =   -2205.53726658 Ry
     estimated scf accuracy    <       0.00000195 Ry

     iteration #  5     ecut=    80.00 Ry     beta= 0.70
     Davidson diagonalization with overlap
     ethr =  6.36E-10,  avg # of iterations = 14.0

     negative rho (up, down):  1.034E-04 0.000E+00

     total cpu time spent up to now is      261.7 secs

     total energy              =   -2205.53726762 Ry
     estimated scf accuracy    <       0.00000064 Ry

     iteration #  6     ecut=    80.00 Ry     beta= 0.70
     Davidson diagonalization with overlap
     ethr =  2.10E-10,  avg # of iterations =  2.0

     negative rho (up, down):  1.075E-04 0.000E+00

     total cpu time spent up to now is      274.5 secs

     total energy              =   -2205.53726757 Ry
     estimated scf accuracy    <       0.00000016 Ry

     iteration #  7     ecut=    80.00 Ry     beta= 0.70
     Davidson diagonalization with overlap
     ethr =  5.28E-11,  avg # of iterations =  3.0

     negative rho (up, down):  1.386E-04 0.000E+00

     total cpu time spent up to now is      277.1 secs

     End of self-consistent calculation

          k = 0.0000 0.0000 0.0000 (105382 PWs)   bands (ev):

   -62.8875 -62.8724 -62.8522 -62.8397 -62.8254 -62.8212 -62.8074 -62.7942
   -62.7775 -62.7645 -62.7444 -62.7144 -37.2106 -37.1418 -37.1414 -37.1329
   -37.1156 -37.0966 -37.0904 -37.0736 -37.0601 -37.0541 -37.0521 -37.0458
   -37.0239 -37.0169 -37.0075 -37.0025 -36.9949 -36.9920 -36.9853 -36.9841
   -36.9768 -36.9517 -36.9440 -36.9200 -36.9173 -36.9062 -36.8921 -36.8817
   -36.8699 -36.8627 -36.8508 -36.8404 -36.8322 -36.8064 -36.7319 -36.6802
   -15.9912 -15.2999 -15.1043 -14.9910 -14.9058 -14.8476 -14.6364 -14.5196
   -14.4317 -14.4148 -14.3854 -14.3156 -14.3033 -14.2804 -14.2011 -14.1293
   -14.1015 -14.0812 -14.0144 -13.8577 -13.8284 -13.8219 -13.7979  -7.8537
    -7.6399  -7.4567  -7.3003  -7.2760  -7.1986  -7.1763  -7.1592  -7.0035
    -6.8432  -6.8113  -6.7425  -6.6882  -6.5694  -6.4989  -6.4418  -6.4209
    -6.3762  -6.2176  -6.0760  -5.9574  -5.9254  -5.8883  -5.8209  -5.7579
    -5.7424  -5.7058  -5.6754  -5.6513  -5.6108  -5.5858  -5.5083  -5.4491
    -5.3866  -5.3580  -5.1261  -5.1119  -5.0679  -4.9985  -4.9800  -4.9521
    -4.9327  -4.8879  -4.6611  -4.6009  -4.3762  -4.3185  -4.2687  -4.2243
    -4.1791  -4.0507  -3.9831  -3.9133  -3.8074  -3.7623  -3.7181  -3.6734
    -3.6264  -3.5498  -3.5387  -3.5111  -3.4746  -3.4602  -3.4370  -3.3732
    -3.3327  -3.1791  -3.1423  -2.9423  -2.8760  -2.7838  -2.7719  -2.7102
    -2.7006  -2.6590  -2.6480  -2.6179  -2.5859  -2.3624  -2.0863  -1.9947
    -1.9490  -1.0999  -0.7097  -0.4390  -0.1578  -0.1379  -0.0837  -0.0245
     0.1036   0.1212   0.1494   0.2204   0.2792   0.2980   0.3860   0.4432
     0.4837   0.5377   0.5623   0.5788   0.6307   0.6756   0.7203   0.7296
     0.7867   0.8370   0.8652   0.8922   0.9338   0.9984   1.0218   1.1219
     1.3975

     the Fermi energy is    -1.0999 ev

!    total energy              =   -2205.53726746 Ry
     estimated scf accuracy    <       0.00000003 Ry
     smearing contrib. (-TS)   =      -0.00564340 Ry
     internal energy E=F+TS    =   -2205.53162406 Ry

     The total energy is F=E-TS. E is the sum of the following terms:
     one-electron contribution =  -18053.80929268 Ry
     hartree contribution      =    9013.75785187 Ry
     xc contribution           =    -385.22307688 Ry
     ewald contribution        =    7219.74289364 Ry

     convergence has been achieved in   7 iterations

     negative rho (up, down):  1.386E-04 0.000E+00

     Forces acting on atoms (cartesian axes, Ry/au):

     atom    1 type  1   force =    -0.00308247   -0.00525265   -0.00266165
     atom    2 type  2   force =    -0.00505567    0.00655993   -0.00220757
     atom    3 type  2   force =    -0.00873475    0.00534410   -0.01187973
     atom    4 type  1   force =     0.00328848    0.00024827    0.00573244
     atom    5 type  2   force =     0.00296083   -0.00444485    0.01622525
     atom    6 type  2   force =    -0.00057369    0.00727357    0.01157409
     atom    7 type  1   force =     0.00210983   -0.00004648    0.00087613
     atom    8 type  2   force =    -0.00008462   -0.00108071    0.00696617
     atom    9 type  2   force =     0.00938367    0.00169022    0.00576713
     atom   10 type  1   force =    -0.00130741    0.00621060   -0.00102018
     atom   11 type  2   force =     0.00235605   -0.00010192   -0.00689742
     atom   12 type  2   force =    -0.00333353    0.00115763   -0.00218830
     atom   13 type  1   force =     0.00313187   -0.00121575   -0.00173347
     atom   14 type  2   force =     0.00414218   -0.00143354    0.00518759
     atom   15 type  2   force =    -0.00745452   -0.00036878   -0.00816712
     atom   16 type  1   force =     0.00024859    0.00527895    0.01949028
     atom   17 type  2   force =    -0.00714774   -0.00953578    0.00378251
     atom   18 type  2   force =     0.00006244    0.00181715    0.01355700
     atom   19 type  1   force =     0.00261409    0.00148470    0.00162423
     atom   20 type  2   force =     0.00184518   -0.00553338    0.00224573
     atom   21 type  1   force =    -0.00259209    0.00240301    0.00221059
     atom   22 type  2   force =     0.00011219   -0.00115743   -0.00084966
     atom   23 type  2   force =     0.00035872    0.00085598    0.00151301
     atom   24 type  1   force =    -0.00432338   -0.00063249   -0.00394258
     atom   25 type  2   force =     0.00709555    0.01042833   -0.00363289
     atom   26 type  2   force =    -0.00529880   -0.00128046   -0.00435002
     atom   27 type  1   force =    -0.00404583   -0.00024593    0.00482030
     atom   28 type  2   force =     0.00086567   -0.00368531   -0.00356378
     atom   29 type  2   force =     0.00091461    0.00305999   -0.00380441
     atom   30 type  1   force =    -0.00146869   -0.00163266    0.00460416
     atom   31 type  2   force =     0.00112541    0.00186328    0.00528604
     atom   32 type  2   force =    -0.00681707    0.00255860    0.00643911
     atom   33 type  1   force =     0.00155048    0.00064159    0.00387611
     atom   34 type  2   force =    -0.00102771   -0.02180240   -0.01396654
     atom   35 type  2   force =    -0.00426551    0.00671539    0.00448100
     atom   36 type  3   force =     0.02244761   -0.00614077   -0.05539358
     The non-local contrib.  to forces
     atom    1 type  1   force =     0.00412222    0.02912822   -0.00844788
     atom    2 type  2   force =    -0.00425906   -0.00591882   -0.27027531
     atom    3 type  2   force =    -0.01034940   -0.00783072    0.26351073
     atom    4 type  1   force =    -0.00253586    0.01221920   -0.00078670
     atom    5 type  2   force =    -0.13085871    0.11291897   -0.19259042
     atom    6 type  2   force =    -0.00603432    0.00455690    0.27054199
     atom    7 type  1   force =    -0.02022271   -0.00525148   -0.01860765
     atom    8 type  2   force =     0.00006492   -0.00462881   -0.25896512
     atom    9 type  2   force =     0.00510641   -0.01355378    0.27758406
     atom   10 type  1   force =     0.00420664    0.00061685   -0.00041421
     atom   11 type  2   force =     0.01204010    0.00551144   -0.26079833
     atom   12 type  2   force =    -0.01272929   -0.01433192    0.25934069
     atom   13 type  1   force =    -0.00200668    0.02144195   -0.00760771
     atom   14 type  2   force =     0.00703126   -0.01305243   -0.26471138
     atom   15 type  2   force =    -0.00732232   -0.00527684    0.25884987
     atom   16 type  1   force =    -0.00055053    0.04842422   -0.02857954
     atom   17 type  2   force =     0.00439050   -0.00964453   -0.24411599
     atom   18 type  2   force =     0.00180115    0.00011941    0.27479633
     atom   19 type  1   force =     0.01391050   -0.00836126   -0.00943535
     atom   20 type  2   force =    -0.00052513   -0.02013400    0.26379983
     atom   21 type  1   force =     0.00125233    0.01848574    0.00438675
     atom   22 type  2   force =    -0.00553572    0.00306078   -0.25864903
     atom   23 type  2   force =     0.00665694   -0.01534343    0.26256968
     atom   24 type  1   force =     0.00281748    0.01309512   -0.01056287
     atom   25 type  2   force =     0.00252963   -0.00204343   -0.26617604
     atom   26 type  2   force =     0.00181810   -0.01357561    0.26441399
     atom   27 type  1   force =    -0.00138024    0.01208987    0.00644197
     atom   28 type  2   force =    -0.00286784   -0.02663523   -0.26888741
     atom   29 type  2   force =     0.00489053    0.00206966    0.26416998
     atom   30 type  1   force =     0.00083880    0.01920541    0.00556547
     atom   31 type  2   force =    -0.00575935   -0.00044359   -0.25821031
     atom   32 type  2   force =    -0.00055877   -0.01352739    0.27435932
     atom   33 type  1   force =    -0.00320200    0.00524007    0.00494547
     atom   34 type  2   force =    -0.00390118   -0.02267136   -0.27752545
     atom   35 type  2   force =    -0.00031868   -0.01306152    0.26634491
     atom   36 type  3   force =     0.00854088   -0.00879392   -0.01295926
     The ionic contribution  to forces
     atom    1 type  1   force =     0.06753912    0.78913913    5.24059309
     atom    2 type  2   force =    -0.32224019    0.16078699   39.41730234
     atom    3 type  2   force =    -0.07582227    0.03062337  -36.36158005
     atom    4 type  1   force =     0.00013746    0.55386530    0.70795186
     atom    5 type  2   force =    -0.23081684    0.71328416   38.39528549
     atom    6 type  2   force =     0.17403224   -0.44474488  -37.83700352
     atom    7 type  1   force =    -2.25253179   -2.67961541    1.94154026
     atom    8 type  2   force =    -0.83010186    0.19028471   37.41485741
     atom    9 type  2   force =     0.29019933   -0.13967543  -37.95548305
     atom   10 type  1   force =    -0.57610193   -0.33131515    5.17148348
     atom   11 type  2   force =    -0.43430752   -1.48452516   39.10123242
     atom   12 type  2   force =     0.36232548    0.64169039  -37.92980295
     atom   13 type  1   force =     0.31670056    0.71392172    2.31584622
     atom   14 type  2   force =    -0.05365373   -0.07073269   38.64912779
     atom   15 type  2   force =     0.15451126    0.00830593  -37.00686071
     atom   16 type  1   force =     0.12015854    3.59658075    0.82680166
     atom   17 type  2   force =     0.32092071    1.10270689   37.77782059
     atom   18 type  2   force =    -0.03576401   -0.48281202  -38.46172218
     atom   19 type  1   force =     2.24450584   -2.51889077    0.10607570
     atom   20 type  2   force =     0.21154946   -0.38321589  -38.61808238
     atom   21 type  1   force =     0.01805113    0.12586134    1.32425221
     atom   22 type  2   force =     0.37558710   -1.60490335   38.51066429
     atom   23 type  2   force =    -0.10703882    0.64881277  -38.34964631
     atom   24 type  1   force =    -0.19384263    0.78151639    5.21673760
     atom   25 type  2   force =     0.40617433    0.12714949   39.19793782
     atom   26 type  2   force =    -0.24208372    0.04295844  -37.32093967
     atom   27 type  1   force =    -0.04875729    0.65260738   -2.08044659
     atom   28 type  2   force =     0.07484204    0.81185246   38.18123830
     atom   29 type  2   force =    -0.25122845   -0.31880234  -37.40075930
     atom   30 type  1   force =    -0.22245143   -1.03537849   -0.12037134
[...]
     atom   27 type  1   force =    -0.00350068    0.00707776    0.00142664
     atom   28 type  2   force =     0.00045495   -0.01283351   -0.26902290
     atom   29 type  2   force =    -0.00028379   -0.00714880    0.26791595
     atom   30 type  1   force =     0.00035754    0.02120208   -0.00185104
     atom   31 type  2   force =    -0.00856906    0.00153213   -0.26512103
     atom   32 type  2   force =     0.00498716   -0.01211017    0.26746518
     atom   33 type  1   force =    -0.00208632    0.00989921    0.00149769
     atom   34 type  2   force =     0.00016717   -0.01129247   -0.27139905
     atom   35 type  2   force =     0.00062423   -0.01441345    0.26684056
     atom   36 type  3   force =     0.00024718    0.00115777   -0.01748530
     The ionic contribution  to forces
     atom    1 type  1   force =    -0.15405671    0.49008347    2.12996305
     atom    2 type  2   force =    -0.15182404    0.08296986   38.90326410
     atom    3 type  2   force =     0.08868890   -0.10400600  -37.59003098
     atom    4 type  1   force =    -0.19255052    0.53811238    0.90302975
     atom    5 type  2   force =    -0.76867194    1.10794264   38.53928519
     atom    6 type  2   force =     0.18389183   -0.18398311  -38.12994660
     atom    7 type  1   force =    -2.09893572   -1.67449463    2.46124093
     atom    8 type  2   force =    -1.11068513    0.05045967   38.50963959
     atom    9 type  2   force =     0.23199591    0.03114670  -37.79227123
     atom   10 type  1   force =    -0.27975615   -0.39911098    3.02232411
     atom   11 type  2   force =    -0.48945099   -1.28166968   38.78503913
     atom   12 type  2   force =     0.16943138    0.17976385  -37.93803621
     atom   13 type  1   force =     0.06799589    0.53897644    1.97882766
     atom   14 type  2   force =    -0.02397225   -0.01988382   38.56554812
     atom   15 type  2   force =     0.00028961   -0.11949334  -37.66633085
     atom   16 type  1   force =    -0.18261858    3.05315958    1.06916004
     atom   17 type  2   force =     0.73147860    1.13805002   38.41877352
     atom   18 type  2   force =    -0.18777201   -0.15627499  -38.08663846
     atom   19 type  1   force =     2.11511763   -1.91029377    2.14649566
     atom   20 type  2   force =    -0.03751789   -0.02392493  -38.48965071
     atom   21 type  1   force =     0.03573929   -0.30064769    1.08413900
     atom   22 type  2   force =     0.47773389   -1.28215999   38.81785050
     atom   23 type  2   force =    -0.16141183    0.21838572  -38.02649495
     atom   24 type  1   force =     0.03794511    0.37812406    2.13615742
     atom   25 type  2   force =     0.19104583    0.10836631   38.85940615
     atom   26 type  2   force =    -0.06018005   -0.07895022  -37.59458026
     atom   27 type  1   force =     0.34349170    0.53612379    0.95622051
     atom   28 type  2   force =     0.04535993    0.44375343   38.33816941
     atom   29 type  2   force =     0.02106095   -0.03453371  -37.66665154
     atom   30 type  1   force =     0.00639034   -0.54520631    2.89975838
     atom   31 type  2   force =     1.15974527    0.01750208   38.47136117
     atom   32 type  2   force =    -0.22959222   -0.01177604  -37.78632834
     atom   33 type  1   force =     0.23503590   -0.34218169    2.89789076
     atom   34 type  2   force =     0.00905504   -0.40183733   38.97142750
     atom   35 type  2   force =    -0.00649669    0.04867862  -37.37563927
     atom   36 type  3   force =    -0.01600029   -0.09117038    5.27762776
     The local contribution  to forces
     atom    1 type  1   force =     0.15266807   -0.50954459   -2.12542634
     atom    2 type  2   force =     0.15324146   -0.07061261  -38.65780701
     atom    3 type  2   force =    -0.08603557    0.11463747   37.34373808
     atom    4 type  1   force =     0.18864960   -0.54532206   -0.90430220
     atom    5 type  2   force =     0.76594152   -1.08948396  -38.30304274
     atom    6 type  2   force =    -0.18193139    0.19118071   37.88469564
     atom    7 type  1   force =     2.09380692    1.66310602   -2.44854065
     atom    8 type  2   force =     1.10322237   -0.05107951  -38.26647860
     atom    9 type  2   force =    -0.22818454   -0.01916764   37.54641094
     atom   10 type  1   force =     0.27837061    0.38885807   -3.02352502
     atom   11 type  2   force =     0.48455631    1.28596899  -38.54560955
     atom   12 type  2   force =    -0.16410064   -0.16691986   37.69435838
     atom   13 type  1   force =    -0.06650121   -0.56039317   -1.97378283
     atom   14 type  2   force =     0.02375101    0.03032841  -38.31769409
     atom   15 type  2   force =    -0.00005723    0.13077400   37.42283339
     atom   16 type  1   force =     0.18368550   -3.06489185   -1.05177775
     atom   17 type  2   force =    -0.72827694   -1.12046628  -38.18274818
     atom   18 type  2   force =     0.18480167    0.16292204   37.84113086
     atom   19 type  1   force =    -2.10996835    1.89918165   -2.13656366
     atom   20 type  2   force =     0.03757302    0.03724128   38.24744685
     atom   21 type  1   force =    -0.03488791    0.27757063   -1.08817836
     atom   22 type  2   force =    -0.47258421    1.28533524  -38.57856851
     atom   23 type  2   force =     0.15714792   -0.20554435   37.78353164
     atom   24 type  1   force =    -0.03766500   -0.39374323   -2.13514974
     atom   25 type  2   force =    -0.19209176   -0.09585050  -38.61344009
     atom   26 type  2   force =     0.05755889    0.08951649   37.34811768
     atom   27 type  1   force =    -0.33977871   -0.54337589   -0.95750362
     atom   28 type  2   force =    -0.04523487   -0.43097614  -38.08974398
     atom   29 type  2   force =    -0.02116026    0.04243090   37.41936428
     atom   30 type  1   force =    -0.00686938    0.52395504   -2.89855640
     atom   31 type  2   force =    -1.15189036   -0.01758538  -38.22841520
     atom   32 type  2   force =     0.22497054    0.02280308   37.54005777
     atom   33 type  1   force =    -0.23256870    0.33204995   -2.89930752
     atom   34 type  2   force =    -0.00867314    0.41197063  -38.72146225
     atom   35 type  2   force =     0.00655036   -0.03584831   37.12904963
     atom   36 type  3   force =     0.01608528    0.08975299   -5.26103532
     The core correction contribution to forces
     atom    1 type  1   force =     0.00000000    0.00000000    0.00000000
     atom    2 type  2   force =     0.00005189    0.00061336    0.02083183
     atom    3 type  2   force =     0.00013959    0.00047181   -0.02089989
     atom    4 type  1   force =     0.00000000    0.00000000    0.00000000
     atom    5 type  2   force =    -0.00029035    0.00091308    0.02047329
     atom    6 type  2   force =     0.00035817   -0.00000281   -0.02087386
     atom    7 type  1   force =     0.00000000    0.00000000    0.00000000
     atom    8 type  2   force =    -0.00046359    0.00000109    0.02080785
     atom    9 type  2   force =     0.00046666    0.00067146   -0.02088376
     atom   10 type  1   force =     0.00000000    0.00000000    0.00000000
     atom   11 type  2   force =    -0.00018850    0.00002824    0.02061386
     atom   12 type  2   force =     0.00049593    0.00088480   -0.02087750
     atom   13 type  1   force =     0.00000000    0.00000000    0.00000000
     atom   14 type  2   force =     0.00002078    0.00031593    0.02090163
     atom   15 type  2   force =     0.00003222    0.00050795   -0.02074498
     atom   16 type  1   force =     0.00000000    0.00000000    0.00000000
     atom   17 type  2   force =     0.00036047    0.00091261    0.02040856
     atom   18 type  2   force =    -0.00032239    0.00008962   -0.02089440
     atom   19 type  1   force =     0.00000000    0.00000000    0.00000000
     atom   20 type  2   force =    -0.00000669    0.00064204   -0.02088973
     atom   21 type  1   force =     0.00000000    0.00000000    0.00000000
     atom   22 type  2   force =     0.00016399    0.00001068    0.02063621
     atom   23 type  2   force =    -0.00047229    0.00089206   -0.02086517
     atom   24 type  1   force =     0.00000000    0.00000000    0.00000000
     atom   25 type  2   force =     0.00001353    0.00058938    0.02084843
     atom   26 type  2   force =    -0.00017909    0.00045007   -0.02091076
     atom   27 type  1   force =     0.00000000    0.00000000    0.00000000
     atom   28 type  2   force =    -0.00000786    0.00074857    0.02093115
     atom   29 type  2   force =     0.00003280    0.00021454   -0.02083805
     atom   30 type  1   force =     0.00000000    0.00000000    0.00000000
     atom   31 type  2   force =     0.00050293    0.00005949    0.02080392
     atom   32 type  2   force =    -0.00048252    0.00067427   -0.02089501
     atom   33 type  1   force =     0.00000000    0.00000000    0.00000000
     atom   34 type  2   force =    -0.00000094    0.00046966    0.02107553
     atom   35 type  2   force =    -0.00003897    0.00071064   -0.02089861
     atom   36 type  3   force =     0.00000000    0.00000000    0.00000000
     The Hubbard contrib.    to forces
     atom    1 type  1   force =     0.00000000    0.00000000    0.00000000
     atom    2 type  2   force =     0.00000000    0.00000000    0.00000000
     atom    3 type  2   force =     0.00000000    0.00000000    0.00000000
     atom    4 type  1   force =     0.00000000    0.00000000    0.00000000
     atom    5 type  2   force =     0.00000000    0.00000000    0.00000000
     atom    6 type  2   force =     0.00000000    0.00000000    0.00000000
     atom    7 type  1   force =     0.00000000    0.00000000    0.00000000
     atom    8 type  2   force =     0.00000000    0.00000000    0.00000000
     atom    9 type  2   force =     0.00000000    0.00000000    0.00000000
     atom   10 type  1   force =     0.00000000    0.00000000    0.00000000
     atom   11 type  2   force =     0.00000000    0.00000000    0.00000000
     atom   12 type  2   force =     0.00000000    0.00000000    0.00000000
     atom   13 type  1   force =     0.00000000    0.00000000    0.00000000
     atom   14 type  2   force =     0.00000000    0.00000000    0.00000000
     atom   15 type  2   force =     0.00000000    0.00000000    0.00000000
     atom   16 type  1   force =     0.00000000    0.00000000    0.00000000
     atom   17 type  2   force =     0.00000000    0.00000000    0.00000000
     atom   18 type  2   force =     0.00000000    0.00000000    0.00000000
     atom   19 type  1   force =     0.00000000    0.00000000    0.00000000
     atom   20 type  2   force =     0.00000000    0.00000000    0.00000000
     atom   21 type  1   force =     0.00000000    0.00000000    0.00000000
     atom   22 type  2   force =     0.00000000    0.00000000    0.00000000
     atom   23 type  2   force =     0.00000000    0.00000000    0.00000000
     atom   24 type  1   force =     0.00000000    0.00000000    0.00000000
     atom   25 type  2   force =     0.00000000    0.00000000    0.00000000
     atom   26 type  2   force =     0.00000000    0.00000000    0.00000000
     atom   27 type  1   force =     0.00000000    0.00000000    0.00000000
     atom   28 type  2   force =     0.00000000    0.00000000    0.00000000
     atom   29 type  2   force =     0.00000000    0.00000000    0.00000000
     atom   30 type  1   force =     0.00000000    0.00000000    0.00000000
     atom   31 type  2   force =     0.00000000    0.00000000    0.00000000
     atom   32 type  2   force =     0.00000000    0.00000000    0.00000000
     atom   33 type  1   force =     0.00000000    0.00000000    0.00000000
     atom   34 type  2   force =     0.00000000    0.00000000    0.00000000
     atom   35 type  2   force =     0.00000000    0.00000000    0.00000000
     atom   36 type  3   force =     0.00000000    0.00000000    0.00000000
     The SCF correction term to forces
     atom    1 type  1   force =     0.00001327    0.00000809   -0.00000818
     atom    2 type  2   force =     0.00000349   -0.00000387   -0.00000100
     atom    3 type  2   force =     0.00000216    0.00000088   -0.00000354
     atom    4 type  1   force =     0.00000444    0.00001132    0.00001153
     atom    5 type  2   force =     0.00001360    0.00000438   -0.00000492
     atom    6 type  2   force =     0.00000479   -0.00000194    0.00000420
     atom    7 type  1   force =     0.00000406   -0.00000166    0.00002402
     atom    8 type  2   force =     0.00000687   -0.00000128    0.00000076
     atom    9 type  2   force =     0.00000725   -0.00000535    0.00001034
     atom   10 type  1   force =     0.00001478   -0.00000638    0.00000946
     atom   11 type  2   force =     0.00000413   -0.00000636    0.00000268
     atom   12 type  2   force =     0.00000095    0.00000418   -0.00000088
     atom   13 type  1   force =    -0.00001444   -0.00000896   -0.00001323
     atom   14 type  2   force =     0.00000275   -0.00000561    0.00000121
     atom   15 type  2   force =     0.00000337    0.00000031   -0.00000541
     atom   16 type  1   force =     0.00001661   -0.00000043   -0.00000823
     atom   17 type  2   force =    -0.00000547    0.00000460    0.00000386
     atom   18 type  2   force =    -0.00000460    0.00000061   -0.00000947
     atom   19 type  1   force =    -0.00001724    0.00001321    0.00001849
     atom   20 type  2   force =    -0.00000336    0.00000610   -0.00000087
     atom   21 type  1   force =    -0.00000393   -0.00001600    0.00000327
     atom   22 type  2   force =    -0.00000384   -0.00001486   -0.00000086
     atom   23 type  2   force =    -0.00000383   -0.00000501    0.00000586
     atom   24 type  1   force =    -0.00000176    0.00000425   -0.00000687
     atom   25 type  2   force =    -0.00000656   -0.00000528   -0.00000542
     atom   26 type  2   force =    -0.00000526   -0.00000153   -0.00000229
     atom   27 type  1   force =    -0.00002638    0.00002574   -0.00000527
     atom   28 type  2   force =    -0.00000595    0.00000700   -0.00000257
     atom   29 type  2   force =    -0.00000036   -0.00000059    0.00000412
     atom   30 type  1   force =     0.00000997   -0.00000682    0.00001745
     atom   31 type  2   force =    -0.00000521    0.00000950   -0.00000231
     atom   32 type  2   force =    -0.00000115    0.00000147    0.00001287
     atom   33 type  1   force =     0.00000445   -0.00001417    0.00000048
     atom   34 type  2   force =    -0.00000262   -0.00000788    0.00000185
     atom   35 type  2   force =     0.00000103    0.00000174    0.00000349
     atom   36 type  3   force =    -0.00000126    0.00000339    0.00000119

     Total force =     0.005882     Total SCF correction =     0.000086
     Energy error            =      9.1E-05 Ry
     Gradient error          =      1.7E-03 Ry/Bohr

     bfgs converged in  33 scf cycles and  32 bfgs steps
     (criteria: energy <  1.0E-04 Ry, force <  1.0E-02 Ry/Bohr)

     End of BFGS Geometry Optimization

     Final energy             =   -2205.7084946737 Ry

     File ./MoS2-V-O.bfgs deleted, as requested
Begin final coordinates

ATOMIC_POSITIONS (angstrom)
Mo            6.5741292808        1.7149534435        2.7959427869
S             8.1428708985        0.8120091053        4.4067943452
S             8.1508378654        0.7965993974        1.2147579616
Mo            8.1396042652        4.4484688382        2.7650445896
S             6.5457098621        3.5981480981        4.3593650562
S             6.5838346642        3.5178504716        1.1563105671
Mo            6.5409878117        7.1587660375        2.7298338825
S             8.0932641965        6.2612406518        4.3636387708
S             8.1595567863        6.2814743294        1.1709306851
Mo            8.1407511163        9.8973943606        2.8167607986
S             6.5360289878        8.9368869169        4.3817071265
S             6.5958199958        9.0001948169        1.1747363246
Mo            3.4334213728        1.7181332959        2.7930430652
S             5.0034796455        0.7844125198        4.3784636480
S             5.0031583391        0.8024680734        1.2005309366
Mo            5.0134152633        4.4668889316        2.7037420730
S             3.4742976821        3.6024400191        4.3519484767
S             3.4315206007        3.5254653674        1.1544790799
Mo            3.4609669009        7.1711126071        2.7238732847
S             5.0040763349        6.2763844220        1.0922179785
Mo            4.9986248209        9.8729671475        2.7749208143
S             3.4600641502        8.9434559112        4.3818830092
S             3.4016575140        9.0049307042        1.1713333842
Mo            0.2740561519        1.7024093637        2.8063094874
S             1.8633107861        0.8130249865        4.4041380853
S             1.8508114345        0.7984395896        1.2132055793
Mo            1.8725505891        4.4518289075        2.7650807885
S             0.2773860760        3.5602339868        4.3647238662
S             0.2789824249        3.5201334381        1.1920101066
Mo            0.2730993041        7.1701350547        2.8020954463
S             1.9125803055        6.2666676492        4.3620945914
S             1.8450869065        6.2856047608        1.1701625810
Mo            1.8564430818        9.8986731388        2.8142744175
S             0.2699644926        8.9930481692        4.4104579840
S             0.2678078458        9.0056274152        1.2256961000
H             4.9959448138        6.2797633727        3.6982398979
End final coordinates



     Writing all to output data dir ./MoS2-V-O.save/
 
     init_run     :      2.58s CPU      4.24s WALL (       1 calls)
     electrons    :   3068.30s CPU   3444.92s WALL (      33 calls)
     update_pot   :     46.80s CPU     49.44s WALL (      32 calls)
     forces       :     49.42s CPU     59.27s WALL (      33 calls)

     Called by init_run:
     wfcinit      :      0.59s CPU      1.44s WALL (       1 calls)
     potinit      :      1.32s CPU      1.61s WALL (       1 calls)
     hinit0       :      0.16s CPU      0.59s WALL (       1 calls)

     Called by electrons:
     c_bands      :    394.61s CPU    401.63s WALL (     273 calls)
     sum_band     :     80.39s CPU    115.19s WALL (     273 calls)
     v_of_rho     :    131.47s CPU    165.23s WALL (     300 calls)
     newd         :     44.72s CPU     77.80s WALL (     300 calls)
     mix_rho      :   2432.66s CPU   2701.22s WALL (     273 calls)

     Called by c_bands:
     init_us_2    :      5.78s CPU      6.26s WALL (     547 calls)
     init_us_2:cp :      5.77s CPU      6.25s WALL (     547 calls)
     regterg      :    374.25s CPU    380.72s WALL (     273 calls)

     Called by *egterg:
     rdiaghg      :     28.81s CPU     29.98s WALL (    1588 calls)
     h_psi        :    195.78s CPU    197.65s WALL (    1627 calls)
     s_psi        :     23.83s CPU     23.91s WALL (    1627 calls)
     g_psi        :      2.34s CPU      2.36s WALL (    1353 calls)

     Called by h_psi:
     h_psi:calbec :     27.80s CPU     27.94s WALL (    1627 calls)
     vloc_psi     :    139.89s CPU    141.43s WALL (    1627 calls)
     add_vuspsi   :     23.75s CPU     23.91s WALL (    1627 calls)

     General routines
     calbec       :     39.45s CPU     39.66s WALL (    2032 calls)
     fft          :     82.47s CPU     96.98s WALL (   20219 calls)
     ffts         :   1087.93s CPU   1347.56s WALL (  595473 calls)
     fftw         :    119.35s CPU    120.48s WALL (  171437 calls)
     interpolate  :      2.15s CPU      2.67s WALL (     300 calls)
 
     Parallel routines
 
     PWSCF        :  52m53.48s CPU  59m29.29s WALL

 
   This run was terminated on:   3:40:45   4Nov2023            

=------------------------------------------------------------------------------=
   JOB DONE.
=------------------------------------------------------------------------------=
