
     Program PWSCF v.7.2 starts on  3Nov2023 at 23:39:57 

     This program is part of the open-source Quantum ESPRESSO suite
     for quantum simulation of materials; please cite
         "P. Giannozzi et al., J. Phys.:Condens. Matter 21 395502 (2009);
         "P. Giannozzi et al., J. Phys.:Condens. Matter 29 465901 (2017);
         "P. Giannozzi et al., J. Chem. Phys. 152 154105 (2020);
          URL http://www.quantum-espresso.org", 
     in publications or presentations arising from this work. More details at
     http://www.quantum-espresso.org/quote

     Parallel version (MPI & OpenMP), running on      48 processor cores
     Number of MPI processes:                48
     Threads/MPI process:                     1

     MPI processes distributed on     1 nodes
     47744 MiB available memory on the printing compute node when the environment starts
 
     Waiting for input...
     Reading input from standard input
Warning: card &CELL ignored
Warning: card CELL_DYNAMICS = 'BFGS', ignored
Warning: card CELL_DOFREE = '2DXY' ignored
Warning: card / ignored

     Current dimensions of program PWSCF are:
     Max number of different atomic species (ntypx) = 10
     Max number of k-points (npk) =  40000
     Max angular momentum in pseudopotentials (lmaxx) =  4

     IMPORTANT: XC functional enforced from input :
     Exchange-correlation= RVV10
                           (   1   4  13   4  26   0   0)
     Any further DFT definition will be discarded
     Please, verify this is what you really want


     gamma-point specific algorithms are used
     signal trapping enabled: kill the code with -SIGUSR1 to stop cleanly the simulation 
 
     R & G space division:  proc/nbgrp/npool/nimage =      48
     Subspace diagonalization in iterative solution of the eigenvalue problem:
     one sub-group per band group will be used
     scalapack distributed-memory algorithm (size of sub-group:  2*  2 procs)

 
     Parallelization info
     --------------------
     sticks:   dense  smooth     PW     G-vecs:    dense   smooth      PW
     Min         243     194     47                49060    35090    4376
     Max         246     196     50                49086    35128    4410
     Sum       11735    9389   2349              2355467  1685513  210763
 
     Using Slab Decomposition
 


     bravais-lattice index     =            0
     lattice parameter (alat)  =      17.8707  a.u.
     unit-cell volume          =   17436.2743 (a.u.)^3
     number of atoms/cell      =           36
     number of atomic types    =            3
     number of electrons       =       307.00
     number of Kohn-Sham states=          185
     kinetic-energy cutoff     =      80.0000  Ry
     charge density cutoff     =     400.0000  Ry
     scf convergence threshold =      1.0E-06
     mixing beta               =       0.7000
     number of iterations used =            8  local-TF  mixing
     energy convergence thresh.=      1.0E-04
     force convergence thresh. =      1.0E-02
     Exchange-correlation= RVV10
                           (   1   4  13   4  26   0   0)
     nstep                     =          200


     celldm(1)=  17.870686  celldm(2)=   0.000000  celldm(3)=   0.000000
     celldm(4)=   0.000000  celldm(5)=   0.000000  celldm(6)=   0.000000

     crystal axes: (cart. coord. in units of alat)
               a(1) = (   1.000000   0.000000   0.000000 )  
               a(2) = (   0.000000   1.155671   0.000000 )  
               a(3) = (   0.000000   0.000000   2.643601 )  

     reciprocal axes: (cart. coord. in units 2 pi/alat)
               b(1) = (  1.000000  0.000000  0.000000 )  
               b(2) = (  0.000000  0.865298  0.000000 )  
               b(3) = (  0.000000  0.000000  0.378272 )  


     PseudoPot. # 1 for Mo read from file:
     ../pseudo/Mo_ONCV_PBE-1.0.oncvpsp.upf
     MD5 check sum: 1b5d28e075c9ccadda658a603575cd1f
     Pseudo is Norm-conserving, Zval = 14.0
     Generated using ONCVPSP code by D. R. Hamann
     Using radial grid of 1526 points,  6 beta functions with: 
                l(1) =   0
                l(2) =   0
                l(3) =   1
                l(4) =   1
                l(5) =   2
                l(6) =   2

     PseudoPot. # 2 for S  read from file:
     ../pseudo/s_pbe_v1.4.uspp.F.UPF
     MD5 check sum: 88d86576ff6df21479756cfb9bdac1df
     Pseudo is Ultrasoft + core correction, Zval =  6.0
     Generated by new atomic code, or converted to UPF format
     Using radial grid of  907 points,  6 beta functions with: 
                l(1) =   0
                l(2) =   0
                l(3) =   1
                l(4) =   1
                l(5) =   2
                l(6) =   2
     Q(r) pseudized with  8 coefficients,  rinner =    1.300   1.300   1.300
                                                       1.300   1.300

     PseudoPot. # 3 for H  read from file:
     ../pseudo/H_ONCV_PBE-1.0.oncvpsp.upf
     MD5 check sum: 1790becc920ee074925cf490c71280fe
     Pseudo is Norm-conserving, Zval =  1.0
     Generated using ONCVPSP code by D. R. Hamann
     Using radial grid of 1166 points,  2 beta functions with: 
                l(1) =   0
                l(2) =   0

     atomic species   valence    mass     pseudopotential
        Mo            14.00    95.94000     Mo( 1.00)
        S              6.00    32.06500     S ( 1.00)
        H              1.00     1.00794     H ( 1.00)

     No symmetry found



   Cartesian axes

     site n.     atom                  positions (alat units)
         1           Mo  tau(   1) = (   0.6952221   0.1890506   0.2985846  )
         2           S   tau(   2) = (   0.8646417   0.0856217   0.4689279  )
         3           S   tau(   3) = (   0.8663890   0.0857843   0.1351291  )
         4           Mo  tau(   4) = (   0.8560186   0.4753274   0.2873942  )
         5           S   tau(   5) = (   0.6873294   0.3936244   0.4596353  )
         6           S   tau(   6) = (   0.6929804   0.3713468   0.1185692  )
         7           Mo  tau(   7) = (   0.6862796   0.7633098   0.2825370  )
         8           S   tau(   8) = (   0.8545980   0.6708292   0.4486168  )
         9           S   tau(   9) = (   0.8545123   0.6666874   0.1146125  )
        10           Mo  tau(  10) = (   0.8629403   1.0471007   0.3006803  )
        11           S   tau(  11) = (   0.6868280   0.9456650   0.4634891  )
        12           S   tau(  12) = (   0.6998113   0.9568511   0.1205389  )
        13           Mo  tau(  13) = (   0.3618216   0.1847309   0.2935964  )
        14           S   tau(  14) = (   0.5260962   0.0863870   0.4600448  )
        15           S   tau(  15) = (   0.5348379   0.0894875   0.1297123  )
        16           Mo  tau(  16) = (   0.5265817   0.4772436   0.2784130  )
        17           S   tau(  17) = (   0.3624753   0.3882513   0.4525556  )
        18           S   tau(  18) = (   0.3635411   0.3752055   0.1119148  )
        19           Mo  tau(  19) = (   0.3652268   0.7630864   0.2781795  )
        20           S   tau(  20) = (   0.5269494   0.6690381   0.1096838  )
        21           Mo  tau(  21) = (   0.5300192   1.0470394   0.2900995  )
        22           S   tau(  22) = (   0.3670346   0.9457522   0.4574073  )
        23           S   tau(  23) = (   0.3604225   0.9585725   0.1159032  )
        24           Mo  tau(  24) = (   0.0313099   0.1847895   0.3013130  )
        25           S   tau(  25) = (   0.1956761   0.0838230   0.4650863  )
        26           S   tau(  26) = (   0.1967693   0.0903508   0.1278874  )
        27           Mo  tau(  27) = (   0.1967578   0.4753919   0.2813011  )
        28           S   tau(  28) = (   0.0287851   0.3864324   0.4586755  )
        29           S   tau(  29) = (   0.0244514   0.3729871   0.1239344  )
        30           Mo  tau(  30) = (   0.0286728   0.7631204   0.2856894  )
        31           S   tau(  31) = (   0.2011512   0.6675435   0.4465001  )
        32           S   tau(  32) = (   0.1969214   0.6672839   0.1104564  )
        33           Mo  tau(  33) = (   0.1950294   1.0511147   0.2932237  )
        34           S   tau(  34) = (   0.0312912   0.9612169   0.4667423  )
        35           S   tau(  35) = (   0.0292670   0.9563028   0.1216485  )
        36           H   tau(  36) = (   0.8888889   0.2568157   0.5407634  )

     number of k points=     1  Gaussian smearing, width (Ry)=  0.0100
                       cart. coord. in units 2pi/alat
        k(    1) = (   0.0000000   0.0000000   0.0000000), wk =   2.0000000

     Dense  grid:  1177734 G-vectors     FFT dimensions: ( 120, 135, 320)

     Smooth grid:   842757 G-vectors     FFT dimensions: ( 108, 120, 270)

     Estimated max dynamical RAM per process >     146.59 MB

     Estimated total dynamical RAM >       6.87 GB

     Initial potential from superposition of free atoms

     starting charge     306.9873, renormalised to     307.0000

     negative rho (up, down):  1.418E-04 0.000E+00


---------------------------------------------------------------------------------
Carrying out rVV10 run using the following parameters:
Nqs =      20    Nr_points =    1024   r_max =   100.000
b_value =  6.30000    beta =  0.00901
     q_mesh =  0.00010000  0.00030000  0.00058939  0.00100810
               0.00161396  0.00249058  0.00375900  0.00559430
               0.00824984  0.01209221  0.01765183  0.02569619
               0.03733578  0.05417739  0.07854596  0.11380545
               0.16482331  0.23864234  0.34545298  0.50000000

Gradients computed in Reciprocal space

---------------------------------------------------------------------------------


     Starting wfcs are  213 randomized atomic wfcs

     total cpu time spent up to now is        3.0 secs

     Self-consistent Calculation

     iteration #  1     ecut=    80.00 Ry     beta= 0.70
     Davidson diagonalization with overlap
     ethr =  1.00E-02,  avg # of iterations =  2.0

     Threshold (ethr) on eigenvalues was too large:
     Diagonalizing with lowered threshold

     Davidson diagonalization with overlap
     ethr =  3.54E-04,  avg # of iterations =  4.0

     negative rho (up, down):  1.722E-08 0.000E+00

     total cpu time spent up to now is       20.3 secs

     total energy              =   -2205.57965010 Ry
     estimated scf accuracy    <       1.37450106 Ry

     iteration #  2     ecut=    80.00 Ry     beta= 0.70
     Davidson diagonalization with overlap
     ethr =  4.48E-04,  avg # of iterations =  2.0

     total cpu time spent up to now is       22.8 secs

     total energy              =   -2205.43890419 Ry
     estimated scf accuracy    <       0.55727820 Ry

     iteration #  3     ecut=    80.00 Ry     beta= 0.70
     Davidson diagonalization with overlap
     ethr =  1.82E-04,  avg # of iterations =  2.0

     total cpu time spent up to now is       25.2 secs

     total energy              =   -2205.50320876 Ry
     estimated scf accuracy    <       0.13055271 Ry

     iteration #  4     ecut=    80.00 Ry     beta= 0.70
     Davidson diagonalization with overlap
     ethr =  4.25E-05,  avg # of iterations = 15.0

     total cpu time spent up to now is       28.2 secs

     total energy              =   -2205.51358337 Ry
     estimated scf accuracy    <       0.03059434 Ry

     iteration #  5     ecut=    80.00 Ry     beta= 0.70
     Davidson diagonalization with overlap
     ethr =  9.97E-06,  avg # of iterations =  3.0

     total cpu time spent up to now is       30.5 secs

     total energy              =   -2205.51428837 Ry
     estimated scf accuracy    <       0.01890405 Ry

     iteration #  6     ecut=    80.00 Ry     beta= 0.70
     Davidson diagonalization with overlap
     ethr =  6.16E-06,  avg # of iterations =  2.0

     total cpu time spent up to now is       32.6 secs

     total energy              =   -2205.51322485 Ry
     estimated scf accuracy    <       0.01242858 Ry

     iteration #  7     ecut=    80.00 Ry     beta= 0.70
     Davidson diagonalization with overlap
     ethr =  4.05E-06,  avg # of iterations =  2.0

     negative rho (up, down):  9.642E-06 0.000E+00

     total cpu time spent up to now is       37.7 secs

     total energy              =   -2205.51151034 Ry
     estimated scf accuracy    <       0.00721078 Ry

     iteration #  8     ecut=    80.00 Ry     beta= 0.70
     Davidson diagonalization with overlap
     c_bands:  1 eigenvalues not converged
     ethr =  2.35E-06,  avg # of iterations = 20.0

     negative rho (up, down):  5.782E-03 0.000E+00

     total cpu time spent up to now is       43.0 secs

     total energy              =   -2205.51128269 Ry
     estimated scf accuracy    <       0.00338600 Ry

     iteration #  9     ecut=    80.00 Ry     beta= 0.70
     Davidson diagonalization with overlap
     ethr =  1.10E-06,  avg # of iterations =  2.0

     negative rho (up, down):  3.076E-02 0.000E+00

     total cpu time spent up to now is       47.8 secs

     total energy              =   -2205.51126774 Ry
     estimated scf accuracy    <       0.00206388 Ry

     iteration # 10     ecut=    80.00 Ry     beta= 0.70
     Davidson diagonalization with overlap
     ethr =  6.72E-07,  avg # of iterations =  2.0

     negative rho (up, down):  2.899E-02 0.000E+00

     total cpu time spent up to now is       51.6 secs

     total energy              =   -2205.51131528 Ry
     estimated scf accuracy    <       0.00079639 Ry

     iteration # 11     ecut=    80.00 Ry     beta= 0.70
     Davidson diagonalization with overlap
     ethr =  2.59E-07,  avg # of iterations =  2.0

     negative rho (up, down):  1.436E-02 0.000E+00

     total cpu time spent up to now is       56.7 secs

     total energy              =   -2205.51135343 Ry
     estimated scf accuracy    <       0.00019516 Ry

     iteration # 12     ecut=    80.00 Ry     beta= 0.70
     Davidson diagonalization with overlap
     ethr =  6.36E-08,  avg # of iterations =  2.0

     negative rho (up, down):  2.596E-03 0.000E+00

     total cpu time spent up to now is       63.4 secs

     total energy              =   -2205.51141657 Ry
     estimated scf accuracy    <       0.00002648 Ry

     iteration # 13     ecut=    80.00 Ry     beta= 0.70
     Davidson diagonalization with overlap
     c_bands:  1 eigenvalues not converged
     ethr =  8.63E-09,  avg # of iterations = 20.0

     negative rho (up, down):  4.991E-04 0.000E+00

     total cpu time spent up to now is       73.8 secs

     total energy              =   -2205.51142540 Ry
     estimated scf accuracy    <       0.00000219 Ry

     iteration # 14     ecut=    80.00 Ry     beta= 0.70
     Davidson diagonalization with overlap
     ethr =  7.15E-10,  avg # of iterations =  4.0

     negative rho (up, down):  1.379E-04 0.000E+00

     total cpu time spent up to now is       76.1 secs

     End of self-consistent calculation

          k = 0.0000 0.0000 0.0000 (105382 PWs)   bands (ev):

   -62.8908 -62.8679 -62.8557 -62.8505 -62.8383 -62.8310 -62.8213 -62.8111
   -62.8001 -62.7784 -62.7746 -62.7657 -37.2384 -37.1694 -37.1511 -37.1458
   -37.1384 -37.1085 -37.0871 -37.0829 -37.0665 -37.0646 -37.0581 -37.0380
   -37.0355 -37.0292 -37.0213 -37.0198 -37.0107 -37.0054 -37.0033 -36.9911
   -36.9755 -36.9686 -36.9559 -36.9450 -36.9359 -36.9252 -36.9214 -36.9160
   -36.9027 -36.8853 -36.8790 -36.8522 -36.8355 -36.8148 -36.7601 -36.7255
   -16.0357 -15.2359 -15.1932 -15.0447 -14.9768 -14.8301 -14.5872 -14.5436
   -14.4787 -14.4623 -14.4255 -14.3757 -14.3594 -14.2970 -14.1797 -14.1741
   -14.1450 -14.1151 -14.0325 -13.9574 -13.8567 -13.8325 -13.8110  -8.1843
    -7.6025  -7.4711  -7.3239  -7.2825  -7.2644  -7.2006  -7.1734  -6.9647
    -6.8387  -6.8057  -6.7534  -6.6897  -6.5721  -6.5355  -6.4912  -6.4468
    -6.3311  -6.2674  -6.0633  -5.9746  -5.9443  -5.8811  -5.8551  -5.7978
    -5.7677  -5.7307  -5.6830  -5.6746  -5.6230  -5.5660  -5.5603  -5.5071
    -5.4576  -5.3841  -5.2189  -5.1630  -5.0683  -5.0421  -4.9933  -4.9800
    -4.9383  -4.8328  -4.6727  -4.5256  -4.3486  -4.3292  -4.2729  -4.2625
    -4.2310  -4.0552  -4.0489  -3.8801  -3.8343  -3.8074  -3.7483  -3.7010
    -3.6838  -3.6181  -3.5633  -3.5187  -3.5033  -3.4911  -3.4542  -3.3977
    -3.3719  -3.2230  -3.1490  -2.9223  -2.9065  -2.8021  -2.7802  -2.7294
    -2.7230  -2.6873  -2.6716  -2.6353  -2.5785  -2.2881  -2.1023  -2.0064
    -1.9251  -0.9974  -0.8212  -0.7155  -0.1886  -0.1381  -0.1180  -0.0539
     0.0009   0.1218   0.2045   0.2275   0.2616   0.3001   0.3582   0.3959
     0.4571   0.5107   0.5367   0.5880   0.6028   0.6425   0.6904   0.7368
     0.7581   0.7740   0.8186   0.8969   0.9326   0.9644   0.9941   1.2883
     1.3872

     the Fermi energy is    -1.0046 ev

!    total energy              =   -2205.51143150 Ry
     estimated scf accuracy    <       0.00000034 Ry
     smearing contrib. (-TS)   =      -0.00660492 Ry
     internal energy E=F+TS    =   -2205.50482658 Ry

     The total energy is F=E-TS. E is the sum of the following terms:
     one-electron contribution =  -18053.99009016 Ry
     hartree contribution      =    9013.63845152 Ry
     xc contribution           =    -385.25549865 Ry
     ewald contribution        =    7220.10231071 Ry

     convergence has been achieved in  14 iterations

     negative rho (up, down):  1.379E-04 0.000E+00

     Forces acting on atoms (cartesian axes, Ry/au):

     atom    1 type  1   force =     0.00685134   -0.02461888   -0.00354620
     atom    2 type  2   force =    -0.01149570    0.08293889    0.04416521
     atom    3 type  2   force =    -0.01153677    0.00712089   -0.00299754
     atom    4 type  1   force =     0.00363693    0.00571166   -0.00507122
     atom    5 type  2   force =     0.00553971   -0.01095616   -0.00484545
     atom    6 type  2   force =     0.00105586    0.01015326   -0.00145727
     atom    7 type  1   force =     0.00368366   -0.01619489   -0.00890407
     atom    8 type  2   force =     0.00145248   -0.00377008    0.01706671
     atom    9 type  2   force =     0.01230572    0.00868281    0.01065191
     atom   10 type  1   force =    -0.01252946   -0.01162584   -0.05599918
     atom   11 type  2   force =     0.00497325   -0.00157928   -0.00671331
     atom   12 type  2   force =     0.00162237    0.00090698    0.00793077
     atom   13 type  1   force =     0.00385990    0.00678287   -0.00796227
     atom   14 type  2   force =     0.00721222   -0.00062059    0.01225081
     atom   15 type  2   force =    -0.01351621    0.00234379   -0.00893461
     atom   16 type  1   force =    -0.00194273    0.01363001    0.00420241
     atom   17 type  2   force =     0.00633992    0.00100623    0.00141534
     atom   18 type  2   force =    -0.00368991   -0.00823010    0.01177192
     atom   19 type  1   force =     0.00406680   -0.00624574   -0.00689320
     atom   20 type  2   force =     0.00255335   -0.00490663    0.00111817
     atom   21 type  1   force =    -0.00454488    0.00558843    0.00043269
     atom   22 type  2   force =    -0.00314444   -0.00231991   -0.00325439
     atom   23 type  2   force =    -0.00048309    0.00151090    0.01005096
     atom   24 type  1   force =     0.00328694   -0.00893242   -0.04771275
     atom   25 type  2   force =     0.01611981    0.01857912    0.00802179
     atom   26 type  2   force =    -0.01049002   -0.00100019   -0.00255637
     atom   27 type  1   force =     0.01045739    0.00566072   -0.01112067
     atom   28 type  2   force =    -0.02650817   -0.01778246    0.02235413
     atom   29 type  2   force =     0.00344505   -0.00049581   -0.00241131
     atom   30 type  1   force =    -0.00293400    0.00662376   -0.00557705
     atom   31 type  2   force =    -0.00009226    0.00032878    0.01919972
     atom   32 type  2   force =    -0.00718812    0.00453369    0.00828429
     atom   33 type  1   force =     0.01194519   -0.00348626   -0.00936602
     atom   34 type  2   force =     0.00436411   -0.04466661   -0.00852315
     atom   35 type  2   force =    -0.00985135    0.00776672    0.01617206
     atom   36 type  3   force =     0.00517512   -0.02243767    0.00875711
     The non-local contrib.  to forces
     atom    1 type  1   force =     0.00167554    0.02386992   -0.00831613
     atom    2 type  2   force =     0.00149222    0.17768301   -0.14957227
     atom    3 type  2   force =    -0.01456721   -0.00132784    0.27191784
     atom    4 type  1   force =     0.00301783    0.00605979    0.00835643
     atom    5 type  2   force =     0.01398721   -0.03167484   -0.22898245
     atom    6 type  2   force =    -0.00191188    0.01090793    0.26151211
     atom    7 type  1   force =    -0.01903785    0.00215274   -0.02004170
     atom    8 type  2   force =     0.00391647   -0.00343969   -0.25409694
     atom    9 type  2   force =     0.00700342   -0.00828642    0.27904752
     atom   10 type  1   force =     0.00651404    0.00593462   -0.00617149
     atom   11 type  2   force =     0.01258371    0.00399499   -0.25869922
     atom   12 type  2   force =    -0.01095019   -0.01703741    0.26368164
     atom   13 type  1   force =    -0.00082869    0.01921809   -0.00775246
     atom   14 type  2   force =     0.01116646   -0.00948567   -0.26052824
     atom   15 type  2   force =    -0.01411035   -0.00447003    0.26091096
     atom   16 type  1   force =     0.00251226    0.03038319   -0.03014092
     atom   17 type  2   force =     0.00400256   -0.02995463   -0.24433272
     atom   18 type  2   force =    -0.00313273   -0.00105416    0.27566755
     atom   19 type  1   force =     0.01437588   -0.00069290   -0.01179688
     atom   20 type  2   force =     0.00032082   -0.02190276    0.26640471
     atom   21 type  1   force =     0.00135333    0.02346635    0.00716006
     atom   22 type  2   force =    -0.00847573    0.00523129   -0.25815046
     atom   23 type  2   force =     0.00663592   -0.01451249    0.26837152
     atom   24 type  1   force =     0.00434014    0.01654151   -0.00246638
     atom   25 type  2   force =     0.00679245    0.00889461   -0.25560904
     atom   26 type  2   force =    -0.00170082   -0.01290199    0.26370014
     atom   27 type  1   force =    -0.00525039    0.00718350    0.01029985
     atom   28 type  2   force =    -0.07368941   -0.07289015   -0.20597313
     atom   29 type  2   force =     0.00609909    0.00151810    0.26495823
     atom   30 type  1   force =    -0.00023280    0.01854999    0.00809186
     atom   31 type  2   force =    -0.00532694    0.00299147   -0.24841023
     atom   32 type  2   force =    -0.00368017   -0.01118683    0.27514792
     atom   33 type  1   force =    -0.00615917    0.00619201    0.00601777
     atom   34 type  2   force =     0.00335483   -0.04137898   -0.27014339
     atom   35 type  2   force =    -0.00483155   -0.01093676    0.27159140
     atom   36 type  3   force =     0.00212541   -0.00948086   -0.00844999
     The ionic contribution  to forces
     atom    1 type  1   force =    -0.07137689    0.05132450    5.15969120
     atom    2 type  2   force =    -0.79825340   -0.55836733   38.90149677
     atom    3 type  2   force =    -0.17105990   -0.04636465  -36.19468431
     atom    4 type  1   force =     0.02615329    1.03706078    0.21645752
     atom    5 type  2   force =    -1.37879673    1.78910927   38.59916963
     atom    6 type  2   force =     0.30127253   -0.46891598  -38.10454590
     atom    7 type  1   force =    -2.66987720   -2.70917367    2.56123162
     atom    8 type  2   force =    -0.99892162    0.17505436   37.37472071
     atom    9 type  2   force =     0.33794463    0.00275098  -38.02188651
     atom   10 type  1   force =    -1.12039988   -0.59818453    5.53616817
     atom   11 type  2   force =    -0.60323555   -1.67222621   39.14595242
     atom   12 type  2   force =     0.42847555    0.66932133  -37.85690618
     atom   13 type  1   force =     0.52131456    0.93390059    2.77353885
     atom   14 type  2   force =    -0.06726500   -0.09780455   38.50093092
     atom   15 type  2   force =     0.12742133   -0.09235917  -36.83467301
     atom   16 type  1   force =    -0.15101174    4.08631466    0.40043445
     atom   17 type  2   force =     0.83735964    1.54956902   37.92551528
     atom   18 type  2   force =    -0.15525063   -0.62962951  -38.58546556
     atom   19 type  1   force =     2.72685731   -2.40387590    0.67880711
     atom   20 type  2   force =     0.21726320   -0.17447298  -38.47479268
     atom   21 type  1   force =    -0.03300505   -0.06625818    1.15215689
     atom   22 type  2   force =     0.46292398   -1.74667217   38.44546360
     atom   23 type  2   force =    -0.08396944    0.65142720  -38.27915187
     atom   24 type  1   force =    -0.07873116    0.88443792    5.08821838
     atom   25 type  2   force =     0.84614321    0.15076212   39.23687204
     atom   26 type  2   force =    -0.25198554    0.03266652  -37.37227997
     atom   27 type  1   force =     0.20025209    0.57785961   -2.37722452
     atom   28 type  2   force =     0.61433956    1.53857465   37.89474835
     atom   29 type  2   force =    -0.22662624   -0.38929509  -37.36660969
     atom   30 type  1   force =    -0.29672622   -0.82208756   -0.05026824
     atom   31 type  2   force =     1.27256072    0.01592817   37.33193440
     atom   32 type  2   force =    -0.46586495    0.01942905  -38.63524892
     atom   33 type  1   force =     0.88815716   -0.99627336    2.03501613
     atom   34 type  2   force =     0.27625355   -1.53205301   39.35673507
     atom   35 type  2   force =    -0.28875349    0.45247885  -37.82086908
     atom   36 type  3   force =    -0.17358165    0.38604428    7.65934692
     The local contribution  to forces
     atom    1 type  1   force =     0.07638088   -0.09926431   -5.15467538
     atom    2 type  2   force =     0.78585243    0.47428041  -38.72156011
     atom    3 type  2   force =     0.17343330    0.05494261   35.94084963
     atom    4 type  1   force =    -0.02581173   -1.03747595   -0.22965574
     atom    5 type  2   force =     1.37135892   -1.77019330  -38.39431769
     atom    6 type  2   force =    -0.29874462    0.46941193   37.86259078
     atom    7 type  1   force =     2.69250475    2.69070029   -2.55001631
     atom    8 type  2   force =     0.99656014   -0.17602471  -37.12395080
     atom    9 type  2   force =    -0.33259630    0.01365776   37.77465421
     atom   10 type  1   force =     1.10129617    0.58043859   -5.58580464
     atom   11 type  2   force =     0.59618021    1.66713251  -38.91450363
     atom   12 type  2   force =    -0.41707769   -0.65293640   37.62206166
     atom   13 type  1   force =    -0.51649858   -0.94593648   -2.77349481
     atom   14 type  2   force =     0.06396509    0.10674085  -38.24865858
     atom   15 type  2   force =    -0.12759808    0.09894890   36.58552635
     atom   16 type  1   force =     0.14661123   -4.10333720   -0.36592406
     atom   17 type  2   force =    -0.83482294   -1.52006902  -37.69984359
     atom   18 type  2   force =     0.15483453    0.62317007   38.34282577
     atom   19 type  1   force =    -2.73722891    2.39828792   -0.67392218
     atom   20 type  2   force =    -0.21525712    0.19057425   38.23086715
     atom   21 type  1   force =     0.02705267    0.04800470   -1.15865534
     atom   22 type  2   force =    -0.45780455    1.73953019  -38.21115127
     atom   23 type  2   force =     0.07741207   -0.63690247   38.04191836
     atom   24 type  1   force =     0.07768036   -0.90963579   -5.13307547
     atom   25 type  2   force =    -0.83697510   -0.14038488  -38.99362145
     atom   26 type  2   force =     0.24341720   -0.02141022   37.12702682
     atom   27 type  1   force =    -0.18431469   -0.57930401    2.35597232
     atom   28 type  2   force =    -0.57148489   -1.48822022  -37.68352359
     atom   29 type  2   force =     0.22449443    0.38790816   37.12004024
     atom   30 type  1   force =     0.29416897    0.80990672    0.03672527
     atom   31 type  2   force =    -1.26760514   -0.01860890  -37.08467094
     atom   32 type  2   force =     0.46262253   -0.00431499   38.38961727
     atom   33 type  1   force =    -0.86991053    0.98634401   -2.05013647
     atom   34 type  2   force =    -0.27542972    1.52746165  -39.11596950
     atom   35 type  2   force =     0.28376970   -0.43489485   37.58657431
     atom   36 type  3   force =     0.17663220   -0.39898347   -7.64212124
     The core correction contribution to forces
     atom    1 type  1   force =     0.00000000    0.00000000    0.00000000
     atom    2 type  2   force =    -0.00056221   -0.01058029    0.01392055
     atom    3 type  2   force =     0.00065929   -0.00003403   -0.02097628
     atom    4 type  1   force =     0.00000000    0.00000000    0.00000000
     atom    5 type  2   force =    -0.00110145    0.00186369    0.01916325
     atom    6 type  2   force =     0.00030132   -0.00109738   -0.02079890
     atom    7 type  1   force =     0.00000000    0.00000000    0.00000000
     atom    8 type  2   force =    -0.00011338    0.00051647    0.02038072
     atom    9 type  2   force =    -0.00011050    0.00047895   -0.02109527
     atom   10 type  1   force =     0.00000000    0.00000000    0.00000000
     atom   11 type  2   force =    -0.00061773   -0.00052443    0.02057564
     atom   12 type  2   force =     0.00110119    0.00141355   -0.02085497
     atom   13 type  1   force =     0.00000000    0.00000000    0.00000000
     atom   14 type  2   force =    -0.00061531   -0.00001281    0.02052829
     atom   15 type  2   force =     0.00077917    0.00031577   -0.02056416
     atom   16 type  1   force =     0.00000000    0.00000000    0.00000000
     atom   17 type  2   force =    -0.00008762    0.00155704    0.01998089
     atom   18 type  2   force =     0.00001630   -0.00055193   -0.02110860
     atom   19 type  1   force =     0.00000000    0.00000000    0.00000000
     atom   20 type  2   force =     0.00010142    0.00081927   -0.02122355
     atom   21 type  1   force =     0.00000000    0.00000000    0.00000000
     atom   22 type  2   force =     0.00024137   -0.00056092    0.02050087
     atom   23 type  2   force =    -0.00054042    0.00122613   -0.02091097
     atom   24 type  1   force =     0.00000000    0.00000000    0.00000000
     atom   25 type  2   force =     0.00009600   -0.00062130    0.02042705
     atom   26 type  2   force =    -0.00021693    0.00070291   -0.02087775
     atom   27 type  1   force =     0.00000000    0.00000000    0.00000000
     atom   28 type  2   force =     0.00429894    0.00474929    0.01713487
     atom   29 type  2   force =    -0.00054651   -0.00055988   -0.02066222
     atom   30 type  1   force =     0.00000000    0.00000000    0.00000000
     atom   31 type  2   force =     0.00037078    0.00001523    0.02026809
     atom   32 type  2   force =    -0.00008565    0.00064936   -0.02109329
     atom   33 type  1   force =     0.00000000    0.00000000    0.00000000
     atom   34 type  2   force =     0.00022803    0.00127766    0.02095231
     atom   35 type  2   force =     0.00000381    0.00098458   -0.02109565
     atom   36 type  3   force =     0.00000000    0.00000000    0.00000000
     The Hubbard contrib.    to forces
     atom    1 type  1   force =     0.00000000    0.00000000    0.00000000
     atom    2 type  2   force =     0.00000000    0.00000000    0.00000000
     atom    3 type  2   force =     0.00000000    0.00000000    0.00000000
     atom    4 type  1   force =     0.00000000    0.00000000    0.00000000
     atom    5 type  2   force =     0.00000000    0.00000000    0.00000000
     atom    6 type  2   force =     0.00000000    0.00000000    0.00000000
     atom    7 type  1   force =     0.00000000    0.00000000    0.00000000
     atom    8 type  2   force =     0.00000000    0.00000000    0.00000000
     atom    9 type  2   force =     0.00000000    0.00000000    0.00000000
     atom   10 type  1   force =     0.00000000    0.00000000    0.00000000
     atom   11 type  2   force =     0.00000000    0.00000000    0.00000000
     atom   12 type  2   force =     0.00000000    0.00000000    0.00000000
     atom   13 type  1   force =     0.00000000    0.00000000    0.00000000
     atom   14 type  2   force =     0.00000000    0.00000000    0.00000000
     atom   15 type  2   force =     0.00000000    0.00000000    0.00000000
     atom   16 type  1   force =     0.00000000    0.00000000    0.00000000
     atom   17 type  2   force =     0.00000000    0.00000000    0.00000000
     atom   18 type  2   force =     0.00000000    0.00000000    0.00000000
     atom   19 type  1   force =     0.00000000    0.00000000    0.00000000
     atom   20 type  2   force =     0.00000000    0.00000000    0.00000000
     atom   21 type  1   force =     0.00000000    0.00000000    0.00000000
     atom   22 type  2   force =     0.00000000    0.00000000    0.00000000
     atom   23 type  2   force =     0.00000000    0.00000000    0.00000000
     atom   24 type  1   force =     0.00000000    0.00000000    0.00000000
     atom   25 type  2   force =     0.00000000    0.00000000    0.00000000
     atom   26 type  2   force =     0.00000000    0.00000000    0.00000000
     atom   27 type  1   force =     0.00000000    0.00000000    0.00000000
     atom   28 type  2   force =     0.00000000    0.00000000    0.00000000
     atom   29 type  2   force =     0.00000000    0.00000000    0.00000000
     atom   30 type  1   force =     0.00000000    0.00000000    0.00000000
     atom   31 type  2   force =     0.00000000    0.00000000    0.00000000
     atom   32 type  2   force =     0.00000000    0.00000000    0.00000000
     atom   33 type  1   force =     0.00000000    0.00000000    0.00000000
     atom   34 type  2   force =     0.00000000    0.00000000    0.00000000
     atom   35 type  2   force =     0.00000000    0.00000000    0.00000000
     atom   36 type  3   force =     0.00000000    0.00000000    0.00000000
     The SCF correction term to forces
     atom    1 type  1   force =     0.00017108   -0.00055375   -0.00023958
     atom    2 type  2   force =    -0.00002546   -0.00008168   -0.00011342
     atom    3 type  2   force =    -0.00000299   -0.00009997   -0.00009812
     atom    4 type  1   force =     0.00027682    0.00006228   -0.00022312
     atom    5 type  2   force =     0.00009103   -0.00006574    0.00012812
     atom    6 type  2   force =     0.00013779   -0.00015800   -0.00020904
     atom    7 type  1   force =     0.00009324    0.00012098   -0.00007137
     atom    8 type  2   force =     0.00001014    0.00011873    0.00001932
     atom    9 type  2   force =     0.00006374    0.00007677   -0.00006173
     atom   10 type  1   force =     0.00005949    0.00018072   -0.00018490
     atom   11 type  2   force =     0.00006189    0.00003910   -0.00003222
     atom   12 type  2   force =     0.00007278    0.00014114   -0.00004508
     atom   13 type  1   force =    -0.00012811   -0.00040409   -0.00024754
     atom   14 type  2   force =    -0.00003974   -0.00006318   -0.00001526
     atom   15 type  2   force =    -0.00000901   -0.00009645   -0.00012846
     atom   16 type  1   force =    -0.00005521    0.00026460   -0.00016075
     atom   17 type  2   force =    -0.00011246   -0.00010095    0.00010180
     atom   18 type  2   force =    -0.00015811   -0.00016934   -0.00014094
     atom   19 type  1   force =     0.00006179    0.00003037    0.00002505
     atom   20 type  2   force =     0.00012431    0.00007082   -0.00013116
     atom   21 type  1   force =     0.00005343    0.00037079   -0.00022262
     atom   22 type  2   force =    -0.00003023    0.00014693    0.00008918
     atom   23 type  2   force =    -0.00002195    0.00026776   -0.00016978
     atom   24 type  1   force =    -0.00000313   -0.00028083   -0.00038297
     atom   25 type  2   force =     0.00006252   -0.00007620   -0.00004049
     atom   26 type  2   force =    -0.00000466   -0.00006216   -0.00011930
     atom   27 type  1   force =    -0.00023034   -0.00008315   -0.00016202
     atom   28 type  2   force =     0.00002691   -0.00000080   -0.00002606
     atom   29 type  2   force =     0.00002355   -0.00007187   -0.00013157
     atom   30 type  1   force =    -0.00014468    0.00024984   -0.00011964
     atom   31 type  2   force =    -0.00009242   -0.00000197    0.00008470
     atom   32 type  2   force =    -0.00018061   -0.00004767   -0.00013238
     atom   33 type  1   force =    -0.00014299    0.00024631   -0.00025715
     atom   34 type  2   force =    -0.00004331    0.00002131   -0.00009134
     atom   35 type  2   force =    -0.00004055    0.00013014   -0.00002261
     atom   36 type  3   force =    -0.00000158   -0.00002239   -0.00001227

     Total force =     0.158200     Total SCF correction =     0.001547

     BFGS Geometry Optimization
     Energy error            =      0.0E+00 Ry
     Gradient error          =      8.3E-02 Ry/Bohr

     number of scf cycles    =   1
     number of bfgs steps    =   0

     energy             new  =   -2205.5114315043 Ry

     new trust radius        =       0.0946656068 bohr
     new conv_thr            =       0.0000010000 Ry


ATOMIC_POSITIONS (angstrom)
Mo            6.5781739819        1.7747784805        2.8217664643
S             8.1706260763        0.8535933962        4.4579095774
S             8.1871280908        0.8150099572        1.2762971970
Mo            8.0970871447        4.4980794259        2.7151348216
S             6.5028407473        3.7166137385        4.3440965489
S             6.5539085344        3.5171104316        1.1205090760
Mo            6.4919310063        7.2098673166        2.6671726551
S             8.0824963457        6.3418759534        4.2514928756
S             8.0874295546        6.3092970619        1.0894997484
Mo            8.1539887414        9.8960282845        2.8138282730
S             6.4977993283        8.9420910946        4.3795530014
S             6.6188057228        9.0491911635        1.1441040858
Mo            3.4237022320        1.7505451917        2.7722577117
S             4.9789820316        0.8166128048        4.3570159442
S             5.0506812820        0.8475023869        1.2219304669
Mo            4.9787286326        4.5203906961        2.6351083675
S             3.4311966019        3.6721321604        4.2804585459
S             3.4359679672        3.5438735141        1.0645811135
Mo            3.4560137976        7.2130194372        2.6270291381
S             4.9845853677        6.3243358100        1.0378454389
Mo            5.0098588723        9.9045573204        2.7436299327
S             3.4692941491        8.9425236241        4.3238691656
S             3.4081735238        9.0657895155        1.1013870372
Mo            0.2978298622        1.7427826988        2.8241962094
S             1.8589924466        0.8025256540        4.4024543888
S             1.8552489544        0.8538966412        1.2080480836
Mo            1.8662251237        4.4986622879        2.6543125726
S             0.2581863297        3.6449887544        4.3494133960
S             0.2330542483        3.5269868548        1.1707418738
Mo            0.2695995465        7.2201512395        2.6987451785
S             1.9021894277        6.3129728162        4.2326041761
S             1.8584344264        6.3127429364        1.0489431398
Mo            1.8506677824        9.9382943056        2.7679899664
S             0.2982222851        9.0663612740        4.4093592073
S             0.2715582917        9.0476356851        1.1589586659
H             8.4087474438        2.4167709416        5.1185035315



     Writing config-only to output data dir ./MoS2-V-O.save/
     NEW-OLD atomic charge density approx. for the potential

     negative rho (up, down):  1.484E-04 0.000E+00

     total cpu time spent up to now is       79.5 secs

     Self-consistent Calculation

     iteration #  1     ecut=    80.00 Ry     beta= 0.70
     Davidson diagonalization with overlap
     ethr =  1.00E-06,  avg # of iterations = 10.0

     negative rho (up, down):  1.178E-04 0.000E+00

     total cpu time spent up to now is       91.9 secs

     total energy              =   -2205.53174350 Ry
     estimated scf accuracy    <       0.00197143 Ry

     iteration #  2     ecut=    80.00 Ry     beta= 0.70
     Davidson diagonalization with overlap
     ethr =  6.42E-07,  avg # of iterations =  2.0

     negative rho (up, down):  1.121E-04 0.000E+00

     total cpu time spent up to now is      115.4 secs

     total energy              =   -2205.53176306 Ry
     estimated scf accuracy    <       0.00044178 Ry

     iteration #  3     ecut=    80.00 Ry     beta= 0.70
     Davidson diagonalization with overlap
     ethr =  1.44E-07,  avg # of iterations =  5.0

     negative rho (up, down):  1.113E-04 0.000E+00

     total cpu time spent up to now is      128.4 secs

     total energy              =   -2205.53181633 Ry
     estimated scf accuracy    <       0.00007703 Ry

     iteration #  4     ecut=    80.00 Ry     beta= 0.70
     Davidson diagonalization with overlap
     ethr =  2.51E-08,  avg # of iterations = 12.0

     negative rho (up, down):  1.075E-04 0.000E+00

     total cpu time spent up to now is      151.3 secs

     total energy              =   -2205.53183349 Ry
     estimated scf accuracy    <       0.00001103 Ry

     iteration #  5     ecut=    80.00 Ry     beta= 0.70
     Davidson diagonalization with overlap
     ethr =  3.59E-09,  avg # of iterations =  2.0

     negative rho (up, down):  1.007E-04 0.000E+00

     total cpu time spent up to now is      162.3 secs

     total energy              =   -2205.53183462 Ry
     estimated scf accuracy    <       0.00000307 Ry

     iteration #  6     ecut=    80.00 Ry     beta= 0.70
     Davidson diagonalization with overlap
     ethr =  1.00E-09,  avg # of iterations =  6.0

     negative rho (up, down):  9.912E-05 0.000E+00

     total cpu time spent up to now is      177.7 secs

     total energy              =   -2205.53183532 Ry
     estimated scf accuracy    <       0.00000154 Ry

     iteration #  7     ecut=    80.00 Ry     beta= 0.70
     Davidson diagonalization with overlap
     ethr =  5.01E-10,  avg # of iterations =  2.0

     negative rho (up, down):  1.382E-04 0.000E+00

     total cpu time spent up to now is      179.6 secs

     End of self-consistent calculation

          k = 0.0000 0.0000 0.0000 (105382 PWs)   bands (ev):

   -62.8871 -62.8731 -62.8624 -62.8525 -62.8374 -62.8275 -62.8194 -62.8086
   -62.7917 -62.7821 -62.7602 -62.7559 -37.2362 -37.1678 -37.1527 -37.1439
   -37.1333 -37.1052 -37.0855 -37.0813 -37.0637 -37.0605 -37.0562 -37.0405
   -37.0334 -37.0286 -37.0192 -37.0188 -37.0072 -37.0036 -37.0023 -36.9793
   -36.9729 -36.9624 -36.9500 -36.9461 -36.9309 -36.9241 -36.9180 -36.9097
   -36.8988 -36.8859 -36.8740 -36.8474 -36.8281 -36.8082 -36.7599 -36.7222
   -16.0315 -15.2497 -15.1774 -15.0450 -14.9650 -14.8376 -14.5908 -14.5198
   -14.4726 -14.4603 -14.4276 -14.3728 -14.3483 -14.3028 -14.1797 -14.1688
   -14.1423 -14.1181 -14.0333 -13.9285 -13.8687 -13.8352 -13.8099  -8.2178
    -7.6027  -7.4692  -7.3054  -7.2823  -7.2458  -7.1990  -7.1731  -6.9718
    -6.8279  -6.8078  -6.7492  -6.6698  -6.5737  -6.5259  -6.4839  -6.4447
    -6.3321  -6.2587  -6.0659  -5.9701  -5.9177  -5.8657  -5.8371  -5.7953
    -5.7700  -5.7312  -5.6938  -5.6709  -5.6321  -5.5682  -5.5597  -5.4864
    -5.4433  -5.3591  -5.2009  -5.1449  -5.0630  -5.0396  -4.9828  -4.9780
    -4.9457  -4.8371  -4.6706  -4.5301  -4.3335  -4.3144  -4.2864  -4.2538
    -4.2404  -4.0753  -4.0556  -3.8824  -3.8270  -3.8153  -3.7443  -3.6972
    -3.6888  -3.6043  -3.5547  -3.5244  -3.5068  -3.4924  -3.4466  -3.4012
    -3.3682  -3.2227  -3.1611  -2.9152  -2.9013  -2.7927  -2.7783  -2.7229
    -2.7193  -2.6889  -2.6840  -2.6392  -2.5746  -2.2857  -2.1136  -2.0105
    -1.9439  -1.0048  -0.8058  -0.7138  -0.1763  -0.1488  -0.1172  -0.0470
     0.0116   0.1212   0.2021   0.2557   0.2813   0.3018   0.3868   0.3963
     0.4727   0.5201   0.5312   0.5817   0.6067   0.6435   0.7011   0.7436
     0.7504   0.7721   0.8347   0.8987   0.9386   0.9874   0.9904   1.3064
     1.3927

     the Fermi energy is    -1.0092 ev

!    total energy              =   -2205.53183484 Ry
     estimated scf accuracy    <       0.00000078 Ry
     smearing contrib. (-TS)   =      -0.00629006 Ry
     internal energy E=F+TS    =   -2205.52554478 Ry

     The total energy is F=E-TS. E is the sum of the following terms:
     one-electron contribution =  -18050.88793969 Ry
     hartree contribution      =    9012.12163892 Ry
     xc contribution           =    -385.25055691 Ry
     ewald contribution        =    7218.49131290 Ry

     convergence has been achieved in   7 iterations

     negative rho (up, down):  1.382E-04 0.000E+00

     Forces acting on atoms (cartesian axes, Ry/au):

     atom    1 type  1   force =     0.00126045   -0.01030619   -0.00179378
     atom    2 type  2   force =    -0.00381989    0.06886932    0.03127881
     atom    3 type  2   force =    -0.01138077    0.00408224   -0.01153394
     atom    4 type  1   force =     0.00384273    0.00295099    0.00070322
     atom    5 type  2   force =     0.00336196   -0.00888286   -0.00779062
     atom    6 type  2   force =     0.00038669    0.00708488   -0.00027375
     atom    7 type  1   force =     0.00267994   -0.01166788   -0.00136961
     atom    8 type  2   force =     0.00156268   -0.00386777    0.01136015
     atom    9 type  2   force =     0.01093719    0.00680147    0.00539835
     atom   10 type  1   force =    -0.00529742   -0.00131004   -0.02252606
     atom   11 type  2   force =     0.00570159   -0.00115657   -0.01052810
     atom   12 type  2   force =    -0.00247464   -0.00167585    0.00060478
     atom   13 type  1   force =     0.00346870    0.00442773   -0.00188475
     atom   14 type  2   force =     0.00491989   -0.00061031    0.00729513
     atom   15 type  2   force =    -0.01102370    0.00095936   -0.00895527
     atom   16 type  1   force =     0.00094600    0.00848632    0.00518597
     atom   17 type  2   force =     0.00446704    0.00209064    0.00022487
     atom   18 type  2   force =    -0.00102827   -0.00507406    0.00758571
     atom   19 type  1   force =     0.00117486   -0.00489219   -0.00073892
     atom   20 type  2   force =     0.00213957   -0.00425712   -0.00313012
     atom   21 type  1   force =    -0.00244073    0.00241315    0.00357224
     atom   22 type  2   force =    -0.00196790   -0.00233751   -0.00397190
     atom   23 type  2   force =     0.00087600    0.00061383    0.00504185
     atom   24 type  1   force =    -0.00114550   -0.00292217   -0.01650832
     atom   25 type  2   force =     0.01060266    0.01437691   -0.00118521
     atom   26 type  2   force =    -0.00363265   -0.00294317   -0.00812123
     atom   27 type  1   force =     0.00231495    0.00191658    0.00223502
     atom   28 type  2   force =    -0.01591605   -0.01402505    0.00749524
     atom   29 type  2   force =     0.00359628    0.00224050   -0.00611402
     atom   30 type  1   force =    -0.00008649   -0.00046816    0.00316704
     atom   31 type  2   force =     0.00006664   -0.00047219    0.01177739
     atom   32 type  2   force =    -0.00563834    0.00494533    0.00404807
     atom   33 type  1   force =     0.00496836   -0.00089348    0.00180045
     atom   34 type  2   force =    -0.00068980   -0.03146324   -0.01566377
     atom   35 type  2   force =    -0.00576425    0.00643554    0.00637757
     atom   36 type  3   force =     0.00303221   -0.02946898    0.00693750
     The non-local contrib.  to forces
     atom    1 type  1   force =     0.00364946    0.01875858   -0.00949015
     atom    2 type  2   force =     0.00773876    0.18708530   -0.14794941
     atom    3 type  2   force =    -0.01260424   -0.00495377    0.26718074
     atom    4 type  1   force =     0.00304207    0.00745703    0.00595682
     atom    5 type  2   force =     0.01177436   -0.02804279   -0.23439543
     atom    6 type  2   force =    -0.00224680    0.00771275    0.26407784
     atom    7 type  1   force =    -0.01883201    0.00244949   -0.02150622
     atom    8 type  2   force =     0.00403017   -0.00366504   -0.25695620
     atom    9 type  2   force =     0.00520573   -0.00950246    0.27552450
     atom   10 type  1   force =     0.00593260    0.00457723   -0.00835222
     atom   11 type  2   force =     0.01036585    0.00276982   -0.26111565
     atom   12 type  2   force =    -0.01334910   -0.01947447    0.26028970
     atom   13 type  1   force =    -0.00032240    0.02089186   -0.00850086
     atom   14 type  2   force =     0.00880962   -0.00888127   -0.26263884
     atom   15 type  2   force =    -0.01256271   -0.00591305    0.26016590
     atom   16 type  1   force =     0.00109308    0.03221112   -0.03328827
     atom   17 type  2   force =     0.00335653   -0.02840331   -0.24582389
     atom   18 type  2   force =    -0.00109086    0.00180970    0.27348033
     atom   19 type  1   force =     0.01572505    0.00105349   -0.01262538
     atom   20 type  2   force =    -0.00033340   -0.02049039    0.26352192
     atom   21 type  1   force =     0.00097234    0.02370571    0.00522891
     atom   22 type  2   force =    -0.00731663    0.00504050   -0.25898840
     atom   23 type  2   force =     0.00735963   -0.01582162    0.26541471
     atom   24 type  1   force =     0.00334172    0.01596614   -0.00187110
     atom   25 type  2   force =     0.00383532    0.00531372   -0.26039968
     atom   26 type  2   force =     0.00364211   -0.01373955    0.26030686
     atom   27 type  1   force =    -0.00327115    0.00768900    0.00777189
     atom   28 type  2   force =    -0.06380194   -0.06406789   -0.21598330
     atom   29 type  2   force =     0.00659600    0.00146031    0.26493926
     atom   30 type  1   force =    -0.00083053    0.01992132    0.00636096
     atom   31 type  2   force =    -0.00477484    0.00282342   -0.25330172
     atom   32 type  2   force =    -0.00157511   -0.01077689    0.27286313
     atom   33 type  1   force =    -0.00490207    0.00495687    0.00357128
     atom   34 type  2   force =     0.00066353   -0.03212201   -0.27505173
     atom   35 type  2   force =    -0.00294995   -0.01162538    0.26613202
     atom   36 type  3   force =     0.00145604   -0.01284153   -0.00972118
     The ionic contribution  to forces
     atom    1 type  1   force =    -0.15600375    0.23094262    5.12817453
     atom    2 type  2   force =    -0.59489848   -0.96233704   38.97652682
     atom    3 type  2   force =    -0.19864406    0.00077402  -36.21860841
     atom    4 type  1   force =     0.09619959    0.87369336    0.23782170
     atom    5 type  2   force =    -1.39015174    1.75785462   38.49791540
     atom    6 type  2   force =     0.26147916   -0.51249753  -38.00147046
     atom    7 type  1   force =    -2.71779955   -2.53393422    2.57459313
     atom    8 type  2   force =    -0.98582198    0.19277004   37.50923571
     atom    9 type  2   force =     0.34281792   -0.04774389  -38.00563274
     atom   10 type  1   force =    -0.85779756   -0.17777728    4.95282887
     atom   11 type  2   force =    -0.50605077   -1.60690478   39.10209310
     atom   12 type  2   force =     0.25247401    0.59635138  -37.84536192
     atom   13 type  1   force =     0.50687271    0.87710099    2.80886478
     atom   14 type  2   force =    -0.11056430   -0.09202601   38.58321385
     atom   15 type  2   force =     0.13426750   -0.06506926  -36.86939470
     atom   16 type  1   force =    -0.03717703    3.83759548    0.66637136
     atom   17 type  2   force =     0.77290309    1.51490255   37.95824977
     atom   18 type  2   force =    -0.08991590   -0.61129049  -38.53355331
     atom   19 type  1   force =     2.66466198   -2.31120936    0.66570641
     atom   20 type  2   force =     0.20013688   -0.16424678  -38.53439472
     atom   21 type  1   force =    -0.00064847   -0.11781678    1.40219493
     atom   22 type  2   force =     0.46097198   -1.74016389   38.46781761
     atom   23 type  2   force =    -0.05569502    0.62123672  -38.23999486
     atom   24 type  1   force =    -0.07415373    0.76691269    4.31509129
     atom   25 type  2   force =     0.67034742    0.10616655   39.21828080
     atom   26 type  2   force =    -0.14802588   -0.01357765  -37.36770868
     atom   27 type  1   force =    -0.04509601    0.49029830   -2.30688893
     atom   28 type  2   force =     0.73854849    1.48809259   37.88797324
     atom   29 type  2   force =    -0.24154970   -0.29518958  -37.33032456
     atom   30 type  1   force =    -0.18253208   -0.95669358    0.04765847
     atom   31 type  2   force =     1.24357705   -0.01666038   37.42380405
     atom   32 type  2   force =    -0.46466878    0.03279922  -38.59872709
     atom   33 type  1   force =     0.66882936   -0.80700015    2.24122730
     atom   34 type  2   force =     0.14238249   -1.22272531   39.26888579
     atom   35 type  2   force =    -0.14984263    0.43494518  -37.76063283
     atom   36 type  3   force =    -0.14943222    0.43242766    7.67816429
     The local contribution  to forces
     atom    1 type  1   force =     0.15351855   -0.26002545   -5.12186709
     atom    2 type  2   force =     0.58411354    0.85600822  -38.81097984
     atom    3 type  2   force =     0.19937657    0.00802366   35.96028233
     atom    4 type  1   force =    -0.09535704   -0.87806980   -0.24425697
     atom    5 type  2   force =     1.38275528   -1.74031268  -38.29104388
     atom    6 type  2   force =    -0.25910260    0.51280803   37.75754330
     atom    7 type  1   force =     2.73922921    2.51995922   -2.55555183
     atom    8 type  2   force =     0.98347337   -0.19340133  -37.26188073
     atom    9 type  2   force =    -0.33709164    0.06363728   37.75617657
     atom   10 type  1   force =     0.84659769    0.17164080   -4.96859751
     atom   11 type  2   force =     0.50171999    1.60331362  -38.87253346
     atom   12 type  2   force =    -0.24261823   -0.58001052   37.60604038
     atom   13 type  1   force =    -0.50312178   -0.89378782   -2.80351292
     atom   14 type  2   force =     0.10717974    0.10021714  -38.33438962
     atom   15 type  2   force =    -0.13342349    0.07147806   36.62044600
     atom   16 type  1   force =     0.03700575   -3.86109149   -0.62906010
     atom   17 type  2   force =    -0.77170959   -1.48582189  -37.73265673
     atom   18 type  2   force =     0.08998449    0.60507243   38.28833154
     atom   19 type  1   force =    -2.67926891    2.30540118   -0.65488871
     atom   20 type  2   force =    -0.19781863    0.17983808   38.28859112
     atom   21 type  1   force =    -0.00285722    0.09633640   -1.40509833
     atom   22 type  2   force =    -0.45581000    1.73329015  -38.23377844
     atom   23 type  2   force =     0.04973576   -0.60610889   38.00010298
     atom   24 type  1   force =     0.06972054   -0.78575969   -4.33112284
     atom   25 type  2   force =    -0.66363377   -0.09672740  -38.98007401
     atom   26 type  2   force =     0.14108275    0.02363677   37.11965820
     atom   27 type  1   force =     0.05065272   -0.49583956    2.30020344
     atom   28 type  2   force =    -0.69463896   -1.44232474  -37.68232253
     atom   29 type  2   force =     0.23912119    0.29637040   37.07954737
     atom   30 type  1   force =     0.18336697    0.93641212   -0.05193973
     atom   31 type  2   force =    -1.23901264    0.01348376  -37.17958590
     atom   32 type  2   force =     0.46086095   -0.01761183   38.35061155
     atom   33 type  1   force =    -0.65889153    0.80093871   -2.24425724
     atom   34 type  2   force =    -0.14384092    1.22214707  -39.03098676
     atom   35 type  2   force =     0.14699750   -0.41789200   37.52140518
     atom   36 type  3   force =     0.15100965   -0.44903950   -7.66158672
     The core correction contribution to forces
     atom    1 type  1   force =     0.00000000    0.00000000    0.00000000
     atom    2 type  2   force =    -0.00080385   -0.01172234    0.01330106
     atom    3 type  2   force =     0.00052108    0.00017356   -0.02088587
     atom    4 type  1   force =     0.00000000    0.00000000    0.00000000
     atom    5 type  2   force =    -0.00100717    0.00166968    0.01932354
     atom    6 type  2   force =     0.00027980   -0.00096621   -0.02083118
     atom    7 type  1   force =     0.00000000    0.00000000    0.00000000
     atom    8 type  2   force =    -0.00010021    0.00054569    0.02047734
     atom    9 type  2   force =     0.00000097    0.00050879   -0.02103346
     atom   10 type  1   force =     0.00000000    0.00000000    0.00000000
     atom   11 type  2   force =    -0.00043234   -0.00045576    0.02063484
     atom   12 type  2   force =     0.00103926    0.00145119   -0.02077783
     atom   13 type  1   force =     0.00000000    0.00000000    0.00000000
     atom   14 type  2   force =    -0.00055205   -0.00001314    0.02061417
     atom   15 type  2   force =     0.00071193    0.00038903   -0.02055105
     atom   16 type  1   force =     0.00000000    0.00000000    0.00000000
     atom   17 type  2   force =    -0.00009418    0.00146189    0.02005265
     atom   18 type  2   force =    -0.00002222   -0.00067567   -0.02107715
     atom   19 type  1   force =     0.00000000    0.00000000    0.00000000
     atom   20 type  2   force =     0.00012357    0.00076562   -0.02116467
     atom   21 type  1   force =     0.00000000    0.00000000    0.00000000
     atom   22 type  2   force =     0.00018291   -0.00059444    0.02054635
     atom   23 type  2   force =    -0.00053847    0.00126308   -0.02083811
     atom   24 type  1   force =     0.00000000    0.00000000    0.00000000
     atom   25 type  2   force =     0.00013818   -0.00045966    0.02054924
     atom   26 type  2   force =    -0.00035020    0.00068589   -0.02078463
     atom   27 type  1   force =     0.00000000    0.00000000    0.00000000
     atom   28 type  2   force =     0.00393871    0.00430310    0.01740475
     atom   29 type  2   force =    -0.00058047   -0.00046054   -0.02068148
     atom   30 type  1   force =     0.00000000    0.00000000    0.00000000
     atom   31 type  2   force =     0.00031792    0.00002663    0.02039599
     atom   32 type  2   force =    -0.00020734    0.00065393   -0.02103574
     atom   33 type  1   force =     0.00000000    0.00000000    0.00000000
     atom   34 type  2   force =     0.00023974    0.00102633    0.02109885
     atom   35 type  2   force =     0.00002960    0.00099277   -0.02095563
     atom   36 type  3   force =     0.00000000    0.00000000    0.00000000
     The Hubbard contrib.    to forces
     atom    1 type  1   force =     0.00000000    0.00000000    0.00000000
     atom    2 type  2   force =     0.00000000    0.00000000    0.00000000
     atom    3 type  2   force =     0.00000000    0.00000000    0.00000000
     atom    4 type  1   force =     0.00000000    0.00000000    0.00000000
     atom    5 type  2   force =     0.00000000    0.00000000    0.00000000
     atom    6 type  2   force =     0.00000000    0.00000000    0.00000000
     atom    7 type  1   force =     0.00000000    0.00000000    0.00000000
     atom    8 type  2   force =     0.00000000    0.00000000    0.00000000
     atom    9 type  2   force =     0.00000000    0.00000000    0.00000000
     atom   10 type  1   force =     0.00000000    0.00000000    0.00000000
     atom   11 type  2   force =     0.00000000    0.00000000    0.00000000
     atom   12 type  2   force =     0.00000000    0.00000000    0.00000000
     atom   13 type  1   force =     0.00000000    0.00000000    0.00000000
     atom   14 type  2   force =     0.00000000    0.00000000    0.00000000
     atom   15 type  2   force =     0.00000000    0.00000000    0.00000000
     atom   16 type  1   force =     0.00000000    0.00000000    0.00000000
     atom   17 type  2   force =     0.00000000    0.00000000    0.00000000
     atom   18 type  2   force =     0.00000000    0.00000000    0.00000000
     atom   19 type  1   force =     0.00000000    0.00000000    0.00000000
     atom   20 type  2   force =     0.00000000    0.00000000    0.00000000
     atom   21 type  1   force =     0.00000000    0.00000000    0.00000000
     atom   22 type  2   force =     0.00000000    0.00000000    0.00000000
     atom   23 type  2   force =     0.00000000    0.00000000    0.00000000
     atom   24 type  1   force =     0.00000000    0.00000000    0.00000000
     atom   25 type  2   force =     0.00000000    0.00000000    0.00000000
     atom   26 type  2   force =     0.00000000    0.00000000    0.00000000
     atom   27 type  1   force =     0.00000000    0.00000000    0.00000000
     atom   28 type  2   force =     0.00000000    0.00000000    0.00000000
     atom   29 type  2   force =     0.00000000    0.00000000    0.00000000
     atom   30 type  1   force =     0.00000000    0.00000000    0.00000000
     atom   31 type  2   force =     0.00000000    0.00000000    0.00000000
     atom   32 type  2   force =     0.00000000    0.00000000    0.00000000
     atom   33 type  1   force =     0.00000000    0.00000000    0.00000000
     atom   34 type  2   force =     0.00000000    0.00000000    0.00000000
     atom   35 type  2   force =     0.00000000    0.00000000    0.00000000
     atom   36 type  3   force =     0.00000000    0.00000000    0.00000000
     The SCF correction term to forces
     atom    1 type  1   force =     0.00009721    0.00001936    0.00136035
     atom    2 type  2   force =     0.00003115   -0.00016352    0.00035160
     atom    3 type  2   force =    -0.00002912    0.00006607    0.00046867
     atom    4 type  1   force =    -0.00004088   -0.00012831    0.00115308
     atom    5 type  2   force =    -0.00000776   -0.00005040    0.00038116
     atom    6 type  2   force =    -0.00002186    0.00002913    0.00037815
     atom    7 type  1   force =     0.00008331   -0.00014107    0.00106674
     atom    8 type  2   force =    -0.00001766   -0.00011583    0.00045545
     atom    9 type  2   force =     0.00000523   -0.00009695    0.00033489
     atom   10 type  1   force =    -0.00002913    0.00025050    0.00156622
     atom   11 type  2   force =     0.00009987    0.00012182    0.00036449
     atom   12 type  2   force =    -0.00001957    0.00000786    0.00038586
     atom   13 type  1   force =     0.00004119    0.00022400    0.00123566
     atom   14 type  2   force =     0.00004790    0.00009426    0.00046698
     atom   15 type  2   force =    -0.00001592    0.00007588    0.00035001
     atom   16 type  1   force =     0.00002520   -0.00022750    0.00113439
     atom   17 type  2   force =     0.00001220   -0.00004732    0.00037448
     atom   18 type  2   force =     0.00001722    0.00001128    0.00037571
     atom   19 type  1   force =     0.00005775   -0.00013620    0.00104017
     atom   20 type  2   force =     0.00003216   -0.00012235    0.00028764
     atom   21 type  1   force =     0.00009364    0.00018912    0.00121815
     atom   22 type  2   force =     0.00000484    0.00009146    0.00040240
     atom   23 type  2   force =     0.00001511    0.00004584    0.00032855
     atom   24 type  1   force =    -0.00005303   -0.00004001    0.00136575
     atom   25 type  2   force =    -0.00008347    0.00008501    0.00042986
     atom   26 type  2   force =     0.00001959    0.00005267    0.00037843
     atom   27 type  1   force =     0.00003041   -0.00022986    0.00112004
     atom   28 type  2   force =     0.00003865   -0.00002681    0.00039451
     atom   29 type  2   force =     0.00001027    0.00006122    0.00037681
     atom   30 type  1   force =    -0.00008985   -0.00010673    0.00105876
     atom   31 type  2   force =    -0.00003983   -0.00014432    0.00043639
     atom   32 type  2   force =    -0.00004705   -0.00011780    0.00030763
     atom   33 type  1   force =    -0.00006639    0.00021239    0.00123053
     atom   34 type  2   force =    -0.00013363    0.00021197    0.00036151
     atom   35 type  2   force =     0.00000224    0.00001626    0.00040025
     atom   36 type  3   force =    -0.00000025   -0.00001433    0.00005252

     Total force =     0.109461     Total SCF correction =     0.004689
     Energy error            =      2.0E-02 Ry
     Gradient error          =      6.9E-02 Ry/Bohr

     number of scf cycles    =   2
     number of bfgs steps    =   1

     energy             old  =   -2205.5114315043 Ry
     energy             new  =   -2205.5318348412 Ry

     CASE: energy            _new < energy            _old

     new trust radius        =       0.1041321675 bohr
     new conv_thr            =       0.0000000689 Ry


ATOMIC_POSITIONS (angstrom)
Mo            6.5797327662        1.7658482571        2.8203019176
S             8.1670281029        0.9033570217        4.4813003395
S             8.1791681030        0.8182275711        1.2692864580
Mo            8.0997434369        4.5004739267        2.7149239037
S             6.5054511833        3.7101637403        4.3390184137
S             6.5542596537        3.5224267761        1.1201742666
Mo            6.4939229110        7.2011759183        2.6653015642
S             8.0835733304        6.3391890534        4.2601128689
S             8.0952273529        6.3142714297        1.0939047998
Mo            8.1494137273        9.8938608240        2.7940435394
S             6.5016891705        8.9412327268        4.3726704236
S             6.6175768099        9.0483356371        1.1454161854
Mo            3.4261700809        1.7539208262        2.7702041907
S             4.9826934483        0.8161857058        4.3627083004
S             5.0426865601        0.8483399962        1.2156843603
Mo            4.9790377309        4.5269370576        2.6386074216
S             3.4345410714        3.6734591669        4.2807600908
S             3.4349270962        3.5399495865        1.0703827325
Mo            3.4571849339        7.2094414142        2.6257658044
S             4.9861285440        6.3212864496        1.0361775337
Mo            5.0079001794        9.9066269151        2.7457410419
S             3.4677780773        8.9408947447        4.3211849160
S             3.4086196317        9.0663268163        1.1055136383
Mo            0.2975691203        1.7400134849        2.8088860501
S             1.8670608778        0.8130678380        4.4027460450
S             1.8518810741        0.8520790895        1.2030575568
Mo            1.8688297086        4.5004545129        2.6542493637
S             0.2457938244        3.6347461294        4.3564486217
S             0.2355452079        3.5282177243        1.1669256410
Mo            0.2691932250        7.2206862434        2.6998926040
S             1.9022166215        6.3127406579        4.2417237677
S             1.8543119254        6.3161435717        1.0522824180
Mo            1.8549821832        9.9373558525        2.7678895232
S             0.2983550172        9.0428033110        4.3992972586
S             0.2670396537        9.0522878754        1.1645987001
H             8.4111235597        2.3970630024        5.1235653153



     Writing config-only to output data dir ./MoS2-V-O.save/
     NEW-OLD atomic charge density approx. for the potential

     negative rho (up, down):  1.496E-04 0.000E+00

     total cpu time spent up to now is      183.0 secs

     Self-consistent Calculation

     iteration #  1     ecut=    80.00 Ry     beta= 0.70
     Davidson diagonalization with overlap
     ethr =  1.00E-06,  avg # of iterations = 10.0

     negative rho (up, down):  9.877E-05 0.000E+00

     total cpu time spent up to now is      195.4 secs

     total energy              =   -2205.54601900 Ry
     estimated scf accuracy    <       0.00121102 Ry

     iteration #  2     ecut=    80.00 Ry     beta= 0.70
     Davidson diagonalization with overlap
     ethr =  3.94E-07,  avg # of iterations =  2.0

     negative rho (up, down):  7.476E-05 0.000E+00

     total cpu time spent up to now is      212.2 secs

     total energy              =   -2205.54604109 Ry
     estimated scf accuracy    <       0.00024667 Ry

     iteration #  3     ecut=    80.00 Ry     beta= 0.70
     Davidson diagonalization with overlap
     ethr =  8.03E-08,  avg # of iterations =  6.0

     negative rho (up, down):  6.389E-05 0.000E+00

     total cpu time spent up to now is      231.2 secs

     total energy              =   -2205.54606860 Ry
     estimated scf accuracy    <       0.00004442 Ry

     iteration #  4     ecut=    80.00 Ry     beta= 0.70
     Davidson diagonalization with overlap
     ethr =  1.45E-08,  avg # of iterations =  5.0

     negative rho (up, down):  6.171E-05 0.000E+00

     total cpu time spent up to now is      245.7 secs

     total energy              =   -2205.54607579 Ry
     estimated scf accuracy    <       0.00000571 Ry

     iteration #  5     ecut=    80.00 Ry     beta= 0.70
     Davidson diagonalization with overlap
     ethr =  1.86E-09,  avg # of iterations =  5.0

     negative rho (up, down):  6.372E-05 0.000E+00

     total cpu time spent up to now is      257.5 secs

     total energy              =   -2205.54607681 Ry
     estimated scf accuracy    <       0.00000189 Ry

     iteration #  6     ecut=    80.00 Ry     beta= 0.70
     Davidson diagonalization with overlap
     ethr =  6.15E-10,  avg # of iterations =  5.0

     negative rho (up, down):  6.956E-05 0.000E+00

     total cpu time spent up to now is      267.3 secs

     total energy              =   -2205.54607704 Ry
     estimated scf accuracy    <       0.00000035 Ry

     iteration #  7     ecut=    80.00 Ry     beta= 0.70
     Davidson diagonalization with overlap
     ethr =  1.15E-10,  avg # of iterations =  5.0

     negative rho (up, down):  8.472E-05 0.000E+00

     total cpu time spent up to now is      280.6 secs

     total energy              =   -2205.54607700 Ry
     estimated scf accuracy    <       0.00000014 Ry

     iteration #  8     ecut=    80.00 Ry     beta= 0.70
     Davidson diagonalization with overlap
     ethr =  4.49E-11,  avg # of iterations =  5.0

     negative rho (up, down):  1.383E-04 0.000E+00

     total cpu time spent up to now is      282.7 secs

     End of self-consistent calculation

          k = 0.0000 0.0000 0.0000 (105382 PWs)   bands (ev):

   -62.8817 -62.8757 -62.8661 -62.8517 -62.8345 -62.8210 -62.8132 -62.8028
   -62.7824 -62.7779 -62.7493 -62.7355 -37.2313 -37.1633 -37.1525 -37.1384
   -37.1276 -37.1005 -37.0828 -37.0765 -37.0588 -37.0583 -37.0466 -37.0404
   -37.0313 -37.0233 -37.0163 -37.0135 -37.0008 -36.9984 -36.9964 -36.9713
   -36.9689 -36.9537 -36.9412 -36.9342 -36.9236 -36.9189 -36.9104 -36.8993
   -36.8917 -36.8847 -36.8659 -36.8396 -36.8195 -36.7953 -36.7533 -36.7145
   -16.0312 -15.2831 -15.1618 -15.0533 -14.9519 -14.8365 -14.6049 -14.5023
   -14.4644 -14.4480 -14.4259 -14.3721 -14.3335 -14.2994 -14.1775 -14.1570
   -14.1368 -14.1101 -14.0286 -13.9137 -13.8669 -13.8371 -13.7993  -8.2838
    -7.6023  -7.4646  -7.2921  -7.2794  -7.2204  -7.1931  -7.1633  -6.9752
    -6.8187  -6.8069  -6.7430  -6.6492  -6.5715  -6.5146  -6.4758  -6.4375
    -6.3339  -6.2513  -6.0746  -5.9648  -5.8985  -5.8510  -5.8224  -5.7899
    -5.7715  -5.7284  -5.6922  -5.6566  -5.6329  -5.5647  -5.5535  -5.4749
    -5.4242  -5.3427  -5.1894  -5.1330  -5.0624  -5.0271  -4.9729  -4.9640
    -4.9476  -4.8370  -4.6616  -4.5283  -4.3317  -4.3141  -4.2893  -4.2471
    -4.2330  -4.0825  -4.0526  -3.8847  -3.8337  -3.8098  -3.7476  -3.6891
    -3.6792  -3.5911  -3.5371  -3.5287  -3.5050  -3.4914  -3.4401  -3.3936
    -3.3578  -3.2235  -3.1654  -2.9071  -2.8937  -2.7892  -2.7707  -2.7220
    -2.7147  -2.6917  -2.6744  -2.6295  -2.5647  -2.2828  -2.1167  -2.0078
    -1.9514  -1.0076  -0.7879  -0.7077  -0.1662  -0.1582  -0.1128  -0.0396
     0.0288   0.1215   0.2024   0.2694   0.2993   0.3083   0.3774   0.4145
     0.4927   0.5236   0.5356   0.5830   0.6159   0.6521   0.7131   0.7436
     0.7569   0.7800   0.8509   0.9043   0.9417   0.9904   1.0034   1.3251
     1.4029

     the Fermi energy is    -1.0103 ev

!    total energy              =   -2205.54607684 Ry
     estimated scf accuracy    <       0.00000003 Ry
     smearing contrib. (-TS)   =      -0.00606963 Ry
     internal energy E=F+TS    =   -2205.54000721 Ry

     The total energy is F=E-TS. E is the sum of the following terms:
     one-electron contribution =  -18047.46052467 Ry
     hartree contribution      =    9010.46518351 Ry
     xc contribution           =    -385.25344873 Ry
     ewald contribution        =    7216.70878268 Ry

     convergence has been achieved in   8 iterations

     negative rho (up, down):  1.383E-04 0.000E+00

     Forces acting on atoms (cartesian axes, Ry/au):

     atom    1 type  1   force =    -0.00229163   -0.00018562   -0.00246373
     atom    2 type  2   force =     0.00083599    0.05540722    0.02453021
     atom    3 type  2   force =    -0.00964974    0.00217728   -0.01352462
     atom    4 type  1   force =     0.00410064    0.00064413    0.00167818
     atom    5 type  2   force =     0.00089259   -0.00589146   -0.00779648
     atom    6 type  2   force =     0.00014622    0.00485728    0.00106877
     atom    7 type  1   force =     0.00194892   -0.00731077    0.00165565
     atom    8 type  2   force =     0.00135137   -0.00431641    0.00788471
     atom    9 type  2   force =     0.00892218    0.00449210    0.00259936
     atom   10 type  1   force =    -0.00188644    0.00394427   -0.00529216
     atom   11 type  2   force =     0.00604160   -0.00060539   -0.01066753
     atom   12 type  2   force =    -0.00485201   -0.00345844   -0.00256024
     atom   13 type  1   force =     0.00252583    0.00207929    0.00011313
     atom   14 type  2   force =     0.00277876   -0.00061262    0.00398079
     atom   15 type  2   force =    -0.00839270   -0.00038409   -0.00688201
     atom   16 type  1   force =     0.00244670    0.00432307    0.00360627
     atom   17 type  2   force =     0.00331349    0.00261148    0.00076053
     atom   18 type  2   force =     0.00050016   -0.00155168    0.00551553
     atom   19 type  1   force =    -0.00030986   -0.00373689    0.00159212
     atom   20 type  2   force =     0.00152459   -0.00338905   -0.00430898
     atom   21 type  1   force =    -0.00071054    0.00051405    0.00274634
     atom   22 type  2   force =    -0.00105952   -0.00222860   -0.00267564
     atom   23 type  2   force =     0.00139866   -0.00027654    0.00283596
     atom   24 type  1   force =    -0.00415566    0.00141270   -0.00104542
     atom   25 type  2   force =     0.00624325    0.01026144   -0.00522537
     atom   26 type  2   force =     0.00104529   -0.00378859   -0.00847323
     atom   27 type  1   force =    -0.00326492   -0.00083926    0.00880418
     atom   28 type  2   force =    -0.00440245   -0.00661706   -0.00356328
     atom   29 type  2   force =     0.00332250    0.00358106   -0.00631065
     atom   30 type  1   force =     0.00141226   -0.00410798    0.00525089
     atom   31 type  2   force =     0.00059871   -0.00128876    0.00736434
     atom   32 type  2   force =    -0.00404175    0.00405239    0.00239614
     atom   33 type  1   force =     0.00033576    0.00074041    0.00468047
     atom   34 type  2   force =    -0.00368117   -0.01906291   -0.01579337
     atom   35 type  2   force =    -0.00201576    0.00427051    0.00107452
     atom   36 type  3   force =    -0.00097131   -0.03571659    0.00644459
     The non-local contrib.  to forces
     atom    1 type  1   force =     0.00526662    0.01495200   -0.00972224
     atom    2 type  2   force =     0.01270387    0.20050558   -0.13972986
     atom    3 type  2   force =    -0.00988694   -0.00691404    0.26582646
     atom    4 type  1   force =     0.00291784    0.00838171    0.00445441
     atom    5 type  2   force =     0.00993165   -0.02419478   -0.23816111
     atom    6 type  2   force =    -0.00218757    0.00522949    0.26614453
     atom    7 type  1   force =    -0.01856114    0.00296250   -0.02245786
     atom    8 type  2   force =     0.00417429   -0.00407010   -0.25834430
     atom    9 type  2   force =     0.00288876   -0.01099696    0.27302798
     atom   10 type  1   force =     0.00592176    0.00480268   -0.00899798
     atom   11 type  2   force =     0.00845354    0.00189319   -0.26096627
     atom   12 type  2   force =    -0.01424650   -0.02131106    0.25928805
     atom   13 type  1   force =     0.00013830    0.02250039   -0.00821780
     atom   14 type  2   force =     0.00666447   -0.00837114   -0.26375383
     atom   15 type  2   force =    -0.01083918   -0.00729609    0.26052236
     atom   16 type  1   force =    -0.00010482    0.03407739   -0.03524326
     atom   17 type  2   force =     0.00266884   -0.02735311   -0.24642508
     atom   18 type  2   force =     0.00002005    0.00470606    0.27229648
     atom   19 type  1   force =     0.01666457    0.00273003   -0.01273687
     atom   20 type  2   force =    -0.00108936   -0.01876600    0.26216740
     atom   21 type  1   force =     0.00061765    0.02345543    0.00416353
     atom   22 type  2   force =    -0.00651780    0.00493857   -0.25846726
     atom   23 type  2   force =     0.00746411   -0.01695893    0.26405398
     atom   24 type  1   force =     0.00218254    0.01528368   -0.00089129
     atom   25 type  2   force =     0.00120759    0.00175145   -0.26217381
     atom   26 type  2   force =     0.00757773   -0.01356795    0.25986222
     atom   27 type  1   force =    -0.00202889    0.00826501    0.00590859
     atom   28 type  2   force =    -0.04980445   -0.05014740   -0.22471899
     atom   29 type  2   force =     0.00657014    0.00062624    0.26631234
     atom   30 type  1   force =    -0.00118154    0.02104227    0.00570491
     atom   31 type  2   force =    -0.00435757    0.00210607   -0.25592850
     atom   32 type  2   force =     0.00076977   -0.01136322    0.27180056
     atom   33 type  1   force =    -0.00403671    0.00384799    0.00250746
     atom   34 type  2   force =    -0.00058832   -0.02329543   -0.27529638
     atom   35 type  2   force =    -0.00116449   -0.01329606    0.26343793
     atom   36 type  3   force =     0.00017423   -0.01789357   -0.01158560
     The ionic contribution  to forces
     atom    1 type  1   force =    -0.21733733    0.25340631    4.99755246
     atom    2 type  2   force =    -0.47435355   -1.36406684   39.05631069
     atom    3 type  2   force =    -0.19164714    0.02616573  -36.28326761
     atom    4 type  1   force =     0.13545585    0.76467549    0.23024078
     atom    5 type  2   force =    -1.41167259    1.74454741   38.39722774
     atom    6 type  2   force =     0.23568032   -0.54125328  -37.93490170
     atom    7 type  1   force =    -2.76303973   -2.33019768    2.58855360
     atom    8 type  2   force =    -0.99392438    0.22475501   37.63542720
     atom    9 type  2   force =     0.33862191   -0.07144937  -37.99861124
     atom   10 type  1   force =    -0.68958595    0.17287128    4.56869702
     atom   11 type  2   force =    -0.42929794   -1.54417006   39.01975402
     atom   12 type  2   force =     0.13288235    0.53934031  -37.82412348
     atom   13 type  1   force =     0.46727365    0.80033200    2.81106285
     atom   14 type  2   force =    -0.14049713   -0.10799230   38.64465005
     atom   15 type  2   force =     0.14637416   -0.06390941  -36.91896575
     atom   16 type  1   force =    -0.00164743    3.66922193    0.88176054
     atom   17 type  2   force =     0.73386257    1.48259490   37.97586046
     atom   18 type  2   force =    -0.05781695   -0.57662857  -38.47486413
     atom   19 type  1   force =     2.64765922   -2.21599600    0.63627808
     atom   20 type  2   force =     0.17704153   -0.13965474  -38.60338843
[...]
     atom   27 type  1   force =    -0.00223754    0.01046504    0.00303294
     atom   28 type  2   force =    -0.00562246   -0.01707103   -0.26134629
     atom   29 type  2   force =     0.00328832   -0.00423239    0.27092124
     atom   30 type  1   force =     0.00074873    0.02185145    0.00625668
     atom   31 type  2   force =    -0.00620888   -0.00085023   -0.26164145
     atom   32 type  2   force =     0.00545911   -0.01041664    0.26694900
     atom   33 type  1   force =    -0.00304494    0.00205798    0.00330131
     atom   34 type  2   force =     0.00981623   -0.01349054   -0.26291250
     atom   35 type  2   force =    -0.00587231   -0.01654731    0.26581842
     atom   36 type  3   force =     0.00029089   -0.03864516   -0.03905254
     The ionic contribution  to forces
     atom    1 type  1   force =    -0.27540748   -0.40454431    4.48484648
     atom    2 type  2   force =    -0.15501739   -2.17798087   38.67847789
     atom    3 type  2   force =     0.04121634    0.07277019  -36.71274098
     atom    4 type  1   force =    -0.15966350    0.51000071   -0.05791226
     atom    5 type  2   force =    -1.21371869    1.69051218   38.32799923
     atom    6 type  2   force =     0.10926809   -0.55167248  -37.97022046
     atom    7 type  1   force =    -2.95713649   -1.62762185    2.03020886
     atom    8 type  2   force =    -1.14888105    0.45337088   38.04547568
     atom    9 type  2   force =     0.27464194   -0.04286852  -38.16450793
     atom   10 type  1   force =    -0.35130991    1.04999892    1.07549537
     atom   11 type  2   force =    -0.35449530   -1.35762803   38.34909029
     atom   12 type  2   force =    -0.08384611    0.45288451  -38.18792163
     atom   13 type  1   force =     0.20169944    0.46050365    2.79870924
     atom   14 type  2   force =    -0.12369283   -0.35496077   38.53829981
     atom   15 type  2   force =     0.10542324   -0.08434115  -37.01175542
     atom   16 type  1   force =    -0.29072782    3.45363085    1.76546787
     atom   17 type  2   force =     0.81072159    1.27670785   38.22787137
     atom   18 type  2   force =    -0.10843876   -0.51690529  -37.96563259
     atom   19 type  1   force =     2.93674809   -1.68010954    2.05282312
     atom   20 type  2   force =    -0.05107800   -0.01792724  -38.66637137
     atom   21 type  1   force =     0.02521047   -0.15105258    1.60911277
     atom   22 type  2   force =     0.49325582   -1.49469911   38.44491701
     atom   23 type  2   force =    -0.13250699    0.50864078  -37.80576930
     atom   24 type  1   force =     0.01419765   -0.61486897    3.92493725
     atom   25 type  2   force =     0.31588998   -0.22445476   38.81754333
     atom   26 type  2   force =    -0.12784800    0.01952369  -37.21433387
     atom   27 type  1   force =     0.39436182    0.28671681   -0.26145687
     atom   28 type  2   force =     0.40547116    0.95963900   37.95462100
     atom   29 type  2   force =     0.02670772   -0.34848237  -37.62172156
     atom   30 type  1   force =     0.06790499   -0.36449006    0.83158753
     atom   31 type  2   force =     1.22093070    0.27894718   38.16707331
     atom   32 type  2   force =    -0.26146328   -0.01235438  -38.23710474
     atom   33 type  1   force =     0.35302323   -0.28528931    2.78635993
     atom   34 type  2   force =    -0.15714203   -0.36205640   38.44670550
     atom   35 type  2   force =     0.19593908    0.35463576  -37.81216968
     atom   36 type  3   force =    -0.04023772    0.84582501    8.33199581
     The local contribution  to forces
     atom    1 type  1   force =     0.27367833    0.39311196   -4.47588790
     atom    2 type  2   force =     0.16871220    1.91480104  -38.68049581
     atom    3 type  2   force =    -0.03908948   -0.06167890   36.46000013
     atom    4 type  1   force =     0.15706128   -0.51903473    0.05186074
     atom    5 type  2   force =     1.20242914   -1.67356649  -38.11004512
     atom    6 type  2   force =    -0.11032132    0.55183604   37.72540878
     atom    7 type  1   force =     2.97411712    1.62239859   -2.00548269
     atom    8 type  2   force =     1.14254795   -0.45257078  -37.80338266
     atom    9 type  2   force =    -0.26910577    0.05508487   37.91735656
     atom   10 type  1   force =     0.34430550   -1.06156622   -1.06876319
     atom   11 type  2   force =     0.35970465    1.36121088  -38.11812697
     atom   12 type  2   force =     0.08653631   -0.43602821   37.94473125
     atom   13 type  1   force =    -0.20181028   -0.48578125   -2.79327127
     atom   14 type  2   force =     0.11766964    0.35965001  -38.29590380
     atom   15 type  2   force =    -0.10209676    0.09407157   36.76986785
     atom   16 type  1   force =     0.29319551   -3.49411468   -1.72669001
     atom   17 type  2   force =    -0.80887861   -1.25168987  -37.99402093
     atom   18 type  2   force =     0.10894224    0.51539278   37.71809112
     atom   19 type  1   force =    -2.95810029    1.67275212   -2.03817247
     atom   20 type  2   force =     0.05073305    0.03007958   38.42452743
     atom   21 type  1   force =    -0.02598042    0.12931250   -1.61256047
     atom   22 type  2   force =    -0.48740723    1.49057112  -38.20956900
     atom   23 type  2   force =     0.12689184   -0.49479556   37.56437479
     atom   24 type  1   force =    -0.00973807    0.60264525   -3.91748135
     atom   25 type  2   force =    -0.31276875    0.22950025  -38.57676837
     atom   26 type  2   force =     0.12192562   -0.01042993   36.96839670
     atom   27 type  1   force =    -0.39236398   -0.29726813    0.25940716
     atom   28 type  2   force =    -0.40109663   -0.94484085  -37.71292288
     atom   29 type  2   force =    -0.02928478    0.35311624   37.37241504
     atom   30 type  1   force =    -0.06847175    0.34212348   -0.83743255
     atom   31 type  2   force =    -1.21387561   -0.27737428  -37.92594424
     atom   32 type  2   force =     0.25587315    0.02307846   37.98956411
     atom   33 type  1   force =    -0.34962027    0.28328531   -2.78948010
     atom   34 type  2   force =     0.14843392    0.37509408  -38.20408812
     atom   35 type  2   force =    -0.19036216   -0.33995196   37.56767840
     atom   36 type  3   force =     0.03897504   -0.80747808   -8.29407623
     The core correction contribution to forces
     atom    1 type  1   force =     0.00000000    0.00000000    0.00000000
     atom    2 type  2   force =     0.00068063   -0.01831461    0.00240348
     atom    3 type  2   force =     0.00010830    0.00083307   -0.02126618
     atom    4 type  1   force =     0.00000000    0.00000000    0.00000000
     atom    5 type  2   force =    -0.00086778    0.00126324    0.01937801
     atom    6 type  2   force =     0.00015337   -0.00059591   -0.02082575
     atom    7 type  1   force =     0.00000000    0.00000000    0.00000000
     atom    8 type  2   force =    -0.00026946    0.00043429    0.02069629
     atom    9 type  2   force =     0.00059789    0.00063022   -0.02090790
     atom   10 type  1   force =     0.00000000    0.00000000    0.00000000
     atom   11 type  2   force =     0.00054489   -0.00012130    0.02026233
     atom   12 type  2   force =     0.00011912    0.00106305   -0.02092023
     atom   13 type  1   force =     0.00000000    0.00000000    0.00000000
     atom   14 type  2   force =    -0.00044490   -0.00025360    0.02053938
     atom   15 type  2   force =     0.00037834    0.00051645   -0.02063399
     atom   16 type  1   force =     0.00000000    0.00000000    0.00000000
     atom   17 type  2   force =     0.00024561    0.00125054    0.02025750
     atom   18 type  2   force =    -0.00009316   -0.00055562   -0.02089382
     atom   19 type  1   force =     0.00000000    0.00000000    0.00000000
     atom   20 type  2   force =    -0.00012218    0.00053036   -0.02116555
     atom   21 type  1   force =     0.00000000    0.00000000    0.00000000
     atom   22 type  2   force =     0.00009537   -0.00041148    0.02038882
     atom   23 type  2   force =    -0.00053007    0.00110030   -0.02067440
     atom   24 type  1   force =     0.00000000    0.00000000    0.00000000
     atom   25 type  2   force =     0.00035585    0.00004385    0.02050195
     atom   26 type  2   force =    -0.00047061    0.00051841   -0.02091323
     atom   27 type  1   force =     0.00000000    0.00000000    0.00000000
     atom   28 type  2   force =     0.00046029    0.00138964    0.02035880
     atom   29 type  2   force =    -0.00016156   -0.00008664   -0.02089955
     atom   30 type  1   force =     0.00000000    0.00000000    0.00000000
     atom   31 type  2   force =     0.00029081    0.00028659    0.02067787
     atom   32 type  2   force =    -0.00050351    0.00052523   -0.02090796
     atom   33 type  1   force =     0.00000000    0.00000000    0.00000000
     atom   34 type  2   force =    -0.00056228    0.00053369    0.02069002
     atom   35 type  2   force =     0.00048615    0.00090673   -0.02086462
     atom   36 type  3   force =     0.00000000    0.00000000    0.00000000
     The Hubbard contrib.    to forces
     atom    1 type  1   force =     0.00000000    0.00000000    0.00000000
     atom    2 type  2   force =     0.00000000    0.00000000    0.00000000
     atom    3 type  2   force =     0.00000000    0.00000000    0.00000000
     atom    4 type  1   force =     0.00000000    0.00000000    0.00000000
     atom    5 type  2   force =     0.00000000    0.00000000    0.00000000
     atom    6 type  2   force =     0.00000000    0.00000000    0.00000000
     atom    7 type  1   force =     0.00000000    0.00000000    0.00000000
     atom    8 type  2   force =     0.00000000    0.00000000    0.00000000
     atom    9 type  2   force =     0.00000000    0.00000000    0.00000000
     atom   10 type  1   force =     0.00000000    0.00000000    0.00000000
     atom   11 type  2   force =     0.00000000    0.00000000    0.00000000
     atom   12 type  2   force =     0.00000000    0.00000000    0.00000000
     atom   13 type  1   force =     0.00000000    0.00000000    0.00000000
     atom   14 type  2   force =     0.00000000    0.00000000    0.00000000
     atom   15 type  2   force =     0.00000000    0.00000000    0.00000000
     atom   16 type  1   force =     0.00000000    0.00000000    0.00000000
     atom   17 type  2   force =     0.00000000    0.00000000    0.00000000
     atom   18 type  2   force =     0.00000000    0.00000000    0.00000000
     atom   19 type  1   force =     0.00000000    0.00000000    0.00000000
     atom   20 type  2   force =     0.00000000    0.00000000    0.00000000
     atom   21 type  1   force =     0.00000000    0.00000000    0.00000000
     atom   22 type  2   force =     0.00000000    0.00000000    0.00000000
     atom   23 type  2   force =     0.00000000    0.00000000    0.00000000
     atom   24 type  1   force =     0.00000000    0.00000000    0.00000000
     atom   25 type  2   force =     0.00000000    0.00000000    0.00000000
     atom   26 type  2   force =     0.00000000    0.00000000    0.00000000
     atom   27 type  1   force =     0.00000000    0.00000000    0.00000000
     atom   28 type  2   force =     0.00000000    0.00000000    0.00000000
     atom   29 type  2   force =     0.00000000    0.00000000    0.00000000
     atom   30 type  1   force =     0.00000000    0.00000000    0.00000000
     atom   31 type  2   force =     0.00000000    0.00000000    0.00000000
     atom   32 type  2   force =     0.00000000    0.00000000    0.00000000
     atom   33 type  1   force =     0.00000000    0.00000000    0.00000000
     atom   34 type  2   force =     0.00000000    0.00000000    0.00000000
     atom   35 type  2   force =     0.00000000    0.00000000    0.00000000
     atom   36 type  3   force =     0.00000000    0.00000000    0.00000000
     The SCF correction term to forces
     atom    1 type  1   force =     0.00000791   -0.00001009    0.00003515
     atom    2 type  2   force =     0.00000081   -0.00000097    0.00002791
     atom    3 type  2   force =    -0.00000004    0.00000234    0.00000584
     atom    4 type  1   force =    -0.00000457   -0.00003142    0.00002531
     atom    5 type  2   force =     0.00000040   -0.00001681    0.00001439
     atom    6 type  2   force =     0.00000083   -0.00001406    0.00000983
     atom    7 type  1   force =     0.00000481    0.00001512    0.00003978
     atom    8 type  2   force =    -0.00000013    0.00000482    0.00002130
     atom    9 type  2   force =     0.00000588   -0.00000328    0.00000221
     atom   10 type  1   force =     0.00000106    0.00002263    0.00004537
     atom   11 type  2   force =    -0.00000020    0.00001754    0.00002541
     atom   12 type  2   force =    -0.00000015    0.00001207    0.00000574
     atom   13 type  1   force =     0.00001163   -0.00001326    0.00003145
     atom   14 type  2   force =     0.00000454   -0.00000573    0.00002376
     atom   15 type  2   force =    -0.00000031   -0.00000063    0.00001029
     atom   16 type  1   force =     0.00000941   -0.00002819    0.00002723
     atom   17 type  2   force =     0.00000311   -0.00001170    0.00001311
     atom   18 type  2   force =     0.00000222   -0.00001250    0.00000104
     atom   19 type  1   force =     0.00000462    0.00001511    0.00003996
     atom   20 type  2   force =     0.00000174   -0.00000692    0.00000247
     atom   21 type  1   force =     0.00000779    0.00003674    0.00004911
     atom   22 type  2   force =     0.00000279    0.00001416    0.00002441
     atom   23 type  2   force =    -0.00000045    0.00001555    0.00000701
     atom   24 type  1   force =    -0.00000765   -0.00001257    0.00003559
     atom   25 type  2   force =    -0.00000104   -0.00000896    0.00001671
     atom   26 type  2   force =    -0.00000117   -0.00000236    0.00000530
     atom   27 type  1   force =     0.00000027   -0.00002759    0.00002062
     atom   28 type  2   force =    -0.00000689   -0.00001606    0.00000856
     atom   29 type  2   force =     0.00000109   -0.00000812    0.00000434
     atom   30 type  1   force =    -0.00000479    0.00001840    0.00003385
     atom   31 type  2   force =    -0.00000595    0.00000333    0.00001982
     atom   32 type  2   force =    -0.00000748   -0.00000088    0.00000066
     atom   33 type  1   force =     0.00000034    0.00003307    0.00003741
     atom   34 type  2   force =    -0.00000428    0.00001422    0.00002228
     atom   35 type  2   force =    -0.00000069    0.00001163    0.00000784
     atom   36 type  3   force =    -0.00000077   -0.00000288    0.00000262

     Total force =     0.006252     Total SCF correction =     0.000175
     Energy error            =      9.9E-05 Ry
     Gradient error          =      1.7E-03 Ry/Bohr

     bfgs converged in  21 scf cycles and  20 bfgs steps
     (criteria: energy <  1.0E-04 Ry, force <  1.0E-02 Ry/Bohr)

     End of BFGS Geometry Optimization

     Final energy             =   -2205.5876764166 Ry

     File ./MoS2-V-O.bfgs deleted, as requested
Begin final coordinates

ATOMIC_POSITIONS (angstrom)
Mo            6.5756311944        1.7870491325        2.8018367463
S             8.1438960510        0.9971101635        4.5326436085
S             8.1433328172        0.8629419243        1.2108520155
Mo            8.1368906884        4.5082587476        2.7017390469
S             6.5310081602        3.7114563574        4.3196782978
S             6.5709659107        3.5557909166        1.1128103189
Mo            6.5242960091        7.1795468898        2.6435023396
S             8.1024074053        6.3234061819        4.2745940761
S             8.1495234891        6.3240823469        1.0856144882
Mo            8.1334411341        9.9122869009        2.7065645421
S             6.5440560403        8.9449546726        4.3026371352
S             6.5909593017        9.0264752507        1.0969153011
Mo            3.4355329864        1.7648067860        2.7638480512
S             4.9901678708        0.8135249397        4.3541913783
S             5.0196486056        0.8549901131        1.1895661806
Mo            5.0088754551        4.5513640737        2.6499879008
S             3.4729725936        3.6821106035        4.2984222527
S             3.4478105478        3.5608600741        1.1062428605
Mo            3.4652674775        7.1999033751        2.6452986539
S             4.9904241073        6.3157358717        1.0271382191
Mo            5.0120795202        9.9082265188        2.7298968009
S             3.4644057925        8.9577073602        4.3128374145
S             3.4108400996        9.0563612046        1.1187938502
Mo            0.2714066386        1.7655838566        2.8029558460
S             1.8750105887        0.8494827291        4.3729801722
S             1.8472894731        0.8603463255        1.1836523664
Mo            1.8821131223        4.5110806192        2.6917636685
S             0.2933785931        3.6561712397        4.3115613180
S             0.2745434737        3.5513438400        1.1430142131
Mo            0.2792754920        7.2234318032        2.7022434522
S             1.9091493558        6.3233579389        4.2827767531
S             1.8601221934        6.3262661209        1.0811109208
Mo            1.8520246063        9.9499555901        2.7574500509
S             0.2572820747        9.0334417623        4.3242725306
S             0.2776741311        9.0638899578        1.1357364072
H             8.1346529003        1.9962886667        5.5156183989
End final coordinates



     Writing all to output data dir ./MoS2-V-O.save/
 
     init_run     :      2.55s CPU      2.83s WALL (       1 calls)
     electrons    :   1898.83s CPU   2114.89s WALL (      21 calls)
     update_pot   :     27.96s CPU     29.43s WALL (      20 calls)
     forces       :     27.33s CPU     31.04s WALL (      21 calls)

     Called by init_run:
     wfcinit      :      0.47s CPU      0.51s WALL (       1 calls)
     potinit      :      1.35s CPU      1.47s WALL (       1 calls)
     hinit0       :      0.16s CPU      0.18s WALL (       1 calls)

     Called by electrons:
     c_bands      :    220.76s CPU    224.07s WALL (     184 calls)
     sum_band     :     52.12s CPU     64.28s WALL (     184 calls)
     v_of_rho     :     74.69s CPU     89.94s WALL (     194 calls)
     newd         :     25.48s CPU     36.65s WALL (     194 calls)
     mix_rho      :   1534.36s CPU   1708.09s WALL (     184 calls)

     Called by c_bands:
     init_us_2    :      3.92s CPU      4.21s WALL (     369 calls)
     init_us_2:cp :      3.91s CPU      4.21s WALL (     369 calls)
     regterg      :    207.07s CPU    210.05s WALL (     184 calls)

     Called by *egterg:
     rdiaghg      :     17.35s CPU     17.56s WALL (     996 calls)
     h_psi        :    119.80s CPU    120.97s WALL (    1028 calls)
     s_psi        :     15.17s CPU     15.22s WALL (    1028 calls)
     g_psi        :      0.77s CPU      0.78s WALL (     843 calls)

     Called by h_psi:
     h_psi:calbec :     16.81s CPU     16.90s WALL (    1028 calls)
     vloc_psi     :     86.27s CPU     87.23s WALL (    1028 calls)
     add_vuspsi   :     14.99s CPU     15.10s WALL (    1028 calls)

     General routines
     calbec       :     23.91s CPU     24.03s WALL (    1296 calls)
     fft          :     47.82s CPU     56.87s WALL (   13062 calls)
     ffts         :    688.46s CPU    856.26s WALL (  376614 calls)
     fftw         :     74.23s CPU     74.92s WALL (  110786 calls)
     interpolate  :      1.39s CPU      1.66s WALL (     194 calls)
 
     Parallel routines
 
     PWSCF        :  32m40.44s CPU  36m24.64s WALL

 
   This run was terminated on:   0:16:22   4Nov2023            

=------------------------------------------------------------------------------=
   JOB DONE.
=------------------------------------------------------------------------------=
