
     Program PWSCF v.7.2 starts on  3Nov2023 at 20:51:14 

     This program is part of the open-source Quantum ESPRESSO suite
     for quantum simulation of materials; please cite
         "P. Giannozzi et al., J. Phys.:Condens. Matter 21 395502 (2009);
         "P. Giannozzi et al., J. Phys.:Condens. Matter 29 465901 (2017);
         "P. Giannozzi et al., J. Chem. Phys. 152 154105 (2020);
          URL http://www.quantum-espresso.org", 
     in publications or presentations arising from this work. More details at
     http://www.quantum-espresso.org/quote

     Parallel version (MPI & OpenMP), running on      48 processor cores
     Number of MPI processes:                48
     Threads/MPI process:                     1

     MPI processes distributed on     1 nodes
     65436 MiB available memory on the printing compute node when the environment starts
 
     Waiting for input...
     Reading input from standard input
Warning: card &CELL ignored
Warning: card CELL_DYNAMICS = 'BFGS', ignored
Warning: card CELL_DOFREE = '2DXY' ignored
Warning: card / ignored

     Current dimensions of program PWSCF are:
     Max number of different atomic species (ntypx) = 10
     Max number of k-points (npk) =  40000
     Max angular momentum in pseudopotentials (lmaxx) =  4

     IMPORTANT: XC functional enforced from input :
     Exchange-correlation= RVV10
                           (   1   4  13   4  26   0   0)
     Any further DFT definition will be discarded
     Please, verify this is what you really want


     gamma-point specific algorithms are used
     signal trapping enabled: kill the code with -SIGUSR1 to stop cleanly the simulation 
 
     R & G space division:  proc/nbgrp/npool/nimage =      48
     Subspace diagonalization in iterative solution of the eigenvalue problem:
     one sub-group per band group will be used
     scalapack distributed-memory algorithm (size of sub-group:  2*  2 procs)

 
     Parallelization info
     --------------------
     sticks:   dense  smooth     PW     G-vecs:    dense   smooth      PW
     Min         243     194     47                49060    35090    4376
     Max         246     196     50                49086    35128    4410
     Sum       11735    9389   2349              2355467  1685513  210763
 
     Using Slab Decomposition
 


     bravais-lattice index     =            0
     lattice parameter (alat)  =      17.8707  a.u.
     unit-cell volume          =   17436.2743 (a.u.)^3
     number of atoms/cell      =           36
     number of atomic types    =            3
     number of electrons       =       307.00
     number of Kohn-Sham states=          185
     kinetic-energy cutoff     =      80.0000  Ry
     charge density cutoff     =     400.0000  Ry
     scf convergence threshold =      1.0E-06
     mixing beta               =       0.7000
     number of iterations used =            8  local-TF  mixing
     energy convergence thresh.=      1.0E-04
     force convergence thresh. =      1.0E-02
     Exchange-correlation= RVV10
                           (   1   4  13   4  26   0   0)
     nstep                     =          200


     celldm(1)=  17.870686  celldm(2)=   0.000000  celldm(3)=   0.000000
     celldm(4)=   0.000000  celldm(5)=   0.000000  celldm(6)=   0.000000

     crystal axes: (cart. coord. in units of alat)
               a(1) = (   1.000000   0.000000   0.000000 )  
               a(2) = (   0.000000   1.155671   0.000000 )  
               a(3) = (   0.000000   0.000000   2.643601 )  

     reciprocal axes: (cart. coord. in units 2 pi/alat)
               b(1) = (  1.000000  0.000000  0.000000 )  
               b(2) = (  0.000000  0.865298  0.000000 )  
               b(3) = (  0.000000  0.000000  0.378272 )  


     PseudoPot. # 1 for Mo read from file:
     ../pseudo/Mo_ONCV_PBE-1.0.oncvpsp.upf
     MD5 check sum: 1b5d28e075c9ccadda658a603575cd1f
     Pseudo is Norm-conserving, Zval = 14.0
     Generated using ONCVPSP code by D. R. Hamann
     Using radial grid of 1526 points,  6 beta functions with: 
                l(1) =   0
                l(2) =   0
                l(3) =   1
                l(4) =   1
                l(5) =   2
                l(6) =   2

     PseudoPot. # 2 for S  read from file:
     ../pseudo/s_pbe_v1.4.uspp.F.UPF
     MD5 check sum: 88d86576ff6df21479756cfb9bdac1df
     Pseudo is Ultrasoft + core correction, Zval =  6.0
     Generated by new atomic code, or converted to UPF format
     Using radial grid of  907 points,  6 beta functions with: 
                l(1) =   0
                l(2) =   0
                l(3) =   1
                l(4) =   1
                l(5) =   2
                l(6) =   2
     Q(r) pseudized with  8 coefficients,  rinner =    1.300   1.300   1.300
                                                       1.300   1.300

     PseudoPot. # 3 for H  read from file:
     ../pseudo/H_ONCV_PBE-1.0.oncvpsp.upf
     MD5 check sum: 1790becc920ee074925cf490c71280fe
     Pseudo is Norm-conserving, Zval =  1.0
     Generated using ONCVPSP code by D. R. Hamann
     Using radial grid of 1166 points,  2 beta functions with: 
                l(1) =   0
                l(2) =   0

     atomic species   valence    mass     pseudopotential
        Mo            14.00    95.94000     Mo( 1.00)
        S              6.00    32.06500     S ( 1.00)
        H              1.00     1.00794     H ( 1.00)

     No symmetry found



   Cartesian axes

     site n.     atom                  positions (alat units)
         1           Mo  tau(   1) = (   0.6952221   0.1890506   0.2985846  )
         2           S   tau(   2) = (   0.8646417   0.0856217   0.4689279  )
         3           S   tau(   3) = (   0.8663890   0.0857843   0.1351291  )
         4           Mo  tau(   4) = (   0.8560186   0.4753274   0.2873942  )
         5           S   tau(   5) = (   0.6873294   0.3936244   0.4596353  )
         6           S   tau(   6) = (   0.6929804   0.3713468   0.1185692  )
         7           Mo  tau(   7) = (   0.6862796   0.7633098   0.2825370  )
         8           S   tau(   8) = (   0.8545980   0.6708292   0.4486168  )
         9           S   tau(   9) = (   0.8545123   0.6666874   0.1146125  )
        10           Mo  tau(  10) = (   0.8629403   1.0471007   0.3006803  )
        11           S   tau(  11) = (   0.6868280   0.9456650   0.4634891  )
        12           S   tau(  12) = (   0.6998113   0.9568511   0.1205389  )
        13           Mo  tau(  13) = (   0.3618216   0.1847309   0.2935964  )
        14           S   tau(  14) = (   0.5260962   0.0863870   0.4600448  )
        15           S   tau(  15) = (   0.5348379   0.0894875   0.1297123  )
        16           Mo  tau(  16) = (   0.5265817   0.4772436   0.2784130  )
        17           S   tau(  17) = (   0.3624753   0.3882513   0.4525556  )
        18           S   tau(  18) = (   0.3635411   0.3752055   0.1119148  )
        19           Mo  tau(  19) = (   0.3652268   0.7630864   0.2781795  )
        20           S   tau(  20) = (   0.5269494   0.6690381   0.1096838  )
        21           Mo  tau(  21) = (   0.5300192   1.0470394   0.2900995  )
        22           S   tau(  22) = (   0.3670346   0.9457522   0.4574073  )
        23           S   tau(  23) = (   0.3604225   0.9585725   0.1159032  )
        24           Mo  tau(  24) = (   0.0313099   0.1847895   0.3013130  )
        25           S   tau(  25) = (   0.1956761   0.0838230   0.4650863  )
        26           S   tau(  26) = (   0.1967693   0.0903508   0.1278874  )
        27           Mo  tau(  27) = (   0.1967578   0.4753919   0.2813011  )
        28           S   tau(  28) = (   0.0287851   0.3864324   0.4586755  )
        29           S   tau(  29) = (   0.0244514   0.3729871   0.1239344  )
        30           Mo  tau(  30) = (   0.0286728   0.7631204   0.2856894  )
        31           S   tau(  31) = (   0.2011512   0.6675435   0.4465001  )
        32           S   tau(  32) = (   0.1969214   0.6672839   0.1104564  )
        33           Mo  tau(  33) = (   0.1950294   1.0511147   0.2932237  )
        34           S   tau(  34) = (   0.0312912   0.9612169   0.4667423  )
        35           S   tau(  35) = (   0.0292670   0.9563028   0.1216485  )
        36           H   tau(  36) = (   0.0000000   0.0000000   0.5650415  )

     number of k points=     1  Gaussian smearing, width (Ry)=  0.0100
                       cart. coord. in units 2pi/alat
        k(    1) = (   0.0000000   0.0000000   0.0000000), wk =   2.0000000

     Dense  grid:  1177734 G-vectors     FFT dimensions: ( 120, 135, 320)

     Smooth grid:   842757 G-vectors     FFT dimensions: ( 108, 120, 270)

     Estimated max dynamical RAM per process >     146.59 MB

     Estimated total dynamical RAM >       6.87 GB

     Initial potential from superposition of free atoms

     starting charge     306.9873, renormalised to     307.0000

     negative rho (up, down):  1.412E-04 0.000E+00


---------------------------------------------------------------------------------
Carrying out rVV10 run using the following parameters:
Nqs =      20    Nr_points =    1024   r_max =   100.000
b_value =  6.30000    beta =  0.00901
     q_mesh =  0.00010000  0.00030000  0.00058939  0.00100810
               0.00161396  0.00249058  0.00375900  0.00559430
               0.00824984  0.01209221  0.01765183  0.02569619
               0.03733578  0.05417739  0.07854596  0.11380545
               0.16482331  0.23864234  0.34545298  0.50000000

Gradients computed in Reciprocal space

---------------------------------------------------------------------------------


     Starting wfcs are  213 randomized atomic wfcs

     total cpu time spent up to now is        2.8 secs

     Self-consistent Calculation

     iteration #  1     ecut=    80.00 Ry     beta= 0.70
     Davidson diagonalization with overlap
     ethr =  1.00E-02,  avg # of iterations =  2.0

     Threshold (ethr) on eigenvalues was too large:
     Diagonalizing with lowered threshold

     Davidson diagonalization with overlap
     ethr =  3.47E-04,  avg # of iterations =  4.0

     negative rho (up, down):  1.870E-08 0.000E+00

     total cpu time spent up to now is       18.9 secs

     total energy              =   -2205.60236696 Ry
     estimated scf accuracy    <       1.36454837 Ry

     iteration #  2     ecut=    80.00 Ry     beta= 0.70
     Davidson diagonalization with overlap
     ethr =  4.44E-04,  avg # of iterations =  2.0

     total cpu time spent up to now is       21.7 secs

     total energy              =   -2205.42915044 Ry
     estimated scf accuracy    <       0.55733065 Ry

     iteration #  3     ecut=    80.00 Ry     beta= 0.70
     Davidson diagonalization with overlap
     ethr =  1.82E-04,  avg # of iterations =  4.0

     total cpu time spent up to now is       24.6 secs

     total energy              =   -2205.53226076 Ry
     estimated scf accuracy    <       0.05028684 Ry

     iteration #  4     ecut=    80.00 Ry     beta= 0.70
     Davidson diagonalization with overlap
     c_bands:  2 eigenvalues not converged
     ethr =  1.64E-05,  avg # of iterations = 20.0

     total cpu time spent up to now is       28.4 secs

     total energy              =   -2205.53252549 Ry
     estimated scf accuracy    <       0.02478498 Ry

     iteration #  5     ecut=    80.00 Ry     beta= 0.70
     Davidson diagonalization with overlap
     ethr =  8.07E-06,  avg # of iterations =  8.0

     total cpu time spent up to now is       31.2 secs

     total energy              =   -2205.53291173 Ry
     estimated scf accuracy    <       0.01972114 Ry

     iteration #  6     ecut=    80.00 Ry     beta= 0.70
     Davidson diagonalization with overlap
     ethr =  6.42E-06,  avg # of iterations =  1.0

     total cpu time spent up to now is       33.6 secs

     total energy              =   -2205.53137211 Ry
     estimated scf accuracy    <       0.01210375 Ry

     iteration #  7     ecut=    80.00 Ry     beta= 0.70
     Davidson diagonalization with overlap
     ethr =  3.94E-06,  avg # of iterations =  1.0

     negative rho (up, down):  2.527E-05 0.000E+00

     total cpu time spent up to now is       39.1 secs

     total energy              =   -2205.53005653 Ry
     estimated scf accuracy    <       0.00619260 Ry

     iteration #  8     ecut=    80.00 Ry     beta= 0.70
     Davidson diagonalization with overlap
     ethr =  2.02E-06,  avg # of iterations =  4.0

     negative rho (up, down):  1.290E-02 0.000E+00

     total cpu time spent up to now is       43.7 secs

     total energy              =   -2205.52970630 Ry
     estimated scf accuracy    <       0.00317132 Ry

     iteration #  9     ecut=    80.00 Ry     beta= 0.70
     Davidson diagonalization with overlap
     ethr =  1.03E-06,  avg # of iterations =  2.0

     negative rho (up, down):  3.442E-02 0.000E+00

     total cpu time spent up to now is       48.8 secs

     total energy              =   -2205.52981916 Ry
     estimated scf accuracy    <       0.00174109 Ry

     iteration # 10     ecut=    80.00 Ry     beta= 0.70
     Davidson diagonalization with overlap
     ethr =  5.67E-07,  avg # of iterations =  2.0

     negative rho (up, down):  2.712E-02 0.000E+00

     total cpu time spent up to now is       53.6 secs

     total energy              =   -2205.52984813 Ry
     estimated scf accuracy    <       0.00049945 Ry

     iteration # 11     ecut=    80.00 Ry     beta= 0.70
     Davidson diagonalization with overlap
     ethr =  1.63E-07,  avg # of iterations =  4.0

     negative rho (up, down):  9.841E-03 0.000E+00

     total cpu time spent up to now is       60.4 secs

     total energy              =   -2205.52988365 Ry
     estimated scf accuracy    <       0.00012398 Ry

     iteration # 12     ecut=    80.00 Ry     beta= 0.70
     Davidson diagonalization with overlap
     ethr =  4.04E-08,  avg # of iterations =  4.0

     negative rho (up, down):  2.911E-03 0.000E+00

     total cpu time spent up to now is       66.4 secs

     total energy              =   -2205.52993022 Ry
     estimated scf accuracy    <       0.00001332 Ry

     iteration # 13     ecut=    80.00 Ry     beta= 0.70
     Davidson diagonalization with overlap
     ethr =  4.34E-09,  avg # of iterations =  5.0

     negative rho (up, down):  6.035E-04 0.000E+00

     total cpu time spent up to now is       77.7 secs

     total energy              =   -2205.52993450 Ry
     estimated scf accuracy    <       0.00000251 Ry

     iteration # 14     ecut=    80.00 Ry     beta= 0.70
     Davidson diagonalization with overlap
     ethr =  8.18E-10,  avg # of iterations =  4.0

     negative rho (up, down):  1.381E-04 0.000E+00

     total cpu time spent up to now is       80.3 secs

     End of self-consistent calculation

          k = 0.0000 0.0000 0.0000 (105382 PWs)   bands (ev):

   -62.8942 -62.8738 -62.8631 -62.8306 -62.8130 -62.8036 -62.7984 -62.7940
   -62.7911 -62.7780 -62.7602 -62.7567 -37.2334 -37.1681 -37.1382 -37.1333
   -37.1271 -37.0991 -37.0831 -37.0741 -37.0614 -37.0602 -37.0479 -37.0378
   -37.0302 -37.0216 -37.0070 -36.9977 -36.9911 -36.9874 -36.9801 -36.9732
   -36.9661 -36.9556 -36.9422 -36.9366 -36.9303 -36.9260 -36.9118 -36.9048
   -36.8964 -36.8770 -36.8570 -36.8418 -36.8194 -36.7886 -36.7438 -36.7178
   -16.0271 -15.2542 -15.1675 -15.0266 -14.9780 -14.8155 -14.5873 -14.5154
   -14.4795 -14.4300 -14.4090 -14.3769 -14.3400 -14.2835 -14.1681 -14.1454
   -14.1268 -14.0976 -14.0244 -13.9511 -13.8479 -13.8282 -13.8010  -8.1475
    -7.6086  -7.4587  -7.2817  -7.2603  -7.2107  -7.1882  -7.1305  -6.8920
    -6.8419  -6.8054  -6.7536  -6.7369  -6.5484  -6.4943  -6.4586  -6.4410
    -6.3638  -6.2510  -6.0165  -5.9964  -5.9179  -5.8547  -5.8312  -5.8040
    -5.7777  -5.7450  -5.6685  -5.6539  -5.6087  -5.5671  -5.5297  -5.4667
    -5.4223  -5.3681  -5.1759  -5.1724  -5.0779  -5.0582  -4.9863  -4.9432
    -4.9260  -4.8248  -4.6498  -4.5128  -4.3561  -4.3265  -4.2887  -4.2601
    -4.2221  -4.0701  -4.0277  -3.9732  -3.8147  -3.7604  -3.7317  -3.7005
    -3.6633  -3.5754  -3.5611  -3.5319  -3.5031  -3.4793  -3.4493  -3.3820
    -3.3724  -3.2067  -3.1334  -2.9120  -2.8832  -2.7976  -2.7701  -2.7361
    -2.7129  -2.6811  -2.6476  -2.6276  -2.5696  -2.2971  -2.0452  -2.0062
    -1.9790  -1.0930  -0.7746  -0.7235  -0.1725  -0.1347  -0.0563  -0.0366
     0.1176   0.1408   0.1949   0.2345   0.2525   0.2775   0.3920   0.4113
     0.4622   0.5329   0.5425   0.5716   0.6155   0.6828   0.7203   0.7487
     0.7754   0.7900   0.8659   0.8876   0.9386   1.0006   1.0422   1.3504
     1.3877

     the Fermi energy is    -1.0931 ev

!    total energy              =   -2205.52993795 Ry
     estimated scf accuracy    <       0.00000037 Ry
     smearing contrib. (-TS)   =      -0.00566896 Ry
     internal energy E=F+TS    =   -2205.52426900 Ry

     The total energy is F=E-TS. E is the sum of the following terms:
     one-electron contribution =  -18048.79495611 Ry
     hartree contribution      =    9011.16821109 Ry
     xc contribution           =    -385.24723403 Ry
     ewald contribution        =    7217.34971004 Ry

     convergence has been achieved in  14 iterations

     negative rho (up, down):  1.381E-04 0.000E+00

     Forces acting on atoms (cartesian axes, Ry/au):

     atom    1 type  1   force =    -0.00601352   -0.00666970   -0.01725779
     atom    2 type  2   force =     0.03662729   -0.01822168    0.03761611
     atom    3 type  2   force =    -0.01231106    0.00943554   -0.00352965
     atom    4 type  1   force =     0.00519147   -0.00367030   -0.00132056
     atom    5 type  2   force =    -0.00267812   -0.00364319   -0.00691603
     atom    6 type  2   force =    -0.00023653    0.00824199    0.00238443
     atom    7 type  1   force =     0.00186893   -0.00862894   -0.00903177
     atom    8 type  2   force =     0.00123652   -0.00513607    0.01788217
     atom    9 type  2   force =     0.01424315    0.00713078    0.01292194
     atom   10 type  1   force =    -0.01240556    0.00534129   -0.03475307
     atom   11 type  2   force =     0.00349781   -0.00249600   -0.00658562
     atom   12 type  2   force =    -0.00320043   -0.00073399    0.00648570
     atom   13 type  1   force =     0.01094702    0.01006881   -0.00935272
     atom   14 type  2   force =     0.00757344   -0.00104719    0.01090554
     atom   15 type  2   force =    -0.01108552   -0.00021691   -0.00956773
     atom   16 type  1   force =    -0.00005383    0.01056765    0.00542550
     atom   17 type  2   force =     0.00659064    0.00170593   -0.00025876
     atom   18 type  2   force =    -0.00287916   -0.00670030    0.01460004
     atom   19 type  1   force =     0.00861481   -0.00821772   -0.00418022
     atom   20 type  2   force =     0.00310764   -0.00442253    0.00152341
     atom   21 type  1   force =    -0.00387145    0.00740963   -0.00079603
     atom   22 type  2   force =    -0.00192825   -0.00215277   -0.00269953
     atom   23 type  2   force =     0.00070256   -0.00016116    0.00852696
     atom   24 type  1   force =    -0.00848520    0.00056491   -0.02843499
     atom   25 type  2   force =     0.00588985    0.01270338    0.00961629
     atom   26 type  2   force =    -0.01185083   -0.00048573   -0.00480858
     atom   27 type  1   force =    -0.00144381   -0.00509230    0.00629367
     atom   28 type  2   force =     0.00146093    0.00062064   -0.00511348
     atom   29 type  2   force =     0.00294950    0.00117820   -0.00151598
     atom   30 type  1   force =    -0.00448302    0.00240581   -0.01996312
     atom   31 type  2   force =     0.00129070   -0.00042024    0.01632532
     atom   32 type  2   force =    -0.01087798    0.00724207    0.00929912
     atom   33 type  1   force =     0.01180218   -0.00461034   -0.00735056
     atom   34 type  2   force =     0.00029387   -0.01819545    0.00552732
     atom   35 type  2   force =    -0.00842249    0.00719335    0.01284645
     atom   36 type  3   force =    -0.02166155    0.00911254   -0.00474376
     The non-local contrib.  to forces
     atom    1 type  1   force =     0.00840992    0.02228379   -0.00969927
     atom    2 type  2   force =     0.13540319   -0.07852744   -0.11913333
     atom    3 type  2   force =    -0.01327835   -0.00326163    0.27340942
     atom    4 type  1   force =     0.00016127    0.00851741    0.00514451
     atom    5 type  2   force =     0.00391899   -0.02703330   -0.24785370
     atom    6 type  2   force =    -0.00388287    0.00879053    0.26417124
     atom    7 type  1   force =    -0.02145130   -0.00502712   -0.02054843
     atom    8 type  2   force =     0.00153939   -0.00422250   -0.25239976
     atom    9 type  2   force =     0.00765693   -0.00938314    0.27690790
     atom   10 type  1   force =     0.00568412    0.00262398    0.00438458
     atom   11 type  2   force =     0.01408542    0.00712763   -0.25766708
     atom   12 type  2   force =    -0.01483108   -0.01745031    0.26202817
     atom   13 type  1   force =    -0.00391202    0.01714167   -0.00739926
     atom   14 type  2   force =     0.00672228   -0.01247472   -0.25156493
     atom   15 type  2   force =    -0.01316795   -0.00340839    0.26268974
     atom   16 type  1   force =    -0.00018653    0.02753811   -0.03297200
     atom   17 type  2   force =     0.00238696   -0.02723882   -0.24764935
     atom   18 type  2   force =    -0.00362321   -0.00412558    0.27387454
     atom   19 type  1   force =     0.01590849   -0.00642128   -0.01688353
     atom   20 type  2   force =    -0.00022145   -0.02195591    0.26612937
     atom   21 type  1   force =     0.00121926    0.02288792    0.00754167
     atom   22 type  2   force =    -0.00573489    0.00580822   -0.25791474
     atom   23 type  2   force =     0.00841342   -0.01518581    0.26766861
     atom   24 type  1   force =     0.00125030    0.01408761   -0.00462979
     atom   25 type  2   force =    -0.01005297   -0.00682431   -0.22381073
     atom   26 type  2   force =    -0.00333939   -0.01278811    0.26307137
     atom   27 type  1   force =    -0.00178839    0.01078710    0.00971003
     atom   28 type  2   force =    -0.00329601   -0.02657740   -0.27125298
     atom   29 type  2   force =     0.00691387    0.00309083    0.26350524
     atom   30 type  1   force =     0.00257962    0.02028393    0.00326712
     atom   31 type  2   force =    -0.00527405    0.00051529   -0.25140071
     atom   32 type  2   force =    -0.00341266   -0.01021479    0.27342384
     atom   33 type  1   force =    -0.00786183    0.00658875    0.00796207
     atom   34 type  2   force =     0.00054095    0.02346459   -0.21668805
     atom   35 type  2   force =    -0.00310757   -0.00916269    0.27149823
     atom   36 type  3   force =    -0.00907740    0.00430856   -0.01101957
     The ionic contribution  to forces
     atom    1 type  1   force =     0.19459610    0.38798253    5.54099275
     atom    2 type  2   force =    -1.42008356    0.88972395   38.75526424
     atom    3 type  2   force =    -0.20062453    0.04279568  -36.18613999
     atom    4 type  1   force =     0.04444346    0.67973966    0.63315879
     atom    5 type  2   force =    -1.01687877    1.57088094   38.74244140
     atom    6 type  2   force =     0.32965945   -0.47440684  -38.03041148
     atom    7 type  1   force =    -2.68592725   -2.88289665    2.53888360
     atom    8 type  2   force =    -1.01548264   -0.03050103   37.38134010
     atom    9 type  2   force =     0.33210025   -0.05140209  -38.00595520
     atom   10 type  1   force =    -1.42949672   -0.59239156    5.06469581
     atom   11 type  2   force =    -0.70515466   -1.72604218   39.10038805
     atom   12 type  2   force =     0.41409734    0.66382970  -37.88433739
     atom   13 type  1   force =     0.62117744    1.10723780    2.74417838
     atom   14 type  2   force =     0.03260155    0.02659185   38.49721566
     atom   15 type  2   force =     0.14997193   -0.05181563  -36.82670120
     atom   16 type  1   force =    -0.03092771    3.99644316    0.49497707
     atom   17 type  2   force =     0.85154323    1.56321961   37.92991357
     atom   18 type  2   force =    -0.14892506   -0.62337208  -38.56571997
     atom   19 type  1   force =     2.77367416   -2.53339353    0.63622998
     atom   20 type  2   force =     0.22728045   -0.20621968  -38.46730857
     atom   21 type  1   force =     0.00286540   -0.01197814    1.08409971
     atom   22 type  2   force =     0.55572525   -1.80340996   38.40541894
     atom   23 type  2   force =    -0.06489818    0.64149923  -38.31077289
     atom   24 type  1   force =    -0.47988615    1.57371534    5.28288132
     atom   25 type  2   force =     1.18685419    0.51679149   39.00812414
     atom   26 type  2   force =    -0.24749486    0.08769209  -37.40961908
     atom   27 type  1   force =     0.07890832    0.49211274   -2.27992754
     atom   28 type  2   force =     0.06481593    1.17901979   38.17177366
     atom   29 type  2   force =    -0.26278296   -0.38698508  -37.29139951
     atom   30 type  1   force =    -0.32538410   -1.09996582   -0.14016409
     atom   31 type  2   force =     1.26082162   -0.10409597   37.32270830
     atom   32 type  2   force =    -0.46964810   -0.01988510  -38.63486729
     atom   33 type  1   force =     1.12162144   -1.04817437    1.63718028
     atom   34 type  2   force =     0.34385372   -2.10458966   39.03683100
     atom   35 type  2   force =    -0.29409280    0.42900576  -37.89133888
     atom   36 type  3   force =     0.21107682   -0.09675594    7.91596633
     The local contribution  to forces
     atom    1 type  1   force =    -0.20921232   -0.41662493   -5.54849307
     atom    2 type  2   force =     1.32955532   -0.83412025  -38.61084232
     atom    3 type  2   force =     0.20094991   -0.03008285   35.93062777
     atom    4 type  1   force =    -0.03946701   -0.69197841   -0.63941533
     atom    5 type  2   force =     1.01084673   -1.54913909  -38.52185634
     atom    6 type  2   force =    -0.32645845    0.47491897   37.78994422
     atom    7 type  1   force =     2.70958338    2.87947855   -2.52742611
     atom    8 type  2   force =     1.01531964    0.02904443  -37.13153181
     atom    9 type  2   force =    -0.32532070    0.06733665   37.76327449
     atom   10 type  1   force =     1.41153093    0.59493958   -5.10350377
     atom   11 type  2   force =     0.69527548    1.71713082  -38.86998447
     atom   12 type  2   force =    -0.40375451   -0.64862847   37.64992694
     atom   13 type  1   force =    -0.60619149   -1.11415140   -2.74593134
     atom   14 type  2   force =    -0.03130188   -0.01525880  -38.25505975
     atom   15 type  2   force =    -0.14859723    0.05480476   36.57546513
     atom   16 type  1   force =     0.03099551   -4.01393889   -0.45662851
     atom   17 type  2   force =    -0.84731738   -1.53570231  -37.70291211
     atom   18 type  2   force =     0.14968708    0.62135741   38.32783652
     atom   19 type  1   force =    -2.78145267    2.53166349   -0.62358651
     atom   20 type  2   force =    -0.22417699    0.22287953   38.22413041
     atom   21 type  1   force =    -0.00798588   -0.00356072   -1.09213911
     atom   22 type  2   force =    -0.55206101    1.79599555  -38.17089731
     atom   23 type  2   force =     0.05781822   -0.62793754   38.07291616
     atom   24 type  1   force =     0.47014933   -1.58711168   -5.30639672
     atom   25 type  2   force =    -1.17200558   -0.49749084  -38.79366443
     atom   26 type  2   force =     0.23914765   -0.07602725   37.16294460
     atom   27 type  1   force =    -0.07846127   -0.50780028    2.27665951
     atom   28 type  2   force =    -0.06033287   -1.15371064  -37.92657381
     atom   29 type  2   force =     0.25939835    0.38583285   37.04733226
     atom   30 type  1   force =     0.31847967    1.08202793    0.11705717
     atom   31 type  2   force =    -1.25464570    0.10312209  -37.07567929
     atom   32 type  2   force =     0.46235177    0.03675621   38.39216261
     atom   33 type  1   force =    -1.10201905    1.03675547   -1.65220173
     atom   34 type  2   force =    -0.34455392    2.06515735  -38.83284325
     atom   35 type  2   force =     0.28883950   -0.41372094   37.65415397
     atom   36 type  3   force =    -0.22365916    0.10154952   -7.90968690
     The core correction contribution to forces
     atom    1 type  1   force =     0.00000000    0.00000000    0.00000000
     atom    2 type  2   force =    -0.00821802    0.00470015    0.01222130
     atom    3 type  2   force =     0.00060971    0.00004910   -0.02104335
     atom    4 type  1   force =     0.00000000    0.00000000    0.00000000
     atom    5 type  2   force =    -0.00051643    0.00160067    0.02009892
     atom    6 type  2   force =     0.00037955   -0.00102004   -0.02091762
     atom    7 type  1   force =     0.00000000    0.00000000    0.00000000
     atom    8 type  2   force =    -0.00000885    0.00050511    0.02030219
     atom    9 type  2   force =    -0.00014115    0.00055812   -0.02099684
     atom   10 type  1   force =     0.00000000    0.00000000    0.00000000
     atom   11 type  2   force =    -0.00067840   -0.00064390    0.02051423
     atom   12 type  2   force =     0.00128046    0.00144337   -0.02079174
     atom   13 type  1   force =     0.00000000    0.00000000    0.00000000
     atom   14 type  2   force =    -0.00042424    0.00010944    0.02010688
     atom   15 type  2   force =     0.00073534    0.00028566   -0.02061539
     atom   16 type  1   force =     0.00000000    0.00000000    0.00000000
     atom   17 type  2   force =    -0.00002237    0.00145419    0.02013962
     atom   18 type  2   force =     0.00004295   -0.00044053   -0.02103445
     atom   19 type  1   force =     0.00000000    0.00000000    0.00000000
     atom   20 type  2   force =     0.00012559    0.00082606   -0.02120333
     atom   21 type  1   force =     0.00000000    0.00000000    0.00000000
     atom   22 type  2   force =     0.00012142   -0.00057369    0.02047778
     atom   23 type  2   force =    -0.00064386    0.00128606   -0.02089327
     atom   24 type  1   force =     0.00000000    0.00000000    0.00000000
     atom   25 type  2   force =     0.00106653    0.00023560    0.01880295
     atom   26 type  2   force =    -0.00013937    0.00068715   -0.02082956
     atom   27 type  1   force =     0.00000000    0.00000000    0.00000000
     atom   28 type  2   force =     0.00024722    0.00190658    0.02076046
     atom   29 type  2   force =    -0.00057865   -0.00066220   -0.02058388
     atom   30 type  1   force =     0.00000000    0.00000000    0.00000000
     atom   31 type  2   force =     0.00034136    0.00006145    0.02042107
     atom   32 type  2   force =    -0.00011379    0.00061346   -0.02102436
     atom   33 type  1   force =     0.00000000    0.00000000    0.00000000
     atom   34 type  2   force =     0.00042607   -0.00224922    0.01805362
     atom   35 type  2   force =    -0.00003979    0.00090471   -0.02107573
     atom   36 type  3   force =     0.00000000    0.00000000    0.00000000
     The Hubbard contrib.    to forces
     atom    1 type  1   force =     0.00000000    0.00000000    0.00000000
     atom    2 type  2   force =     0.00000000    0.00000000    0.00000000
     atom    3 type  2   force =     0.00000000    0.00000000    0.00000000
     atom    4 type  1   force =     0.00000000    0.00000000    0.00000000
     atom    5 type  2   force =     0.00000000    0.00000000    0.00000000
     atom    6 type  2   force =     0.00000000    0.00000000    0.00000000
     atom    7 type  1   force =     0.00000000    0.00000000    0.00000000
     atom    8 type  2   force =     0.00000000    0.00000000    0.00000000
     atom    9 type  2   force =     0.00000000    0.00000000    0.00000000
     atom   10 type  1   force =     0.00000000    0.00000000    0.00000000
     atom   11 type  2   force =     0.00000000    0.00000000    0.00000000
     atom   12 type  2   force =     0.00000000    0.00000000    0.00000000
     atom   13 type  1   force =     0.00000000    0.00000000    0.00000000
     atom   14 type  2   force =     0.00000000    0.00000000    0.00000000
     atom   15 type  2   force =     0.00000000    0.00000000    0.00000000
     atom   16 type  1   force =     0.00000000    0.00000000    0.00000000
     atom   17 type  2   force =     0.00000000    0.00000000    0.00000000
     atom   18 type  2   force =     0.00000000    0.00000000    0.00000000
     atom   19 type  1   force =     0.00000000    0.00000000    0.00000000
     atom   20 type  2   force =     0.00000000    0.00000000    0.00000000
     atom   21 type  1   force =     0.00000000    0.00000000    0.00000000
     atom   22 type  2   force =     0.00000000    0.00000000    0.00000000
     atom   23 type  2   force =     0.00000000    0.00000000    0.00000000
     atom   24 type  1   force =     0.00000000    0.00000000    0.00000000
     atom   25 type  2   force =     0.00000000    0.00000000    0.00000000
     atom   26 type  2   force =     0.00000000    0.00000000    0.00000000
     atom   27 type  1   force =     0.00000000    0.00000000    0.00000000
     atom   28 type  2   force =     0.00000000    0.00000000    0.00000000
     atom   29 type  2   force =     0.00000000    0.00000000    0.00000000
     atom   30 type  1   force =     0.00000000    0.00000000    0.00000000
     atom   31 type  2   force =     0.00000000    0.00000000    0.00000000
     atom   32 type  2   force =     0.00000000    0.00000000    0.00000000
     atom   33 type  1   force =     0.00000000    0.00000000    0.00000000
     atom   34 type  2   force =     0.00000000    0.00000000    0.00000000
     atom   35 type  2   force =     0.00000000    0.00000000    0.00000000
     atom   36 type  3   force =     0.00000000    0.00000000    0.00000000
     The SCF correction term to forces
     atom    1 type  1   force =     0.00019358   -0.00031358   -0.00005282
     atom    2 type  2   force =    -0.00002884   -0.00000059    0.00011159
     atom    3 type  2   force =     0.00003299   -0.00006725   -0.00037814
     atom    4 type  1   force =     0.00005454    0.00004854   -0.00020317
     atom    5 type  2   force =    -0.00004784    0.00004509    0.00025906
     atom    6 type  2   force =     0.00006659   -0.00004313   -0.00039656
     atom    7 type  1   force =    -0.00033510   -0.00018621    0.00006454
     atom    8 type  2   force =    -0.00013023    0.00003543    0.00017682
     atom    9 type  2   force =    -0.00005138    0.00001875   -0.00030303
     atom   10 type  1   force =    -0.00012310    0.00016680   -0.00032432
     atom   11 type  2   force =    -0.00002924   -0.00007086    0.00016902
     atom   12 type  2   force =     0.00000816    0.00006922   -0.00033492
     atom   13 type  1   force =    -0.00012610   -0.00016176   -0.00019514
     atom   14 type  2   force =    -0.00002348   -0.00001746    0.00021304
     atom   15 type  2   force =    -0.00002681   -0.00008580   -0.00040063
     atom   16 type  1   force =     0.00006569    0.00052279    0.00005431
     atom   17 type  2   force =     0.00000100   -0.00002924    0.00025487
     atom   18 type  2   force =    -0.00006012   -0.00012202   -0.00035123
     atom   19 type  1   force =     0.00048563   -0.00006890    0.00006521
     atom   20 type  2   force =     0.00010084    0.00004498   -0.00021910
     atom   21 type  1   force =     0.00003058    0.00005808   -0.00029293
     atom   22 type  2   force =     0.00002178    0.00002462    0.00022118
     atom   23 type  2   force =     0.00001375    0.00017441   -0.00038629
     atom   24 type  1   force =     0.00000212   -0.00012884   -0.00028443
     atom   25 type  2   force =     0.00002847   -0.00001105    0.00016973
     atom   26 type  2   force =    -0.00002407   -0.00005211   -0.00037054
     atom   27 type  1   force =    -0.00010166   -0.00019435   -0.00014297
     atom   28 type  2   force =     0.00002746   -0.00002019    0.00018456
     atom   29 type  2   force =    -0.00000031   -0.00010068   -0.00036470
     atom   30 type  1   force =    -0.00015741    0.00005728   -0.00011794
     atom   31 type  2   force =     0.00004827   -0.00002560    0.00028131
     atom   32 type  2   force =    -0.00005439   -0.00003020   -0.00039031
     atom   33 type  1   force =     0.00006242    0.00021731   -0.00028582
     atom   34 type  2   force =     0.00002785    0.00001900    0.00017938
     atom   35 type  2   force =    -0.00002103    0.00016402   -0.00038577
     atom   36 type  3   force =    -0.00000102    0.00000790    0.00000174

     Total force =     0.108038     Total SCF correction =     0.001929

     BFGS Geometry Optimization
     Energy error            =      0.0E+00 Ry
     Gradient error          =      3.8E-02 Ry/Bohr

     number of scf cycles    =   1
     number of bfgs steps    =   0

     energy             new  =   -2205.5299379523 Ry

     new trust radius        =       0.0555748082 bohr
     new conv_thr            =       0.0000010000 Ry


ATOMIC_POSITIONS (angstrom)
Mo            6.5713661913        1.7842767753        2.8145106037
S             8.1960916635        0.8000615256        4.4544439397
S             8.1867183527        0.8162348164        1.2760156148
Mo            8.0979097714        4.4931147033        2.7171195820
S             6.4984920568        3.7204835920        4.3430008430
S             6.5532246327        3.5160990277        1.1225420134
Mo            6.4909706922        7.2138710475        2.6671050786
S             8.0823820658        6.3411531024        4.2519244000
S             8.0884547987        6.3084757650        1.0907009966
Mo            8.1540543075        9.9050069004        2.8250712292
S             6.4970185571        8.9416059871        4.3796205728
S             6.6162536063        9.0483228003        1.1433393847
Mo            3.4274525783        1.7522840346        2.7715219146
S             4.9791731802        0.8163870625        4.3563040537
S             5.0519675502        0.8461473232        1.2215954387
Mo            4.9797281956        4.5187701641        2.6357555983
S             3.4313292777        3.6725024254        4.2795726484
S             3.4363969962        3.5446830523        1.0660776915
Mo            3.4584205007        7.2119759087        2.6284647834
S             4.9848786849        6.3245919837        1.0380598832
Mo            5.0102152377        9.9055210577        2.7429797194
S             3.4699377308        8.9426120734        4.3241627846
S             3.4088009419        9.0649047032        1.1005805697
Mo            0.2916003130        1.7478084707        2.8343975616
S             1.8535789853        0.7994163476        4.4032981603
S             1.8545288449        0.8541688783        1.2068562615
Mo            1.8599272805        4.4929720309        2.6635278451
S             0.2729869400        3.6547272567        4.3348781604
S             0.2327920173        3.5278727023        1.1712156632
Mo            0.2687798390        7.2179191914        2.6911324015
S             1.9029212566        6.3125764530        4.2310831079
S             1.8564818372        6.3141761522        1.0494801665
Mo            1.8505921080        9.9376994673        2.7690565015
S             0.2960684085        9.0803692112        4.4167943983
S             0.2723144089        9.0473322696        1.1571988302
H            -0.0114627972        0.0048221471        5.3409514695



     Writing config-only to output data dir ./MoS2-V-O.save/
     NEW-OLD atomic charge density approx. for the potential

     negative rho (up, down):  1.435E-04 0.000E+00

     total cpu time spent up to now is       84.0 secs

     Self-consistent Calculation

     iteration #  1     ecut=    80.00 Ry     beta= 0.70
     Davidson diagonalization with overlap
     ethr =  1.00E-06,  avg # of iterations =  8.0

     negative rho (up, down):  1.173E-04 0.000E+00

     total cpu time spent up to now is       97.4 secs

     total energy              =   -2205.53956970 Ry
     estimated scf accuracy    <       0.00131430 Ry

     iteration #  2     ecut=    80.00 Ry     beta= 0.70
     Davidson diagonalization with overlap
     ethr =  4.28E-07,  avg # of iterations =  2.0

     negative rho (up, down):  1.133E-04 0.000E+00

     total cpu time spent up to now is      116.3 secs

     total energy              =   -2205.53960668 Ry
     estimated scf accuracy    <       0.00027804 Ry

     iteration #  3     ecut=    80.00 Ry     beta= 0.70
     Davidson diagonalization with overlap
     ethr =  9.06E-08,  avg # of iterations =  6.0

     negative rho (up, down):  1.149E-04 0.000E+00

     total cpu time spent up to now is      132.8 secs

     total energy              =   -2205.53964190 Ry
     estimated scf accuracy    <       0.00004446 Ry

     iteration #  4     ecut=    80.00 Ry     beta= 0.70
     Davidson diagonalization with overlap
     ethr =  1.45E-08,  avg # of iterations = 17.0

     negative rho (up, down):  1.133E-04 0.000E+00

     total cpu time spent up to now is      152.0 secs

     total energy              =   -2205.53965397 Ry
     estimated scf accuracy    <       0.00000595 Ry

     iteration #  5     ecut=    80.00 Ry     beta= 0.70
     Davidson diagonalization with overlap
     ethr =  1.94E-09,  avg # of iterations =  2.0

     negative rho (up, down):  1.103E-04 0.000E+00

     total cpu time spent up to now is      164.4 secs

     total energy              =   -2205.53965471 Ry
     estimated scf accuracy    <       0.00000178 Ry

     iteration #  6     ecut=    80.00 Ry     beta= 0.70
     Davidson diagonalization with overlap
     ethr =  5.79E-10,  avg # of iterations =  4.0

     negative rho (up, down):  1.381E-04 0.000E+00

     total cpu time spent up to now is      167.0 secs

     End of self-consistent calculation

          k = 0.0000 0.0000 0.0000 (105382 PWs)   bands (ev):

   -62.8889 -62.8698 -62.8584 -62.8298 -62.8146 -62.8053 -62.7993 -62.7902
   -62.7812 -62.7721 -62.7563 -62.7482 -37.2290 -37.1632 -37.1335 -37.1308
   -37.1224 -37.0941 -37.0775 -37.0699 -37.0590 -37.0561 -37.0435 -37.0333
   -37.0272 -37.0201 -37.0071 -36.9966 -36.9909 -36.9865 -36.9738 -36.9661
   -36.9608 -36.9517 -36.9354 -36.9318 -36.9238 -36.9208 -36.9079 -36.9007
   -36.8944 -36.8725 -36.8560 -36.8407 -36.8180 -36.7823 -36.7356 -36.7138
   -16.0231 -15.2552 -15.1676 -15.0279 -14.9682 -14.8175 -14.5863 -14.5053
   -14.4674 -14.4208 -14.4072 -14.3730 -14.3442 -14.2882 -14.1620 -14.1421
   -14.1219 -14.1019 -14.0235 -13.9309 -13.8538 -13.8224 -13.8057  -8.1566
    -7.6065  -7.4516  -7.2753  -7.2623  -7.2094  -7.1928  -7.1257  -6.8976
    -6.8418  -6.7998  -6.7516  -6.7324  -6.5399  -6.4896  -6.4572  -6.4442
    -6.3657  -6.2355  -6.0139  -5.9908  -5.9089  -5.8485  -5.8216  -5.8052
    -5.7753  -5.7376  -5.6712  -5.6568  -5.6161  -5.5718  -5.5240  -5.4629
    -5.4095  -5.3420  -5.1706  -5.1581  -5.0850  -5.0439  -4.9830  -4.9513
    -4.9209  -4.8269  -4.6364  -4.5092  -4.3591  -4.3151  -4.2964  -4.2563
    -4.2311  -4.0760  -4.0262  -3.9754  -3.8068  -3.7572  -3.7218  -3.6983
    -3.6707  -3.5605  -3.5569  -3.5312  -3.4939  -3.4844  -3.4491  -3.3742
    -3.3642  -3.1996  -3.1392  -2.9074  -2.8845  -2.7866  -2.7650  -2.7305
    -2.7068  -2.6819  -2.6520  -2.6218  -2.5662  -2.2864  -2.0566  -2.0046
    -1.9816  -1.0945  -0.7585  -0.7228  -0.1606  -0.1254  -0.0547  -0.0335
     0.1109   0.1331   0.2006   0.2534   0.2619   0.2887   0.3827   0.4275
     0.4780   0.5375   0.5494   0.5794   0.6180   0.6816   0.7026   0.7623
     0.7796   0.7881   0.8789   0.8847   0.9584   1.0071   1.0328   1.3433
     1.3854

     the Fermi energy is    -1.0946 ev

!    total energy              =   -2205.53965443 Ry
     estimated scf accuracy    <       0.00000086 Ry
     smearing contrib. (-TS)   =      -0.00565779 Ry
     internal energy E=F+TS    =   -2205.53399664 Ry

     The total energy is F=E-TS. E is the sum of the following terms:
     one-electron contribution =  -18047.57404830 Ry
     hartree contribution      =    9010.58146552 Ry
     xc contribution           =    -385.24535355 Ry
     ewald contribution        =    7216.70393969 Ry

     convergence has been achieved in   6 iterations

     negative rho (up, down):  1.381E-04 0.000E+00

     Forces acting on atoms (cartesian axes, Ry/au):

     atom    1 type  1   force =    -0.00387425   -0.00510615   -0.00914698
     atom    2 type  2   force =     0.03357475   -0.01827738    0.02877652
     atom    3 type  2   force =    -0.01262510    0.00859300   -0.00955107
     atom    4 type  1   force =     0.00382344   -0.00182574    0.00183915
     atom    5 type  2   force =    -0.00128819   -0.00476986   -0.00671552
     atom    6 type  2   force =    -0.00129714    0.00753788    0.00111800
     atom    7 type  1   force =     0.00223514   -0.00612261   -0.00131505
     atom    8 type  2   force =     0.00178511   -0.00444934    0.01080563
     atom    9 type  2   force =     0.01165809    0.00477270    0.00733435
     atom   10 type  1   force =    -0.00382550    0.00507599   -0.01070182
     atom   11 type  2   force =     0.00326906   -0.00206842   -0.00939273
     atom   12 type  2   force =    -0.00538741   -0.00116601    0.00036947
     atom   13 type  1   force =     0.00566350    0.00374850   -0.00226051
     atom   14 type  2   force =     0.00673396    0.00058936    0.00602157
     atom   15 type  2   force =    -0.00945788   -0.00009973   -0.01100861
     atom   16 type  1   force =     0.00037719    0.00832878    0.00393328
     atom   17 type  2   force =     0.00585616    0.00145635    0.00074504
     atom   18 type  2   force =    -0.00160294   -0.00356650    0.01099257
     atom   19 type  1   force =     0.00533454   -0.00639306    0.00130104
     atom   20 type  2   force =     0.00294127   -0.00431338   -0.00257118
     atom   21 type  1   force =    -0.00232337    0.00527019    0.00260552
     atom   22 type  2   force =    -0.00078895   -0.00209233   -0.00338963
     atom   23 type  2   force =     0.00129683   -0.00107710    0.00457848
     atom   24 type  1   force =    -0.00446214   -0.00089343   -0.01023852
     atom   25 type  2   force =     0.00627551    0.01202338   -0.00074928
     atom   26 type  2   force =    -0.00723220   -0.00064963   -0.00562477
     atom   27 type  1   force =    -0.00103538   -0.00202725    0.00667312
     atom   28 type  2   force =     0.00071077   -0.00194842   -0.00587869
     atom   29 type  2   force =     0.00259852    0.00224212   -0.00462801
     atom   30 type  1   force =    -0.00255004    0.00042452   -0.00245278
     atom   31 type  2   force =     0.00021829    0.00006436    0.00923801
     atom   32 type  2   force =    -0.00786558    0.00482220    0.00649507
     atom   33 type  1   force =     0.00504600   -0.00121371    0.00132261
     atom   34 type  2   force =    -0.00149049   -0.01734490   -0.00603063
     atom   35 type  2   force =    -0.00584097    0.00755531    0.00509815
     atom   36 type  3   force =    -0.02645059    0.01290033   -0.00759178
     The non-local contrib.  to forces
     atom    1 type  1   force =     0.00805259    0.02095623   -0.00981147
     atom    2 type  2   force =     0.14762187   -0.08836119   -0.11762190
     atom    3 type  2   force =    -0.01266538   -0.00472750    0.26971484
     atom    4 type  1   force =     0.00083083    0.00882258    0.00370797
     atom    5 type  2   force =     0.00510458   -0.02660375   -0.24784182
     atom    6 type  2   force =    -0.00491217    0.00706612    0.26431911
     atom    7 type  1   force =    -0.02168431   -0.00553480   -0.02196199
     atom    8 type  2   force =     0.00156926   -0.00429565   -0.25719043
     atom    9 type  2   force =     0.00563457   -0.01094193    0.27388600
     atom   10 type  1   force =     0.00398078    0.00287066    0.00186832
     atom   11 type  2   force =     0.01260821    0.00696099   -0.25941898
     atom   12 type  2   force =    -0.01614567   -0.01774534    0.25937974
     atom   13 type  1   force =    -0.00174535    0.01947316   -0.00743994
     atom   14 type  2   force =     0.00457412   -0.01133913   -0.25346478
     atom   15 type  2   force =    -0.01137263   -0.00288904    0.26155977
     atom   16 type  1   force =    -0.00043564    0.02849581   -0.03380419
     atom   17 type  2   force =     0.00160653   -0.02651644   -0.24730045
     atom   18 type  2   force =    -0.00234396   -0.00229060    0.27204638
     atom   19 type  1   force =     0.01738284   -0.00619543   -0.01827373
     atom   20 type  2   force =    -0.00030930   -0.02088677    0.26327059
     atom   21 type  1   force =     0.00055078    0.02336709    0.00594690
     atom   22 type  2   force =    -0.00414176    0.00554567   -0.25868933
     atom   23 type  2   force =     0.00900261   -0.01618099    0.26598693
     atom   24 type  1   force =    -0.00054846    0.01422673   -0.00529406
     atom   25 type  2   force =    -0.00767876   -0.00741805   -0.23288971
     atom   26 type  2   force =     0.00023565   -0.01180918    0.26397113
     atom   27 type  1   force =    -0.00178131    0.00970054    0.00844117
     atom   28 type  2   force =    -0.00346895   -0.02729282   -0.27147758
     atom   29 type  2   force =     0.00634235    0.00263767    0.26221524
     atom   30 type  1   force =     0.00220645    0.01953140    0.00206481
     atom   31 type  2   force =    -0.00546533    0.00039046   -0.25682153
     atom   32 type  2   force =    -0.00100925   -0.01172698    0.27237235
     atom   33 type  1   force =    -0.00608590    0.00521671    0.00532930
     atom   34 type  2   force =    -0.00016282    0.02084657   -0.22818097
     atom   35 type  2   force =    -0.00195424   -0.00936075    0.26819048
     atom   36 type  3   force =    -0.01124355    0.00588627   -0.01210796
     The ionic contribution  to forces
     atom    1 type  1   force =     0.33607377    0.37740983    5.42993711
     atom    2 type  2   force =    -1.47578347    0.91332523   38.84049870
     atom    3 type  2   force =    -0.18742238    0.05476342  -36.22116350
     atom    4 type  1   force =     0.00242968    0.67359253    0.76004225
     atom    5 type  2   force =    -0.96663469    1.49345831   38.70865692
     atom    6 type  2   force =     0.30807663   -0.43810579  -37.99363492
     atom    7 type  1   force =    -2.63089039   -2.77229675    2.50025716
     atom    8 type  2   force =    -0.98887742    0.01328030   37.47823678
     atom    9 type  2   force =     0.28699229   -0.10724823  -37.96539164
     atom   10 type  1   force =    -1.23012561   -0.51321367    4.58484364
     atom   11 type  2   force =    -0.65699260   -1.70981682   39.04844394
     atom   12 type  2   force =     0.32544998    0.61469297  -37.86519162
     atom   13 type  1   force =     0.44346733    0.92789999    2.71207198
     atom   14 type  2   force =     0.04020980    0.03760303   38.58549538
     atom   15 type  2   force =     0.12824888   -0.07627608  -36.90849116
     atom   16 type  1   force =     0.00612877    3.92617663    0.72215927
     atom   17 type  2   force =     0.83041680    1.52506688   37.97700481
     atom   18 type  2   force =    -0.14518716   -0.55132221  -38.50991470
     atom   19 type  1   force =     2.63494006   -2.46505141    0.65794597
     atom   20 type  2   force =     0.20469402   -0.21009016  -38.52570717
     atom   21 type  1   force =     0.00072940   -0.06150797    1.27351972
     atom   22 type  2   force =     0.54489873   -1.80264217   38.40824777
     atom   23 type  2   force =    -0.06133477    0.60560814  -38.26927492
     atom   24 type  1   force =    -0.41898365    1.38667188    4.85956441
     atom   25 type  2   force =     1.12152975    0.49853582   38.95494022
     atom   26 type  2   force =    -0.18988945    0.05908326  -37.36298170
     atom   27 type  1   force =     0.07677892    0.59616724   -2.01048497
     atom   28 type  2   force =     0.04719672    1.08716864   38.17343994
     atom   29 type  2   force =    -0.24192405   -0.32229703  -37.32458369
     atom   30 type  1   force =    -0.22828262   -1.07010470   -0.34720475
     atom   31 type  2   force =     1.21179675   -0.04175064   37.36933182
     atom   32 type  2   force =    -0.40456175   -0.06059476  -38.56802275
     atom   33 type  1   force =     0.94612488   -0.90555694    1.76073709
     atom   34 type  2   force =     0.29021089   -2.00972511   38.96376271
     atom   35 type  2   force =    -0.21042929    0.45624024  -37.81172924
     atom   36 type  3   force =     0.25092522   -0.12914392    7.91463912
     The local contribution  to forces
     atom    1 type  1   force =    -0.34822903   -0.40322888   -5.43080046
     atom    2 type  2   force =     1.37083784   -0.84857785  -38.70619238
     atom    3 type  2   force =     0.18686715   -0.04156629   35.96234807
     atom    4 type  1   force =     0.00046078   -0.68416870   -0.76305198
     atom    5 type  2   force =     0.96072645   -1.47300164  -38.48793106
     atom    6 type  2   force =    -0.30488849    0.43946153   37.75091048
     atom    7 type  1   force =     2.65469926    2.77150282   -2.48086916
     atom    8 type  2   force =     0.98903881   -0.01407864  -37.23108678
     atom    9 type  2   force =    -0.28090685    0.12239434   37.71936801
     atom   10 type  1   force =     1.22222612    0.51522739   -4.59901577
     atom   11 type  2   force =     0.64810658    1.70134661  -38.81938355
     atom   12 type  2   force =    -0.31591713   -0.59949614   37.62641249
     atom   13 type  1   force =    -0.43601509   -0.94351441   -2.70810146
     atom   14 type  2   force =    -0.03777968   -0.02571349  -38.34666157
     atom   15 type  2   force =    -0.12697252    0.07885830   36.65608738
     atom   16 type  1   force =    -0.00535463   -3.94631664   -0.68553559
     atom   17 type  2   force =    -0.82614418   -1.49841375  -37.74947606
     atom   18 type  2   force =     0.14596488    0.55051215   38.26947671
     atom   19 type  1   force =    -2.64689900    2.46465342   -0.63959456
     atom   20 type  2   force =    -0.20156093    0.22587087   38.28060691
     atom   21 type  1   force =    -0.00359081    0.04344639   -1.27821783
     atom   22 type  2   force =    -0.54153671    1.79556482  -38.17387316
     atom   23 type  2   force =     0.05431047   -0.59178906   38.02826433
     atom   24 type  1   force =     0.41525978   -1.40146530   -4.86600741
     atom   25 type  2   force =    -1.10834627   -0.47927024  -38.74232736
     atom   26 type  2   force =     0.18267026   -0.04849781   37.11374665
     atom   27 type  1   force =    -0.07592183   -0.60787763    2.00756197
     atom   28 type  2   force =    -0.04324317   -1.06354384  -37.92905242
     atom   29 type  2   force =     0.23868532    0.32242562   37.07791389
     atom   30 type  1   force =     0.22347869    1.05078561    0.34145048
     atom   31 type  2   force =    -1.20637337    0.04115829  -37.12421301
     atom   32 type  2   force =     0.39790851    0.07649735   38.32271192
     atom   33 type  1   force =    -0.93485577    0.89909162   -1.76617488
     atom   34 type  2   force =    -0.29185517    1.97340293  -38.76048785
     atom   35 type  2   force =     0.20651596   -0.44029430   37.56911964
     atom   36 type  3   force =    -0.26611823    0.13615203   -7.91018625
     The core correction contribution to forces
     atom    1 type  1   force =     0.00000000    0.00000000    0.00000000
     atom    2 type  2   force =    -0.00913108    0.00540595    0.01169865
     atom    3 type  2   force =     0.00057340    0.00013276   -0.02098131
     atom    4 type  1   force =     0.00000000    0.00000000    0.00000000
     atom    5 type  2   force =    -0.00055854    0.00153186    0.02007196
     atom    6 type  2   force =     0.00040153   -0.00088870   -0.02091492
     atom    7 type  1   force =     0.00000000    0.00000000    0.00000000
     atom    8 type  2   force =     0.00001589    0.00052898    0.02045127
     atom    9 type  2   force =    -0.00007851    0.00056477   -0.02094776
     atom   10 type  1   force =     0.00000000    0.00000000    0.00000000
     atom   11 type  2   force =    -0.00055917   -0.00064845    0.02055130
     atom   12 type  2   force =     0.00123986    0.00140923   -0.02072491
     atom   13 type  1   force =     0.00000000    0.00000000    0.00000000
     atom   14 type  2   force =    -0.00033385    0.00008118    0.02019423
     atom   15 type  2   force =     0.00064239    0.00022431   -0.02061317
     atom   16 type  1   force =     0.00000000    0.00000000    0.00000000
     atom   17 type  2   force =     0.00001796    0.00140256    0.02013886
     atom   18 type  2   force =    -0.00000489   -0.00045969   -0.02100488
     atom   19 type  1   force =     0.00000000    0.00000000    0.00000000
     atom   20 type  2   force =     0.00012585    0.00076532   -0.02113955
     atom   21 type  1   force =     0.00000000    0.00000000    0.00000000
     atom   22 type  2   force =     0.00005002   -0.00060108    0.02051622
     atom   23 type  2   force =    -0.00064029    0.00130388   -0.02086940
     atom   24 type  1   force =     0.00000000    0.00000000    0.00000000
     atom   25 type  2   force =     0.00092641    0.00028506    0.01907699
     atom   26 type  2   force =    -0.00024621    0.00062565   -0.02084881
     atom   27 type  1   force =     0.00000000    0.00000000    0.00000000
     atom   28 type  2   force =     0.00024941    0.00186427    0.02079017
     atom   29 type  2   force =    -0.00053133   -0.00055928   -0.02057746
     atom   30 type  1   force =     0.00000000    0.00000000    0.00000000
     atom   31 type  2   force =     0.00030146    0.00013032    0.02056200
     atom   32 type  2   force =    -0.00018682    0.00062334   -0.02099142
     atom   33 type  1   force =     0.00000000    0.00000000    0.00000000
     atom   34 type  2   force =     0.00037927   -0.00208137    0.01845669
     atom   35 type  2   force =    -0.00003487    0.00094351   -0.02099660
     atom   36 type  3   force =     0.00000000    0.00000000    0.00000000
     The Hubbard contrib.    to forces
     atom    1 type  1   force =     0.00000000    0.00000000    0.00000000
     atom    2 type  2   force =     0.00000000    0.00000000    0.00000000
     atom    3 type  2   force =     0.00000000    0.00000000    0.00000000
     atom    4 type  1   force =     0.00000000    0.00000000    0.00000000
     atom    5 type  2   force =     0.00000000    0.00000000    0.00000000
     atom    6 type  2   force =     0.00000000    0.00000000    0.00000000
     atom    7 type  1   force =     0.00000000    0.00000000    0.00000000
     atom    8 type  2   force =     0.00000000    0.00000000    0.00000000
     atom    9 type  2   force =     0.00000000    0.00000000    0.00000000
     atom   10 type  1   force =     0.00000000    0.00000000    0.00000000
     atom   11 type  2   force =     0.00000000    0.00000000    0.00000000
     atom   12 type  2   force =     0.00000000    0.00000000    0.00000000
     atom   13 type  1   force =     0.00000000    0.00000000    0.00000000
     atom   14 type  2   force =     0.00000000    0.00000000    0.00000000
     atom   15 type  2   force =     0.00000000    0.00000000    0.00000000
     atom   16 type  1   force =     0.00000000    0.00000000    0.00000000
     atom   17 type  2   force =     0.00000000    0.00000000    0.00000000
     atom   18 type  2   force =     0.00000000    0.00000000    0.00000000
     atom   19 type  1   force =     0.00000000    0.00000000    0.00000000
     atom   20 type  2   force =     0.00000000    0.00000000    0.00000000
     atom   21 type  1   force =     0.00000000    0.00000000    0.00000000
     atom   22 type  2   force =     0.00000000    0.00000000    0.00000000
     atom   23 type  2   force =     0.00000000    0.00000000    0.00000000
     atom   24 type  1   force =     0.00000000    0.00000000    0.00000000
     atom   25 type  2   force =     0.00000000    0.00000000    0.00000000
     atom   26 type  2   force =     0.00000000    0.00000000    0.00000000
     atom   27 type  1   force =     0.00000000    0.00000000    0.00000000
     atom   28 type  2   force =     0.00000000    0.00000000    0.00000000
     atom   29 type  2   force =     0.00000000    0.00000000    0.00000000
     atom   30 type  1   force =     0.00000000    0.00000000    0.00000000
     atom   31 type  2   force =     0.00000000    0.00000000    0.00000000
     atom   32 type  2   force =     0.00000000    0.00000000    0.00000000
     atom   33 type  1   force =     0.00000000    0.00000000    0.00000000
     atom   34 type  2   force =     0.00000000    0.00000000    0.00000000
     atom   35 type  2   force =     0.00000000    0.00000000    0.00000000
     atom   36 type  3   force =     0.00000000    0.00000000    0.00000000
     The SCF correction term to forces
     atom    1 type  1   force =     0.00022836   -0.00024520    0.00149646
     atom    2 type  2   force =     0.00002954   -0.00007139    0.00036207
     atom    3 type  2   force =     0.00002204   -0.00001125    0.00049945
     atom    4 type  1   force =     0.00010209   -0.00007404    0.00110953
     atom    5 type  2   force =     0.00007397   -0.00015650    0.00029710
     atom    6 type  2   force =     0.00002531    0.00000284    0.00040688
     atom    7 type  1   force =     0.00011052    0.00020426    0.00122756
     atom    8 type  2   force =     0.00003852    0.00011379    0.00036342
     atom    9 type  2   force =     0.00001653    0.00000187    0.00038835
     atom   10 type  1   force =     0.00009316    0.00018974    0.00157061
     atom   11 type  2   force =     0.00010598    0.00008737    0.00038318
     atom   12 type  2   force =    -0.00001451   -0.00002860    0.00046238
     atom   13 type  1   force =    -0.00004345   -0.00011211    0.00117753
     atom   14 type  2   force =     0.00006351   -0.00004410    0.00042694
     atom   15 type  2   force =    -0.00000405   -0.00001909    0.00041719
     atom   16 type  1   force =     0.00003863   -0.00002889    0.00108241
     atom   17 type  2   force =    -0.00004101   -0.00008477    0.00034649
     atom   18 type  2   force =    -0.00003186   -0.00000803    0.00035769
     atom   19 type  1   force =    -0.00008941    0.00019849    0.00119198
     atom   20 type  2   force =    -0.00000842    0.00002549    0.00036667
     atom   21 type  1   force =    -0.00001280   -0.00003720    0.00132534
     atom   22 type  2   force =    -0.00005929    0.00003855    0.00037748
     atom   23 type  2   force =    -0.00004125   -0.00002094    0.00044017
     atom   24 type  1   force =    -0.00018986   -0.00032860    0.00146716
     atom   25 type  2   force =    -0.00015567   -0.00011108    0.00041920
     atom   26 type  2   force =    -0.00000251   -0.00005341    0.00045658
     atom   27 type  1   force =    -0.00011122   -0.00001928    0.00112357
     atom   28 type  2   force =    -0.00002330   -0.00014653    0.00038982
     atom   29 type  2   force =     0.00002618    0.00003326    0.00037263
     atom   30 type  1   force =     0.00004738    0.00021033    0.00120529
     atom   31 type  2   force =    -0.00004127    0.00013405    0.00034734
     atom   32 type  2   force =    -0.00001633    0.00002139    0.00039359
     atom   33 type  1   force =    -0.00013727    0.00003303    0.00139972
     atom   34 type  2   force =    -0.00006271    0.00021021    0.00038742
     atom   35 type  2   force =     0.00006143    0.00002474    0.00048250
     atom   36 type  3   force =    -0.00001410    0.00000407    0.00003194

     Total force =     0.080697     Total SCF correction =     0.004944
     Energy error            =      9.7E-03 Ry
     Gradient error          =      3.4E-02 Ry/Bohr

     number of scf cycles    =   2
     number of bfgs steps    =   1

     energy             old  =   -2205.5299379523 Ry
     energy             new  =   -2205.5396544330 Ry

     CASE: energy            _new < energy            _old

     new trust radius        =       0.0611322890 bohr
     new conv_thr            =       0.0000000336 Ry


ATOMIC_POSITIONS (angstrom)
Mo            6.5684927233        1.7806981509        2.8072183728
S             8.2184222501        0.7881903771        4.4746164757
S             8.1785641063        0.8219602021        1.2708071063
Mo            8.1006221639        4.4916217059        2.7177904295
S             6.4974239576        3.7175702179        4.3386024272
S             6.5525575790        3.5211155946        1.1234789849
Mo            6.4923627415        7.2094751924        2.6649690785
S             8.0834513163        6.3381469904        4.2601230389
S             8.0964618193        6.3119695591        1.0963960756
Mo            8.1501431581        9.9083503677        2.8141217447
S             6.4991814413        8.9401905092        4.3739813153
S             6.6131148678        9.0476366175        1.1445950212
Mo            3.4320111106        1.7557699459        2.7688750449
S             4.9836896686        0.8164984345        4.3610289936
S             5.0455496385        0.8460630407        1.2146790144
Mo            4.9799018088        4.5245556374        2.6385600040
S             3.4352577585        3.6734904987        4.2798902662
S             3.4351431862        3.5418444993        1.0738218730
Mo            3.4624326069        7.2075174346        2.6284004068
S             4.9868181467        6.3217701423        1.0370684291
Mo            5.0084480040        9.9093019229        2.7441085613
S             3.4692357518        8.9412420110        4.3220740837
S             3.4095452195        9.0643566578        1.1042121761
Mo            0.2880319486        1.7474698673        2.8247212958
S             1.8575940707        0.8073445116        4.4045321242
S             1.8490610411        0.8537738249        1.2033356413
Mo            1.8591864648        4.4911454130        2.6678024091
S             0.2735734916        3.6538873165        4.3311840266
S             0.2345393435        3.5291534482        1.1687241259
Mo            0.2668013635        7.2185240842        2.6866308286
S             1.9032412002        6.3125378268        4.2382645738
S             1.8508690185        6.3177123836        1.0541675563
Mo            1.8549937672        9.9363466028        2.7684761915
S             0.2953958402        9.0689537143        4.4147934319
S             0.2680891368        9.0521831673        1.1617991122
H            -0.0278606992        0.0125785402        5.3364896305



     Writing config-only to output data dir ./MoS2-V-O.save/
     NEW-OLD atomic charge density approx. for the potential

     negative rho (up, down):  1.439E-04 0.000E+00

     total cpu time spent up to now is      170.7 secs

     Self-consistent Calculation

     iteration #  1     ecut=    80.00 Ry     beta= 0.70
     Davidson diagonalization with overlap
     ethr =  1.00E-06,  avg # of iterations =  8.0

     negative rho (up, down):  9.942E-05 0.000E+00

     total cpu time spent up to now is      186.1 secs

     total energy              =   -2205.54719779 Ry
     estimated scf accuracy    <       0.00081099 Ry

     iteration #  2     ecut=    80.00 Ry     beta= 0.70
     Davidson diagonalization with overlap
     ethr =  2.64E-07,  avg # of iterations =  2.0

     negative rho (up, down):  7.734E-05 0.000E+00

     total cpu time spent up to now is      201.2 secs

     total energy              =   -2205.54723934 Ry
     estimated scf accuracy    <       0.00014817 Ry

     iteration #  3     ecut=    80.00 Ry     beta= 0.70
     Davidson diagonalization with overlap
     ethr =  4.83E-08,  avg # of iterations =  6.0

     negative rho (up, down):  6.760E-05 0.000E+00

     total cpu time spent up to now is      221.6 secs

     total energy              =   -2205.54726320 Ry
     estimated scf accuracy    <       0.00002567 Ry

     iteration #  4     ecut=    80.00 Ry     beta= 0.70
     Davidson diagonalization with overlap
     ethr =  8.36E-09,  avg # of iterations =  5.0

     negative rho (up, down):  6.753E-05 0.000E+00

     total cpu time spent up to now is      239.8 secs

     total energy              =   -2205.54727055 Ry
     estimated scf accuracy    <       0.00000318 Ry

     iteration #  5     ecut=    80.00 Ry     beta= 0.70
     Davidson diagonalization with overlap
     ethr =  1.04E-09,  avg # of iterations =  6.0

     negative rho (up, down):  7.254E-05 0.000E+00

     total cpu time spent up to now is      253.0 secs

     total energy              =   -2205.54727090 Ry
     estimated scf accuracy    <       0.00000089 Ry

     iteration #  6     ecut=    80.00 Ry     beta= 0.70
     Davidson diagonalization with overlap
     ethr =  2.91E-10,  avg # of iterations =  4.0

     negative rho (up, down):  7.863E-05 0.000E+00

     total cpu time spent up to now is      262.2 secs

     total energy              =   -2205.54727102 Ry
     estimated scf accuracy    <       0.00000016 Ry

     iteration #  7     ecut=    80.00 Ry     beta= 0.70
     Davidson diagonalization with overlap
     ethr =  5.22E-11,  avg # of iterations =  5.0

     negative rho (up, down):  9.303E-05 0.000E+00

     total cpu time spent up to now is      273.8 secs

     total energy              =   -2205.54727096 Ry
     estimated scf accuracy    <       0.00000006 Ry

     iteration #  8     ecut=    80.00 Ry     beta= 0.70
     Davidson diagonalization with overlap
     ethr =  2.00E-11,  avg # of iterations =  2.0

     negative rho (up, down):  1.383E-04 0.000E+00

     total cpu time spent up to now is      276.1 secs

     End of self-consistent calculation

          k = 0.0000 0.0000 0.0000 (105382 PWs)   bands (ev):

   -62.8830 -62.8652 -62.8528 -62.8282 -62.8147 -62.8058 -62.7988 -62.7848
   -62.7686 -62.7639 -62.7552 -62.7355 -37.2233 -37.1565 -37.1312 -37.1241
   -37.1174 -37.0877 -37.0717 -37.0652 -37.0558 -37.0510 -37.0379 -37.0284
   -37.0230 -37.0176 -37.0061 -36.9957 -36.9911 -36.9822 -36.9676 -36.9587
   -36.9529 -36.9453 -36.9304 -36.9267 -36.9173 -36.9108 -36.9027 -36.8956
   -36.8884 -36.8670 -36.8526 -36.8383 -36.8160 -36.7744 -36.7252 -36.7080
   -16.0212 -15.2669 -15.1680 -15.0317 -14.9575 -14.8149 -14.5904 -14.4980
   -14.4547 -14.4171 -14.4021 -14.3686 -14.3406 -14.2875 -14.1546 -14.1387
   -14.1151 -14.1002 -14.0193 -13.9204 -13.8521 -13.8258 -13.7941  -8.1916
    -7.6029  -7.4449  -7.2694  -7.2598  -7.2042  -7.1933  -7.1150  -6.9062
    -6.8396  -6.7949  -6.7484  -6.7262  -6.5327  -6.4822  -6.4549  -6.4463
    -6.3640  -6.2219  -6.0163  -5.9858  -5.9016  -5.8465  -5.8136  -5.8023
    -5.7718  -5.7293  -5.6647  -5.6510  -5.6194  -5.5724  -5.5187  -5.4588
    -5.4012  -5.3234  -5.1676  -5.1462  -5.0854  -5.0313  -4.9770  -4.9585
    -4.9147  -4.8271  -4.6229  -4.5042  -4.3761  -4.3122  -4.2950  -4.2468
    -4.2326  -4.0744  -4.0250  -3.9698  -3.7982  -3.7539  -3.7144  -3.6972
    -3.6696  -3.5618  -3.5421  -3.5263  -3.4868  -3.4863  -3.4423  -3.3666
    -3.3531  -3.1941  -3.1420  -2.9008  -2.8852  -2.7759  -2.7581  -2.7237
    -2.6997  -2.6807  -2.6571  -2.6117  -2.5594  -2.2775  -2.0588  -2.0010
    -1.9805  -1.0886  -0.7443  -0.7125  -0.1504  -0.1197  -0.0535  -0.0310
     0.1055   0.1268   0.2042   0.2592   0.2765   0.2993   0.3712   0.4401
     0.4934   0.5428   0.5544   0.5899   0.6209   0.6849   0.6974   0.7710
     0.7804   0.7969   0.8854   0.8916   0.9692   1.0122   1.0290   1.3361
     1.3891

     the Fermi energy is    -1.0887 ev

!    total energy              =   -2205.54727081 Ry
     estimated scf accuracy    <       0.00000002 Ry
     smearing contrib. (-TS)   =      -0.00565391 Ry
     internal energy E=F+TS    =   -2205.54161691 Ry

     The total energy is F=E-TS. E is the sum of the following terms:
     one-electron contribution =  -18046.19090872 Ry
     hartree contribution      =    9009.94219509 Ry
     xc contribution           =    -385.24801132 Ry
     ewald contribution        =    7215.95510803 Ry

     convergence has been achieved in   8 iterations

     negative rho (up, down):  1.383E-04 0.000E+00

     Forces acting on atoms (cartesian axes, Ry/au):

     atom    1 type  1   force =    -0.00310393   -0.00297966   -0.00584904
     atom    2 type  2   force =     0.03078655   -0.01808635    0.02431289
     atom    3 type  2   force =    -0.01134351    0.00705897   -0.01103820
     atom    4 type  1   force =     0.00278930   -0.00077230    0.00233962
     atom    5 type  2   force =    -0.00010658   -0.00547295   -0.00558190
     atom    6 type  2   force =    -0.00191026    0.00644447    0.00088467
     atom    7 type  1   force =     0.00226342   -0.00377213    0.00186865
     atom    8 type  2   force =     0.00181115   -0.00412125    0.00637274
     atom    9 type  2   force =     0.00876017    0.00278707    0.00377942
     atom   10 type  1   force =     0.00075609    0.00463715    0.00201153
     atom   11 type  2   force =     0.00291207   -0.00162914   -0.00945818
     atom   12 type  2   force =    -0.00618638   -0.00138847   -0.00221721
     atom   13 type  1   force =     0.00180220   -0.00093143    0.00170494
     atom   14 type  2   force =     0.00596810    0.00158217    0.00275786
     atom   15 type  2   force =    -0.00752992   -0.00005345   -0.01007559
     atom   16 type  1   force =     0.00058788    0.00575365    0.00218372
     atom   17 type  2   force =     0.00498941    0.00131900    0.00189266
     atom   18 type  2   force =    -0.00071288   -0.00079400    0.00820611
     atom   19 type  1   force =     0.00293422   -0.00473039    0.00346221
     atom   20 type  2   force =     0.00264298   -0.00348189   -0.00429853
     atom   21 type  1   force =    -0.00091167    0.00367629    0.00265499
     atom   22 type  2   force =     0.00010421   -0.00182021   -0.00257375
     atom   23 type  2   force =     0.00132022   -0.00180846    0.00279818
     atom   24 type  1   force =    -0.00190390   -0.00163774   -0.00070732
     atom   25 type  2   force =     0.00718608    0.01085601   -0.00670549
     atom   26 type  2   force =    -0.00361505   -0.00084532   -0.00462922
     atom   27 type  1   force =    -0.00078386    0.00004153    0.00529685
     atom   28 type  2   force =     0.00018070   -0.00345868   -0.00495772
     atom   29 type  2   force =     0.00229627    0.00268321   -0.00527050
     atom   30 type  1   force =    -0.00095112    0.00062278    0.00811521
     atom   31 type  2   force =    -0.00010964   -0.00005078    0.00497051
     atom   32 type  2   force =    -0.00492461    0.00285097    0.00505593
     atom   33 type  1   force =     0.00049647    0.00093185    0.00391999
     atom   34 type  2   force =    -0.00170377   -0.01751632   -0.01257629
     atom   35 type  2   force =    -0.00345849    0.00681153    0.00088198
     atom   36 type  3   force =    -0.03133194    0.01729425   -0.00953172
     The non-local contrib.  to forces
     atom    1 type  1   force =     0.00805911    0.01952106   -0.00944301
     atom    2 type  2   force =     0.16318358   -0.09992339   -0.11108059
     atom    3 type  2   force =    -0.01083885   -0.00642802    0.26832662
     atom    4 type  1   force =     0.00128550    0.00918182    0.00290027
     atom    5 type  2   force =     0.00618887   -0.02592043   -0.24708762
     atom    6 type  2   force =    -0.00562862    0.00508293    0.26490854
     atom    7 type  1   force =    -0.02183270   -0.00595768   -0.02264432
     atom    8 type  2   force =     0.00160260   -0.00436296   -0.25995360
     atom    9 type  2   force =     0.00328114   -0.01237823    0.27173816
     atom   10 type  1   force =     0.00280486    0.00338937    0.00053805
     atom   11 type  2   force =     0.01153903    0.00694894   -0.25927338
     atom   12 type  2   force =    -0.01648420   -0.01784687    0.25859774
     atom   13 type  1   force =    -0.00005768    0.02119748   -0.00712059
     atom   14 type  2   force =     0.00237112   -0.01065379   -0.25424911
     atom   15 type  2   force =    -0.00929519   -0.00224320    0.26164718
     atom   16 type  1   force =    -0.00050332    0.02955642   -0.03441380
     atom   17 type  2   force =     0.00069235   -0.02606109   -0.24689455
     atom   18 type  2   force =    -0.00138638   -0.00066563    0.27054638
     atom   19 type  1   force =     0.01855957   -0.00597775   -0.01919135
     atom   20 type  2   force =    -0.00048080   -0.01930260    0.26154201
     atom   21 type  1   force =    -0.00006970    0.02347150    0.00512561
     atom   22 type  2   force =    -0.00301156    0.00551437   -0.25835409
     atom   23 type  2   force =     0.00914625   -0.01683512    0.26552208
     atom   24 type  1   force =    -0.00217087    0.01420399   -0.00531802
     atom   25 type  2   force =    -0.00415041   -0.00835828   -0.23909446
     atom   26 type  2   force =     0.00308669   -0.01076381    0.26536004
     atom   27 type  1   force =    -0.00160424    0.00893433    0.00766195
     atom   28 type  2   force =    -0.00347851   -0.02748854   -0.27060009
     atom   29 type  2   force =     0.00578192    0.00194253    0.26219011
     atom   30 type  1   force =     0.00194107    0.01861734    0.00162219
     atom   31 type  2   force =    -0.00549109   -0.00002280   -0.25999730
     atom   32 type  2   force =     0.00142138   -0.01293858    0.27187649
     atom   33 type  1   force =    -0.00471699    0.00420897    0.00382751
     atom   34 type  2   force =     0.00082393    0.01513789   -0.23661121
     atom   35 type  2   force =    -0.00083362   -0.01044432    0.26672861
     atom   36 type  3   force =    -0.01421410    0.00806600   -0.01365798
     The ionic contribution  to forces
     atom    1 type  1   force =     0.47342169    0.36134144    5.30545802
     atom    2 type  2   force =    -1.57586319    0.97246369   38.92114889
     atom    3 type  2   force =    -0.16079793    0.05113844  -36.27995637
     atom    4 type  1   force =    -0.04354562    0.63808339    0.85774439
     atom    5 type  2   force =    -0.92637431    1.41983246   38.65828225
     atom    6 type  2   force =     0.29629401   -0.41503443  -37.95808876
     atom    7 type  1   force =    -2.60038438   -2.65932814    2.46903017
     atom    8 type  2   force =    -0.98556978    0.03820196   37.56723690
     atom    9 type  2   force =     0.24923253   -0.14137827  -37.93425163
     atom   10 type  1   force =    -1.13867483   -0.43306535    4.24829082
     atom   11 type  2   force =    -0.63354133   -1.69365750   38.97484979
     atom   12 type  2   force =     0.27174112    0.57709832  -37.84400387
     atom   13 type  1   force =     0.32893861    0.80469653    2.68470893
     atom   14 type  2   force =     0.05554190    0.04836449   38.65540538
     atom   15 type  2   force =     0.11366061   -0.09792339  -37.00390543
     atom   16 type  1   force =     0.03597270    3.84379596    0.89411266
     atom   17 type  2   force =     0.81999807    1.49177243   38.00877892
     atom   18 type  2   force =    -0.14633232   -0.49494644  -38.44582065
     atom   19 type  1   force =     2.53968836   -2.38516105    0.68250404
     atom   20 type  2   force =     0.18469669   -0.19383417  -38.59425957
     atom   21 type  1   force =     0.01176573   -0.10590706    1.43477428
     atom   22 type  2   force =     0.54237594   -1.79850202   38.39765860
     atom   23 type  2   force =    -0.06762628    0.57088632  -38.22433742
     atom   24 type  1   force =    -0.41803636    1.25768189    4.52327385
     atom   25 type  2   force =     1.07822010    0.47365287   38.90202818
[...]
     atom   27 type  1   force =     0.00033757    0.00950438    0.00401139
     atom   28 type  2   force =     0.00171107   -0.02280126   -0.26638905
     atom   29 type  2   force =    -0.00076360   -0.00595046    0.26627033
     atom   30 type  1   force =     0.00350108    0.01430049    0.00173000
     atom   31 type  2   force =    -0.00765052    0.00015675   -0.26444880
     atom   32 type  2   force =     0.00680842   -0.01455854    0.26834783
     atom   33 type  1   force =    -0.00119973    0.00235114    0.00262716
     atom   34 type  2   force =     0.00181572   -0.00128527   -0.25745166
     atom   35 type  2   force =    -0.00066703   -0.01598602    0.26859095
     atom   36 type  3   force =    -0.03343445    0.01866061   -0.03922980
     The ionic contribution  to forces
     atom    1 type  1   force =     1.15736619   -0.04866191    0.09854095
     atom    2 type  2   force =    -2.03827003    1.17553999   38.53027014
     atom    3 type  2   force =     0.21225367   -0.15685915  -36.84066932
     atom    4 type  1   force =    -0.06857656    0.59773160    0.46578686
     atom    5 type  2   force =    -0.82460981    1.08850095   38.12528707
     atom    6 type  2   force =     0.40779051   -0.07769235  -38.49431935
     atom    7 type  1   force =    -2.48806001   -2.38635569    2.28287711
     atom    8 type  2   force =    -1.29057785    0.00615082   38.00319483
     atom    9 type  2   force =     0.37362185   -0.03640227  -37.68732211
     atom   10 type  1   force =    -1.00948690   -0.00774405    4.30984963
     atom   11 type  2   force =    -0.71898955   -1.56476531   38.55851249
     atom   12 type  2   force =     0.36116474    0.37579817  -37.87266227
     atom   13 type  1   force =     0.08703837    0.81106900    1.87725091
     atom   14 type  2   force =     0.23298073    0.03680157   38.22424153
     atom   15 type  2   force =    -0.08021211   -0.28175665  -38.12413888
     atom   16 type  1   force =    -0.00067502    3.78774258    1.06244532
     atom   17 type  2   force =     0.96468676    1.24175907   38.22737827
     atom   18 type  2   force =    -0.36629225   -0.24776269  -38.04494825
     atom   19 type  1   force =     2.50980341   -2.06680721    2.95356467
     atom   20 type  2   force =    -0.00666506    0.01737522  -38.68938640
     atom   21 type  1   force =     0.02443499   -0.32695797    0.30589856
     atom   22 type  2   force =     0.57417297   -1.49472720   38.42955513
     atom   23 type  2   force =    -0.26229846    0.23936625  -37.83132681
     atom   24 type  1   force =    -0.77132301    0.84953648    3.99511042
     atom   25 type  2   force =     0.79932704    0.19178853   38.69872358
     atom   26 type  2   force =    -0.19721676   -0.00777088  -37.43947646
     atom   27 type  1   force =     0.06493431    0.61973544    0.93434851
     atom   28 type  2   force =    -0.11344529    0.79491149   38.20312703
     atom   29 type  2   force =    -0.02442310   -0.13173856  -37.33106880
     atom   30 type  1   force =    -0.02322174   -1.01869491    2.04048902
     atom   31 type  2   force =     1.25935880    0.09944349   38.18626046
     atom   32 type  2   force =    -0.32207924    0.00197285  -37.67253469
     atom   33 type  1   force =     0.73916241   -0.79022804    2.77865307
     atom   34 type  2   force =     0.23422261   -1.04771769   38.77399978
     atom   35 type  2   force =    -0.05553993    0.13208981  -37.38858114
     atom   36 type  3   force =     0.65964333   -0.37467076    8.35106913
     The local contribution  to forces
     atom    1 type  1   force =    -1.15771023    0.03139217   -0.09303365
     atom    2 type  2   force =     1.81029637   -1.05030565  -38.52590865
     atom    3 type  2   force =    -0.20735033    0.16661624   36.58900879
     atom    4 type  1   force =     0.06703076   -0.60537271   -0.46912749
     atom    5 type  2   force =     0.81954918   -1.07797405  -37.90152875
     atom    6 type  2   force =    -0.40384374    0.08519872   38.25054818
     atom    7 type  1   force =     2.50920058    2.39325553   -2.26373187
     atom    8 type  2   force =     1.28407160   -0.00591229  -37.76023776
     atom    9 type  2   force =    -0.36725840    0.05190562   37.44008801
     atom   10 type  1   force =     1.01029648    0.00120750   -4.30455134
     atom   11 type  2   force =     0.70866054    1.55949030  -38.32463086
     atom   12 type  2   force =    -0.35011200   -0.36250377   37.63089481
     atom   13 type  1   force =    -0.09048482   -0.83144551   -1.87313081
     atom   14 type  2   force =    -0.21906549   -0.02337699  -37.99243385
     atom   15 type  2   force =     0.07800378    0.28091208   37.88036104
     atom   16 type  1   force =    -0.00040263   -3.82236131   -1.02962988
     atom   17 type  2   force =    -0.95789010   -1.21912610  -37.99504842
     atom   18 type  2   force =     0.36415699    0.25405030   37.79986832
     atom   19 type  1   force =    -2.53113859    2.07199142   -2.92795514
     atom   20 type  2   force =     0.00597692   -0.00393466   38.44849055
     atom   21 type  1   force =    -0.02407521    0.30517657   -0.31108873
     atom   22 type  2   force =    -0.57009172    1.49335353  -38.19077304
     atom   23 type  2   force =     0.25376980   -0.22990029   37.58472691
     atom   24 type  1   force =     0.77646199   -0.86403229   -3.99022006
     atom   25 type  2   force =    -0.79763957   -0.17992248  -38.47030297
     atom   26 type  2   force =     0.18997005    0.01514053   37.19213512
     atom   27 type  1   force =    -0.06537327   -0.62979519   -0.93894054
     atom   28 type  2   force =     0.11233591   -0.77324957  -37.95793072
     atom   29 type  2   force =     0.02435266    0.13783506   37.08505684
     atom   30 type  1   force =     0.01956298    1.00486946   -2.04288390
     atom   31 type  2   force =    -1.25132505   -0.09994844  -37.94248285
     atom   32 type  2   force =     0.31625033    0.01173637   37.42389157
     atom   33 type  1   force =    -0.73704339    0.78708525   -2.78133083
     atom   34 type  2   force =    -0.23593770    1.04931638  -38.53579793
     atom   35 type  2   force =     0.05564966   -0.11793669   37.14156351
     atom   36 type  3   force =    -0.62689379    0.35755187   -8.31276618
     The core correction contribution to forces
     atom    1 type  1   force =     0.00000000    0.00000000    0.00000000
     atom    2 type  2   force =    -0.01588161    0.00872765    0.00261599
     atom    3 type  2   force =     0.00051511    0.00017266   -0.02122615
     atom    4 type  1   force =     0.00000000    0.00000000    0.00000000
     atom    5 type  2   force =    -0.00052152    0.00035033    0.01991771
     atom    6 type  2   force =     0.00034851    0.00022112   -0.02090301
     atom    7 type  1   force =     0.00000000    0.00000000    0.00000000
     atom    8 type  2   force =    -0.00041578    0.00026021    0.02064043
     atom    9 type  2   force =     0.00061939    0.00082123   -0.02082757
     atom   10 type  1   force =     0.00000000    0.00000000    0.00000000
     atom   11 type  2   force =    -0.00060955   -0.00059360    0.02026813
     atom   12 type  2   force =     0.00098999    0.00109662   -0.02077409
     atom   13 type  1   force =     0.00000000    0.00000000    0.00000000
     atom   14 type  2   force =     0.00084400    0.00034880    0.02024492
     atom   15 type  2   force =    -0.00035434   -0.00020194   -0.02081977
     atom   16 type  1   force =     0.00000000    0.00000000    0.00000000
     atom   17 type  2   force =     0.00064060    0.00105478    0.02027115
     atom   18 type  2   force =    -0.00032049   -0.00011575   -0.02081091
     atom   19 type  1   force =     0.00000000    0.00000000    0.00000000
     atom   20 type  2   force =    -0.00001905    0.00064563   -0.02116669
     atom   21 type  1   force =     0.00000000    0.00000000    0.00000000
     atom   22 type  2   force =     0.00016240   -0.00021508    0.02047347
     atom   23 type  2   force =    -0.00072593    0.00077677   -0.02090573
     atom   24 type  1   force =     0.00000000    0.00000000    0.00000000
     atom   25 type  2   force =     0.00059063    0.00052555    0.01983855
     atom   26 type  2   force =    -0.00055803    0.00025519   -0.02093506
     atom   27 type  1   force =     0.00000000    0.00000000    0.00000000
     atom   28 type  2   force =    -0.00012762    0.00156166    0.02065456
     atom   29 type  2   force =     0.00004376    0.00002073   -0.02075634
     atom   30 type  1   force =     0.00000000    0.00000000    0.00000000
     atom   31 type  2   force =     0.00043210    0.00029666    0.02072195
     atom   32 type  2   force =    -0.00052620    0.00074421   -0.02089350
     atom   33 type  1   force =     0.00000000    0.00000000    0.00000000
     atom   34 type  2   force =     0.00016753   -0.00038698    0.02027971
     atom   35 type  2   force =    -0.00004485    0.00098512   -0.02099758
     atom   36 type  3   force =     0.00000000    0.00000000    0.00000000
     The Hubbard contrib.    to forces
     atom    1 type  1   force =     0.00000000    0.00000000    0.00000000
     atom    2 type  2   force =     0.00000000    0.00000000    0.00000000
     atom    3 type  2   force =     0.00000000    0.00000000    0.00000000
     atom    4 type  1   force =     0.00000000    0.00000000    0.00000000
     atom    5 type  2   force =     0.00000000    0.00000000    0.00000000
     atom    6 type  2   force =     0.00000000    0.00000000    0.00000000
     atom    7 type  1   force =     0.00000000    0.00000000    0.00000000
     atom    8 type  2   force =     0.00000000    0.00000000    0.00000000
     atom    9 type  2   force =     0.00000000    0.00000000    0.00000000
     atom   10 type  1   force =     0.00000000    0.00000000    0.00000000
     atom   11 type  2   force =     0.00000000    0.00000000    0.00000000
     atom   12 type  2   force =     0.00000000    0.00000000    0.00000000
     atom   13 type  1   force =     0.00000000    0.00000000    0.00000000
     atom   14 type  2   force =     0.00000000    0.00000000    0.00000000
     atom   15 type  2   force =     0.00000000    0.00000000    0.00000000
     atom   16 type  1   force =     0.00000000    0.00000000    0.00000000
     atom   17 type  2   force =     0.00000000    0.00000000    0.00000000
     atom   18 type  2   force =     0.00000000    0.00000000    0.00000000
     atom   19 type  1   force =     0.00000000    0.00000000    0.00000000
     atom   20 type  2   force =     0.00000000    0.00000000    0.00000000
     atom   21 type  1   force =     0.00000000    0.00000000    0.00000000
     atom   22 type  2   force =     0.00000000    0.00000000    0.00000000
     atom   23 type  2   force =     0.00000000    0.00000000    0.00000000
     atom   24 type  1   force =     0.00000000    0.00000000    0.00000000
     atom   25 type  2   force =     0.00000000    0.00000000    0.00000000
     atom   26 type  2   force =     0.00000000    0.00000000    0.00000000
     atom   27 type  1   force =     0.00000000    0.00000000    0.00000000
     atom   28 type  2   force =     0.00000000    0.00000000    0.00000000
     atom   29 type  2   force =     0.00000000    0.00000000    0.00000000
     atom   30 type  1   force =     0.00000000    0.00000000    0.00000000
     atom   31 type  2   force =     0.00000000    0.00000000    0.00000000
     atom   32 type  2   force =     0.00000000    0.00000000    0.00000000
     atom   33 type  1   force =     0.00000000    0.00000000    0.00000000
     atom   34 type  2   force =     0.00000000    0.00000000    0.00000000
     atom   35 type  2   force =     0.00000000    0.00000000    0.00000000
     atom   36 type  3   force =     0.00000000    0.00000000    0.00000000
     The SCF correction term to forces
     atom    1 type  1   force =    -0.00000172    0.00002636    0.00009256
     atom    2 type  2   force =    -0.00000699    0.00001634    0.00008833
     atom    3 type  2   force =     0.00000546   -0.00000034    0.00001632
     atom    4 type  1   force =     0.00000130   -0.00003666    0.00009263
     atom    5 type  2   force =    -0.00000440   -0.00001582    0.00004296
     atom    6 type  2   force =    -0.00001976    0.00000022    0.00002666
     atom    7 type  1   force =    -0.00000531    0.00001865    0.00006437
     atom    8 type  2   force =    -0.00000605   -0.00000811    0.00003923
     atom    9 type  2   force =     0.00000204    0.00001011    0.00001419
     atom   10 type  1   force =    -0.00002349    0.00001753    0.00007046
     atom   11 type  2   force =    -0.00000684    0.00001238    0.00004368
     atom   12 type  2   force =     0.00000491   -0.00000161    0.00001566
     atom   13 type  1   force =    -0.00001155    0.00004142    0.00009120
     atom   14 type  2   force =     0.00000865    0.00000778    0.00006054
     atom   15 type  2   force =    -0.00000541    0.00000366    0.00001138
     atom   16 type  1   force =    -0.00000154   -0.00003647    0.00009077
     atom   17 type  2   force =     0.00000738   -0.00001385    0.00002802
     atom   18 type  2   force =     0.00001493   -0.00001001    0.00003311
     atom   19 type  1   force =     0.00002208    0.00001731    0.00007791
     atom   20 type  2   force =     0.00000633   -0.00001063    0.00002318
     atom   21 type  1   force =     0.00000475    0.00000445    0.00010271
     atom   22 type  2   force =     0.00001700    0.00000863    0.00004035
     atom   23 type  2   force =    -0.00000151    0.00000507    0.00001186
     atom   24 type  1   force =    -0.00000222    0.00002202    0.00010463
     atom   25 type  2   force =     0.00000043    0.00002073    0.00005377
     atom   26 type  2   force =     0.00000262    0.00001201    0.00000717
     atom   27 type  1   force =     0.00000167   -0.00007644    0.00009549
     atom   28 type  2   force =    -0.00000291   -0.00002138    0.00004988
     atom   29 type  2   force =     0.00000446   -0.00000969    0.00002594
     atom   30 type  1   force =    -0.00002664    0.00001131    0.00001485
     atom   31 type  2   force =     0.00000373   -0.00001039    0.00004521
     atom   32 type  2   force =    -0.00000951    0.00000840    0.00000893
     atom   33 type  1   force =     0.00000988    0.00001336    0.00004841
     atom   34 type  2   force =    -0.00000596    0.00000637    0.00004203
     atom   35 type  2   force =    -0.00000462   -0.00000499    0.00000709
     atom   36 type  3   force =    -0.00000491    0.00000601    0.00000820

     Total force =     0.006111     Total SCF correction =     0.000366
     Energy error            =      9.4E-05 Ry
     Gradient error          =      1.5E-03 Ry/Bohr

     bfgs converged in  20 scf cycles and  19 bfgs steps
     (criteria: energy <  1.0E-04 Ry, force <  1.0E-02 Ry/Bohr)

     End of BFGS Geometry Optimization

     Final energy             =   -2205.5826269650 Ry

     File ./MoS2-V-O.bfgs deleted, as requested
Begin final coordinates

ATOMIC_POSITIONS (angstrom)
Mo            6.5423632080        1.7803263630        2.6942695422
S             8.2291114563        0.7737255642        4.5229975434
S             8.1610349612        0.8294713248        1.2085204076
Mo            8.1191021771        4.4714202823        2.7091585026
S             6.5106126103        3.6565944414        4.2860928545
S             6.5463209984        3.5716044223        1.0784525113
Mo            6.5216442776        7.1977196030        2.6610795695
S             8.0842204156        6.2914508520        4.2946163710
S             8.1537997997        6.3169627143        1.1192626481
Mo            8.1564609061        9.9228955053        2.8067897952
S             6.5131214868        8.9414675086        4.3322282322
S             6.6195687136        9.0366316319        1.1295568225
Mo            3.4393141707        1.7462396232        2.7463446240
S             5.0264850392        0.8286456523        4.3113075620
S             4.9915793975        0.8350523055        1.1221439958
Mo            4.9941183676        4.5366690476        2.6353322726
S             3.4773283348        3.6570977236        4.2975000981
S             3.4243187749        3.5593780753        1.1064368874
Mo            3.4920832397        7.1846729313        2.6721982955
S             5.0041542550        6.3269922215        1.0331578242
Mo            5.0175486547        9.9193500529        2.7146085675
S             3.4974954037        8.9577255249        4.3220306404
S             3.4066524391        9.0263763559        1.1277559533
Mo            0.2802145720        1.7277893292        2.8071698967
S             1.8953953449        0.8420811667        4.3688439848
S             1.8348277839        0.8304537227        1.1838295637
Mo            1.8670155792        4.4824223196        2.7197772392
S             0.2662677114        3.6136932168        4.3295891855
S             0.2730782378        3.5313701318        1.1657599998
Mo            0.2771075973        7.2055884243        2.7421837399
S             1.9253093013        6.2975107042        4.3041942484
S             1.8561152375        6.3171252278        1.1252412039
Mo            1.8630985517        9.9297898559        2.7742374841
S             0.2933369925        8.9966236466        4.3739834002
S             0.2706189843        9.0470252734        1.1827962150
H            -0.3584779695        0.2910036646        5.5108921894
End final coordinates



     Writing all to output data dir ./MoS2-V-O.save/
 
     init_run     :      2.44s CPU      2.70s WALL (       1 calls)
     electrons    :   1798.78s CPU   2009.87s WALL (      20 calls)
     update_pot   :     28.01s CPU     29.70s WALL (      19 calls)
     forces       :     28.65s CPU     33.50s WALL (      20 calls)

     Called by init_run:
     wfcinit      :      0.38s CPU      0.43s WALL (       1 calls)
     potinit      :      1.37s CPU      1.49s WALL (       1 calls)
     hinit0       :      0.17s CPU      0.18s WALL (       1 calls)

     Called by electrons:
     c_bands      :    238.29s CPU    242.19s WALL (     174 calls)
     sum_band     :     50.99s CPU     68.45s WALL (     174 calls)
     v_of_rho     :     87.32s CPU    106.23s WALL (     181 calls)
     newd         :     24.14s CPU     39.44s WALL (     181 calls)
     mix_rho      :   1407.73s CPU   1563.76s WALL (     174 calls)

     Called by c_bands:
     init_us_2    :      3.72s CPU      4.01s WALL (     349 calls)
     init_us_2:cp :      3.71s CPU      4.01s WALL (     349 calls)
     regterg      :    225.23s CPU    228.82s WALL (     174 calls)

     Called by *egterg:
     rdiaghg      :     16.16s CPU     16.34s WALL (     909 calls)
     h_psi        :    117.74s CPU    118.90s WALL (     942 calls)
     s_psi        :     13.78s CPU     13.83s WALL (     942 calls)
     g_psi        :      1.48s CPU      1.49s WALL (     767 calls)

     Called by h_psi:
     h_psi:calbec :     17.40s CPU     17.47s WALL (     942 calls)
     vloc_psi     :     83.30s CPU     84.25s WALL (     942 calls)
     add_vuspsi   :     13.82s CPU     13.92s WALL (     942 calls)

     General routines
     calbec       :     25.06s CPU     25.16s WALL (    1196 calls)
     fft          :     56.92s CPU     66.04s WALL (   12213 calls)
     ffts         :    632.45s CPU    783.41s WALL (  343572 calls)
     fftw         :     71.09s CPU     71.75s WALL (  104920 calls)
     interpolate  :      1.31s CPU      1.55s WALL (     181 calls)
 
     Parallel routines
 
     PWSCF        :  31m 1.52s CPU  34m42.07s WALL

 
   This run was terminated on:  21:25:56   3Nov2023            

=------------------------------------------------------------------------------=
   JOB DONE.
=------------------------------------------------------------------------------=
