
     Program PWSCF v.7.2 starts on  4Nov2023 at  7:24:22 

     This program is part of the open-source Quantum ESPRESSO suite
     for quantum simulation of materials; please cite
         "P. Giannozzi et al., J. Phys.:Condens. Matter 21 395502 (2009);
         "P. Giannozzi et al., J. Phys.:Condens. Matter 29 465901 (2017);
         "P. Giannozzi et al., J. Chem. Phys. 152 154105 (2020);
          URL http://www.quantum-espresso.org", 
     in publications or presentations arising from this work. More details at
     http://www.quantum-espresso.org/quote

     Parallel version (MPI & OpenMP), running on      48 processor cores
     Number of MPI processes:                48
     Threads/MPI process:                     1

     MPI processes distributed on     1 nodes
     16997 MiB available memory on the printing compute node when the environment starts
 
     Waiting for input...
     Reading input from standard input
Warning: card &CELL ignored
Warning: card CELL_DYNAMICS = 'BFGS', ignored
Warning: card CELL_DOFREE = '2DXY' ignored
Warning: card / ignored

     Current dimensions of program PWSCF are:
     Max number of different atomic species (ntypx) = 10
     Max number of k-points (npk) =  40000
     Max angular momentum in pseudopotentials (lmaxx) =  4

     IMPORTANT: XC functional enforced from input :
     Exchange-correlation= RVV10
                           (   1   4  13   4  26   0   0)
     Any further DFT definition will be discarded
     Please, verify this is what you really want


     gamma-point specific algorithms are used
     signal trapping enabled: kill the code with -SIGUSR1 to stop cleanly the simulation 
 
     R & G space division:  proc/nbgrp/npool/nimage =      48
     Subspace diagonalization in iterative solution of the eigenvalue problem:
     one sub-group per band group will be used
     scalapack distributed-memory algorithm (size of sub-group:  2*  2 procs)

 
     Parallelization info
     --------------------
     sticks:   dense  smooth     PW     G-vecs:    dense   smooth      PW
     Min         243     194     47                49060    35090    4376
     Max         246     196     50                49086    35128    4410
     Sum       11735    9389   2349              2355467  1685513  210763
 
     Using Slab Decomposition
 


     bravais-lattice index     =            0
     lattice parameter (alat)  =      17.8707  a.u.
     unit-cell volume          =   17436.2743 (a.u.)^3
     number of atoms/cell      =           36
     number of atomic types    =            3
     number of electrons       =       307.00
     number of Kohn-Sham states=          185
     kinetic-energy cutoff     =      80.0000  Ry
     charge density cutoff     =     400.0000  Ry
     scf convergence threshold =      1.0E-06
     mixing beta               =       0.7000
     number of iterations used =            8  local-TF  mixing
     energy convergence thresh.=      1.0E-04
     force convergence thresh. =      1.0E-02
     Exchange-correlation= RVV10
                           (   1   4  13   4  26   0   0)
     nstep                     =          200


     celldm(1)=  17.870686  celldm(2)=   0.000000  celldm(3)=   0.000000
     celldm(4)=   0.000000  celldm(5)=   0.000000  celldm(6)=   0.000000

     crystal axes: (cart. coord. in units of alat)
               a(1) = (   1.000000   0.000000   0.000000 )  
               a(2) = (   0.000000   1.155671   0.000000 )  
               a(3) = (   0.000000   0.000000   2.643601 )  

     reciprocal axes: (cart. coord. in units 2 pi/alat)
               b(1) = (  1.000000  0.000000  0.000000 )  
               b(2) = (  0.000000  0.865298  0.000000 )  
               b(3) = (  0.000000  0.000000  0.378272 )  


     PseudoPot. # 1 for Mo read from file:
     ../pseudo/Mo_ONCV_PBE-1.0.oncvpsp.upf
     MD5 check sum: 1b5d28e075c9ccadda658a603575cd1f
     Pseudo is Norm-conserving, Zval = 14.0
     Generated using ONCVPSP code by D. R. Hamann
     Using radial grid of 1526 points,  6 beta functions with: 
                l(1) =   0
                l(2) =   0
                l(3) =   1
                l(4) =   1
                l(5) =   2
                l(6) =   2

     PseudoPot. # 2 for S  read from file:
     ../pseudo/s_pbe_v1.4.uspp.F.UPF
     MD5 check sum: 88d86576ff6df21479756cfb9bdac1df
     Pseudo is Ultrasoft + core correction, Zval =  6.0
     Generated by new atomic code, or converted to UPF format
     Using radial grid of  907 points,  6 beta functions with: 
                l(1) =   0
                l(2) =   0
                l(3) =   1
                l(4) =   1
                l(5) =   2
                l(6) =   2
     Q(r) pseudized with  8 coefficients,  rinner =    1.300   1.300   1.300
                                                       1.300   1.300

     PseudoPot. # 3 for H  read from file:
     ../pseudo/H_ONCV_PBE-1.0.oncvpsp.upf
     MD5 check sum: 1790becc920ee074925cf490c71280fe
     Pseudo is Norm-conserving, Zval =  1.0
     Generated using ONCVPSP code by D. R. Hamann
     Using radial grid of 1166 points,  2 beta functions with: 
                l(1) =   0
                l(2) =   0

     atomic species   valence    mass     pseudopotential
        Mo            14.00    95.94000     Mo( 1.00)
        S              6.00    32.06500     S ( 1.00)
        H              1.00     1.00794     H ( 1.00)

     No symmetry found



   Cartesian axes

     site n.     atom                  positions (alat units)
         1           Mo  tau(   1) = (   0.6952221   0.1890506   0.2985846  )
         2           S   tau(   2) = (   0.8646417   0.0856217   0.4689279  )
         3           S   tau(   3) = (   0.8663890   0.0857843   0.1351291  )
         4           Mo  tau(   4) = (   0.8560186   0.4753274   0.2873942  )
         5           S   tau(   5) = (   0.6873294   0.3936244   0.4596353  )
         6           S   tau(   6) = (   0.6929804   0.3713468   0.1185692  )
         7           Mo  tau(   7) = (   0.6862796   0.7633098   0.2825370  )
         8           S   tau(   8) = (   0.8545980   0.6708292   0.4486168  )
         9           S   tau(   9) = (   0.8545123   0.6666874   0.1146125  )
        10           Mo  tau(  10) = (   0.8629403   1.0471007   0.3006803  )
        11           S   tau(  11) = (   0.6868280   0.9456650   0.4634891  )
        12           S   tau(  12) = (   0.6998113   0.9568511   0.1205389  )
        13           Mo  tau(  13) = (   0.3618216   0.1847309   0.2935964  )
        14           S   tau(  14) = (   0.5260962   0.0863870   0.4600448  )
        15           S   tau(  15) = (   0.5348379   0.0894875   0.1297123  )
        16           Mo  tau(  16) = (   0.5265817   0.4772436   0.2784130  )
        17           S   tau(  17) = (   0.3624753   0.3882513   0.4525556  )
        18           S   tau(  18) = (   0.3635411   0.3752055   0.1119148  )
        19           Mo  tau(  19) = (   0.3652268   0.7630864   0.2781795  )
        20           S   tau(  20) = (   0.5269494   0.6690381   0.1096838  )
        21           Mo  tau(  21) = (   0.5300192   1.0470394   0.2900995  )
        22           S   tau(  22) = (   0.3670346   0.9457522   0.4574073  )
        23           S   tau(  23) = (   0.3604225   0.9585725   0.1159032  )
        24           Mo  tau(  24) = (   0.0313099   0.1847895   0.3013130  )
        25           S   tau(  25) = (   0.1956761   0.0838230   0.4650863  )
        26           S   tau(  26) = (   0.1967693   0.0903508   0.1278874  )
        27           Mo  tau(  27) = (   0.1967578   0.4753919   0.2813011  )
        28           S   tau(  28) = (   0.0287851   0.3864324   0.4586755  )
        29           S   tau(  29) = (   0.0244514   0.3729871   0.1239344  )
        30           Mo  tau(  30) = (   0.0286728   0.7631204   0.2856894  )
        31           S   tau(  31) = (   0.2011512   0.6675435   0.4465001  )
        32           S   tau(  32) = (   0.1969214   0.6672839   0.1104564  )
        33           Mo  tau(  33) = (   0.1950294   1.0511147   0.2932237  )
        34           S   tau(  34) = (   0.0312912   0.9612169   0.4667423  )
        35           S   tau(  35) = (   0.0292670   0.9563028   0.1216485  )
        36           H   tau(  36) = (   0.1111111   0.8988550   0.5792558  )

     number of k points=     1  Gaussian smearing, width (Ry)=  0.0100
                       cart. coord. in units 2pi/alat
        k(    1) = (   0.0000000   0.0000000   0.0000000), wk =   2.0000000

     Dense  grid:  1177734 G-vectors     FFT dimensions: ( 120, 135, 320)

     Smooth grid:   842757 G-vectors     FFT dimensions: ( 108, 120, 270)

     Estimated max dynamical RAM per process >     146.59 MB

     Estimated total dynamical RAM >       6.87 GB

     Initial potential from superposition of free atoms

     starting charge     306.9873, renormalised to     307.0000

     negative rho (up, down):  1.405E-04 0.000E+00


---------------------------------------------------------------------------------
Carrying out rVV10 run using the following parameters:
Nqs =      20    Nr_points =    1024   r_max =   100.000
b_value =  6.30000    beta =  0.00901
     q_mesh =  0.00010000  0.00030000  0.00058939  0.00100810
               0.00161396  0.00249058  0.00375900  0.00559430
               0.00824984  0.01209221  0.01765183  0.02569619
               0.03733578  0.05417739  0.07854596  0.11380545
               0.16482331  0.23864234  0.34545298  0.50000000

Gradients computed in Reciprocal space

---------------------------------------------------------------------------------


     Starting wfcs are  213 randomized atomic wfcs

     total cpu time spent up to now is        3.0 secs

     Self-consistent Calculation

     iteration #  1     ecut=    80.00 Ry     beta= 0.70
     Davidson diagonalization with overlap
     ethr =  1.00E-02,  avg # of iterations =  2.0

     Threshold (ethr) on eigenvalues was too large:
     Diagonalizing with lowered threshold

     Davidson diagonalization with overlap
     ethr =  4.04E-04,  avg # of iterations =  4.0

     negative rho (up, down):  2.128E-08 0.000E+00

     total cpu time spent up to now is       19.6 secs

     total energy              =   -2205.61438587 Ry
     estimated scf accuracy    <       1.52660192 Ry

     iteration #  2     ecut=    80.00 Ry     beta= 0.70
     Davidson diagonalization with overlap
     ethr =  4.97E-04,  avg # of iterations =  2.0

     total cpu time spent up to now is       22.1 secs

     total energy              =   -2205.47600508 Ry
     estimated scf accuracy    <       0.60144312 Ry

     iteration #  3     ecut=    80.00 Ry     beta= 0.70
     Davidson diagonalization with overlap
     ethr =  1.96E-04,  avg # of iterations =  4.0

     total cpu time spent up to now is       24.6 secs

     total energy              =   -2205.53343339 Ry
     estimated scf accuracy    <       0.12061778 Ry

     iteration #  4     ecut=    80.00 Ry     beta= 0.70
     Davidson diagonalization with overlap
     ethr =  3.93E-05,  avg # of iterations = 20.0

     total cpu time spent up to now is       28.0 secs

     total energy              =   -2205.54450714 Ry
     estimated scf accuracy    <       0.04944563 Ry

     iteration #  5     ecut=    80.00 Ry     beta= 0.70
     Davidson diagonalization with overlap
     ethr =  1.61E-05,  avg # of iterations =  2.0

     total cpu time spent up to now is       30.2 secs

     total energy              =   -2205.54641942 Ry
     estimated scf accuracy    <       0.03178033 Ry

     iteration #  6     ecut=    80.00 Ry     beta= 0.70
     Davidson diagonalization with overlap
     ethr =  1.04E-05,  avg # of iterations =  1.0

     total cpu time spent up to now is       32.3 secs

     total energy              =   -2205.54571968 Ry
     estimated scf accuracy    <       0.01587617 Ry

     iteration #  7     ecut=    80.00 Ry     beta= 0.70
     Davidson diagonalization with overlap
     ethr =  5.17E-06,  avg # of iterations =  2.0

     total cpu time spent up to now is       34.5 secs

     total energy              =   -2205.54374641 Ry
     estimated scf accuracy    <       0.01236902 Ry

     iteration #  8     ecut=    80.00 Ry     beta= 0.70
     Davidson diagonalization with overlap
     ethr =  4.03E-06,  avg # of iterations =  2.0

     negative rho (up, down):  7.588E-04 0.000E+00

     total cpu time spent up to now is       39.1 secs

     total energy              =   -2205.54281158 Ry
     estimated scf accuracy    <       0.00538902 Ry

     iteration #  9     ecut=    80.00 Ry     beta= 0.70
     Davidson diagonalization with overlap
     c_bands:  1 eigenvalues not converged
     ethr =  1.76E-06,  avg # of iterations = 20.0

     negative rho (up, down):  1.625E-02 0.000E+00

     total cpu time spent up to now is       45.7 secs

     total energy              =   -2205.54260891 Ry
     estimated scf accuracy    <       0.00300204 Ry

     iteration # 10     ecut=    80.00 Ry     beta= 0.70
     Davidson diagonalization with overlap
     c_bands:  1 eigenvalues not converged
     ethr =  9.78E-07,  avg # of iterations = 20.0

     negative rho (up, down):  3.010E-02 0.000E+00

     total cpu time spent up to now is       51.2 secs

     total energy              =   -2205.54257807 Ry
     estimated scf accuracy    <       0.00181457 Ry

     iteration # 11     ecut=    80.00 Ry     beta= 0.70
     Davidson diagonalization with overlap
     ethr =  5.91E-07,  avg # of iterations =  2.0

     negative rho (up, down):  2.492E-02 0.000E+00

     total cpu time spent up to now is       56.0 secs

     total energy              =   -2205.54264776 Ry
     estimated scf accuracy    <       0.00059272 Ry

     iteration # 12     ecut=    80.00 Ry     beta= 0.70
     Davidson diagonalization with overlap
     ethr =  1.93E-07,  avg # of iterations =  2.0

     negative rho (up, down):  1.162E-02 0.000E+00

     total cpu time spent up to now is       62.0 secs

     total energy              =   -2205.54269000 Ry
     estimated scf accuracy    <       0.00010144 Ry

     iteration # 13     ecut=    80.00 Ry     beta= 0.70
     Davidson diagonalization with overlap
     ethr =  3.30E-08,  avg # of iterations =  6.0

     negative rho (up, down):  2.611E-03 0.000E+00

     total cpu time spent up to now is       69.0 secs

     total energy              =   -2205.54274056 Ry
     estimated scf accuracy    <       0.00002099 Ry

     iteration # 14     ecut=    80.00 Ry     beta= 0.70
     Davidson diagonalization with overlap
     ethr =  6.84E-09,  avg # of iterations =  3.0

     negative rho (up, down):  6.444E-04 0.000E+00

     total cpu time spent up to now is       76.4 secs

     total energy              =   -2205.54274212 Ry
     estimated scf accuracy    <       0.00000388 Ry

     iteration # 15     ecut=    80.00 Ry     beta= 0.70
     Davidson diagonalization with overlap
     ethr =  1.26E-09,  avg # of iterations =  5.0

     negative rho (up, down):  2.780E-04 0.000E+00

     total cpu time spent up to now is       89.0 secs

     total energy              =   -2205.54274483 Ry
     estimated scf accuracy    <       0.00000105 Ry

     iteration # 16     ecut=    80.00 Ry     beta= 0.70
     Davidson diagonalization with overlap
     ethr =  3.42E-10,  avg # of iterations =  3.0

     negative rho (up, down):  1.365E-04 0.000E+00

     total cpu time spent up to now is       91.0 secs

     End of self-consistent calculation

          k = 0.0000 0.0000 0.0000 (105382 PWs)   bands (ev):

   -62.8491 -62.8301 -62.8202 -62.8086 -62.8041 -62.8025 -62.7728 -62.7697
   -62.7531 -62.6848 -62.6436 -62.5993 -37.1746 -37.1380 -37.1038 -37.0977
   -37.0886 -37.0708 -37.0569 -37.0427 -37.0301 -37.0217 -37.0123 -36.9991
   -36.9889 -36.9857 -36.9761 -36.9732 -36.9684 -36.9570 -36.9465 -36.9299
   -36.9262 -36.9067 -36.8719 -36.8654 -36.8618 -36.8454 -36.8354 -36.8249
   -36.8086 -36.8052 -36.8001 -36.7723 -36.7684 -36.7308 -36.6280 -36.6136
   -16.1994 -15.6267 -15.0910 -15.0399 -14.9075 -14.7903 -14.6595 -14.4484
   -14.4290 -14.3893 -14.3307 -14.2918 -14.2728 -14.2182 -14.1572 -14.0707
   -14.0672 -14.0462 -13.9630 -13.9196 -13.7856 -13.7617 -13.7397  -8.8342
    -7.5959  -7.4114  -7.3176  -7.2464  -7.1689  -7.1372  -7.1148  -7.0687
    -6.7868  -6.7365  -6.7315  -6.6503  -6.6008  -6.4793  -6.4526  -6.3845
    -6.3097  -6.2160  -6.1779  -5.9596  -5.8759  -5.8469  -5.7807  -5.7535
    -5.7193  -5.6644  -5.6158  -5.5972  -5.5692  -5.5125  -5.4771  -5.3987
    -5.3756  -5.3445  -5.2158  -5.1071  -5.0768  -5.0093  -4.9441  -4.9214
    -4.8578  -4.7933  -4.5947  -4.5387  -4.4275  -4.2906  -4.2544  -4.2147
    -4.1188  -4.1000  -3.9796  -3.8190  -3.7492  -3.7179  -3.7006  -3.6822
    -3.6150  -3.5734  -3.5189  -3.4472  -3.4288  -3.4107  -3.4031  -3.3226
    -3.3095  -3.1810  -3.1006  -2.8841  -2.8348  -2.8039  -2.7246  -2.6863
    -2.6654  -2.6068  -2.5999  -2.5651  -2.5055  -2.2190  -1.9801  -1.9343
    -1.8784  -0.7848  -0.6996  -0.5869  -0.1325  -0.1229  -0.0888  -0.0098
     0.0834   0.1573   0.2106   0.2752   0.2942   0.3622   0.4271   0.4852
     0.5062   0.5561   0.6006   0.6235   0.6746   0.7001   0.7420   0.7695
     0.8399   0.8410   0.8982   0.9485   0.9927   1.0441   1.1072   1.2020
     1.4478

     the Fermi energy is    -0.8151 ev

!    total energy              =   -2205.54274540 Ry
     estimated scf accuracy    <       0.00000046 Ry
     smearing contrib. (-TS)   =      -0.00844992 Ry
     internal energy E=F+TS    =   -2205.53429548 Ry

     The total energy is F=E-TS. E is the sum of the following terms:
     one-electron contribution =  -18045.13822579 Ry
     hartree contribution      =    9009.76235321 Ry
     xc contribution           =    -385.32132897 Ry
     ewald contribution        =    7215.16290607 Ry

     convergence has been achieved in  16 iterations

     negative rho (up, down):  1.365E-04 0.000E+00

     Forces acting on atoms (cartesian axes, Ry/au):

     atom    1 type  1   force =     0.01130917   -0.01951584    0.00619482
     atom    2 type  2   force =    -0.01698623    0.02255966    0.00269058
     atom    3 type  2   force =    -0.01295759    0.00621772   -0.00376104
     atom    4 type  1   force =     0.00862134    0.00128400    0.00047440
     atom    5 type  2   force =    -0.00088005   -0.00606381   -0.00551325
     atom    6 type  2   force =     0.00192072    0.01061893   -0.00015259
     atom    7 type  1   force =     0.00415676   -0.01000508   -0.00747811
     atom    8 type  2   force =     0.00005735   -0.00616409    0.01682288
     atom    9 type  2   force =     0.01204254    0.00389496    0.01030276
     atom   10 type  1   force =    -0.04150660    0.02121230   -0.04890660
     atom   11 type  2   force =    -0.00036809   -0.00207816   -0.00742572
     atom   12 type  2   force =     0.00454949    0.00097123    0.00745036
     atom   13 type  1   force =     0.00457191    0.00370855   -0.00771245
     atom   14 type  2   force =     0.00867772    0.00057059    0.01181926
     atom   15 type  2   force =    -0.01163756    0.00226585   -0.00898948
     atom   16 type  1   force =     0.00186805    0.00533616    0.00252358
     atom   17 type  2   force =     0.00612629    0.00057163    0.00136310
     atom   18 type  2   force =    -0.00611287   -0.00659010    0.01380254
     atom   19 type  1   force =     0.00484441   -0.00146617   -0.00330457
     atom   20 type  2   force =     0.00290221   -0.00549370    0.00032493
     atom   21 type  1   force =    -0.00328074    0.00619945    0.00307715
     atom   22 type  2   force =    -0.00506662   -0.00337720   -0.00457347
     atom   23 type  2   force =    -0.00334816    0.00309356    0.00929099
     atom   24 type  1   force =    -0.01090282   -0.00624198   -0.02095666
     atom   25 type  2   force =     0.01752757    0.02186297    0.00893305
     atom   26 type  2   force =    -0.01075927    0.00112792   -0.00338123
     atom   27 type  1   force =    -0.00125740   -0.00145751    0.00483781
     atom   28 type  2   force =     0.00008466   -0.00178930   -0.00482165
     atom   29 type  2   force =     0.00297804    0.00030747   -0.00246166
     atom   30 type  1   force =    -0.00166170    0.00846988   -0.01022540
     atom   31 type  2   force =     0.00087098    0.00275334    0.02156209
     atom   32 type  2   force =    -0.01128847    0.00569790    0.00574073
     atom   33 type  1   force =     0.01682903   -0.00899469   -0.01091647
     atom   34 type  2   force =     0.04634189   -0.06206772    0.01193328
     atom   35 type  2   force =    -0.00768834    0.00648266    0.01479903
     atom   36 type  3   force =    -0.01057764    0.00609860   -0.00336298
     The non-local contrib.  to forces
     atom    1 type  1   force =    -0.00289624    0.03287356   -0.00987767
     atom    2 type  2   force =    -0.01530257    0.01415130   -0.26129013
     atom    3 type  2   force =    -0.01517672   -0.00713672    0.27332134
     atom    4 type  1   force =    -0.00285765    0.00379439    0.00443620
     atom    5 type  2   force =     0.00753767   -0.03239531   -0.25265351
     atom    6 type  2   force =    -0.00059097    0.01066179    0.26051034
     atom    7 type  1   force =    -0.03118355   -0.00693598   -0.01723886
     atom    8 type  2   force =     0.00874600   -0.00365440   -0.24755375
     atom    9 type  2   force =     0.00666203   -0.01118876    0.27649886
     atom   10 type  1   force =     0.00852212   -0.00732333   -0.01355007
     atom   11 type  2   force =     0.00983126    0.00313823   -0.25187039
     atom   12 type  2   force =    -0.00865021   -0.00834050    0.26507802
     atom   13 type  1   force =     0.00203672    0.02227768   -0.00815121
     atom   14 type  2   force =     0.01043432   -0.01048287   -0.26223921
     atom   15 type  2   force =    -0.01284921   -0.00549996    0.26162844
     atom   16 type  1   force =    -0.00196222    0.03992364   -0.02179346
     atom   17 type  2   force =     0.00203699   -0.02982941   -0.25029713
     atom   18 type  2   force =    -0.00478901   -0.00469139    0.27378698
     atom   19 type  1   force =     0.01869365   -0.00763460   -0.01194341
     atom   20 type  2   force =     0.00057309   -0.02011764    0.26573309
     atom   21 type  1   force =    -0.00073645    0.02383112    0.00675507
     atom   22 type  2   force =    -0.01281547    0.00524862   -0.24556039
     atom   23 type  2   force =     0.00136193   -0.01339294    0.26673090
     atom   24 type  1   force =     0.00696307    0.02177318   -0.01117852
     atom   25 type  2   force =     0.00979637    0.00168794   -0.25467281
     atom   26 type  2   force =    -0.00221962   -0.01431034    0.26430278
     atom   27 type  1   force =     0.00125592    0.00645492    0.00653236
     atom   28 type  2   force =    -0.00452055   -0.02610630   -0.27344908
     atom   29 type  2   force =     0.00748140    0.00086448    0.26395893
     atom   30 type  1   force =    -0.00237851    0.01377850    0.00938068
     atom   31 type  2   force =    -0.00789994    0.00986507   -0.23370659
     atom   32 type  2   force =    -0.00633813   -0.00749161    0.27370873
     atom   33 type  1   force =    -0.00686456    0.00991496    0.00639320
     atom   34 type  2   force =     0.17590189   -0.18535195    0.07213616
     atom   35 type  2   force =     0.00019990   -0.01249657    0.27560814
     atom   36 type  3   force =    -0.02651015    0.02068507   -0.03692094
     The ionic contribution  to forces
     atom    1 type  1   force =     0.35798193    0.29011293    5.69626822
     atom    2 type  2   force =    -0.74363128    0.52626494   39.25386327
     atom    3 type  2   force =    -0.18314336    0.04810448  -36.10052036
     atom    4 type  1   force =     0.02515472    0.47632785    0.63171377
     atom    5 type  2   force =    -0.98098149    1.47436247   38.74982556
     atom    6 type  2   force =     0.34038276   -0.50657975  -38.01459949
     atom    7 type  1   force =    -2.69405093   -2.85048431    2.47257834
     atom    8 type  2   force =    -1.13885841   -0.12551601   37.31584768
     atom    9 type  2   force =     0.31700621   -0.06617815  -38.03346929
     atom   10 type  1   force =    -1.34986180   -0.13551421    5.40118848
     atom   11 type  2   force =    -0.64614795   -1.58259313   39.10339001
     atom   12 type  2   force =     0.42539599    0.70170989  -37.87867375
     atom   13 type  1   force =     0.54441001    1.08050312    2.82137877
     atom   14 type  2   force =     0.09144702    0.05536628   38.50992175
     atom   15 type  2   force =     0.16576287   -0.04165421  -36.80481507
     atom   16 type  1   force =     0.00812836    3.87966693    0.47619186
     atom   17 type  2   force =     0.84391102    1.46744317   37.92803483
     atom   18 type  2   force =    -0.15048628   -0.65397837  -38.56080092
     atom   19 type  1   force =     2.94123577   -2.58480221    0.40192237
     atom   20 type  2   force =     0.24042419   -0.21807424  -38.48923651
     atom   21 type  1   force =     0.12525244    0.13796888    1.07373280
     atom   22 type  2   force =     0.81481076   -1.64292806   38.26344747
     atom   23 type  2   force =    -0.05089772    0.67858470  -38.34479591
     atom   24 type  1   force =    -0.58541414    1.27866535    5.77164920
     atom   25 type  2   force =     0.71038628    0.49471744   39.20856439
     atom   26 type  2   force =    -0.27876244    0.10461273  -37.36056747
     atom   27 type  1   force =     0.06096857    0.25922792   -2.33029875
     atom   28 type  2   force =     0.03366722    0.95943306   38.19516824
     atom   29 type  2   force =    -0.27151491   -0.43815030  -37.26817286
     atom   30 type  1   force =    -0.51009024   -1.18930256   -0.59945568
     atom   31 type  2   force =     1.36485982   -0.41877689   37.13285162
     atom   32 type  2   force =    -0.46717931   -0.04647285  -38.68819893
     atom   33 type  1   force =     0.96227211   -0.52810312    1.52529804
     atom   34 type  2   force =    -0.61230761   -0.77069286   38.16344421
     atom   35 type  2   force =    -0.32172786    0.49582733  -37.91350519
     atom   36 type  3   force =     0.61159768   -0.60909822    8.29082932
     The local contribution  to forces
     atom    1 type  1   force =    -0.34383783   -0.34239755   -5.67933439
     atom    2 type  2   force =     0.74154190   -0.51722719  -39.00969694
     atom    3 type  2   force =     0.18469136   -0.03499570   35.84468598
     atom    4 type  1   force =    -0.01370674   -0.47896967   -0.63489314
     atom    5 type  2   force =     0.97322417   -1.44987558  -38.52261337
     atom    6 type  2   force =    -0.33810778    0.50760976   37.77494073
     atom    7 type  1   force =     2.72947432    2.84737116   -2.46205751
     atom    8 type  2   force =     1.13068411    0.12257330  -37.07102320
     atom    9 type  2   force =    -0.31143988    0.08053739   37.78842661
     atom   10 type  1   force =     1.29974541    0.16427268   -5.43579098
     atom   11 type  2   force =     0.63652322    1.57792296  -38.87871651
     atom   12 type  2   force =    -0.41312968   -0.69329540   37.64214807
     atom   13 type  1   force =    -0.54188237   -1.09898531   -2.82011286
     atom   14 type  2   force =    -0.09269185   -0.04432670  -38.25605578
     atom   15 type  2   force =    -0.16527389    0.04907907   36.55504307
     atom   16 type  1   force =    -0.00437073   -3.91460167   -0.45104330
     atom   17 type  2   force =    -0.83980963   -1.43864566  -37.69625215
     atom   18 type  2   force =     0.14904700    0.65243884   38.32210195
     atom   19 type  1   force =    -2.95524979    2.59091592   -0.39247139
     atom   20 type  2   force =    -0.23822096    0.23187016   38.24519391
     atom   21 type  1   force =    -0.12786753   -0.15539887   -1.07660174
     atom   22 type  2   force =    -0.80781285    1.63493526  -38.04182347
     atom   23 type  2   force =     0.04643853   -0.66317384   38.10842685
     atom   24 type  1   force =     0.56761081   -1.30666755   -5.78053693
     atom   25 type  2   force =    -0.70259398   -0.47440265  -38.96488855
     atom   26 type  2   force =     0.27042223   -0.08993230   37.11406919
     atom   27 type  1   force =    -0.06338563   -0.26722338    2.32940471
     atom   28 type  2   force =    -0.02934031   -0.93700845  -37.94698331
     atom   29 type  2   force =     0.26761513    0.43810375   37.02257954
     atom   30 type  1   force =     0.51088913    1.18379860    0.58059345
     atom   31 type  2   force =    -1.35671852    0.41224406  -36.89656620
     atom   32 type  2   force =     0.46211019    0.05911607   38.44145958
     atom   33 type  1   force =    -0.93845805    0.50937476   -1.54179975
     atom   34 type  2   force =     0.49371506    0.88348578  -38.22339034
     atom   35 type  2   force =     0.31405882   -0.47788408   37.67424121
     atom   36 type  3   force =    -0.59566405    0.59451265   -8.25721222
     The core correction contribution to forces
     atom    1 type  1   force =     0.00000000    0.00000000    0.00000000
     atom    2 type  2   force =     0.00040531   -0.00056134    0.02024714
     atom    3 type  2   force =     0.00066864    0.00027909   -0.02102073
     atom    4 type  1   force =     0.00000000    0.00000000    0.00000000
     atom    5 type  2   force =    -0.00071521    0.00181890    0.02030172
     atom    6 type  2   force =     0.00017425   -0.00105931   -0.02074145
     atom    7 type  1   force =     0.00000000    0.00000000    0.00000000
     atom    8 type  2   force =    -0.00046015    0.00033715    0.01997447
     atom    9 type  2   force =    -0.00013344    0.00064006   -0.02098022
     atom   10 type  1   force =     0.00000000    0.00000000    0.00000000
     atom   11 type  2   force =    -0.00058231   -0.00045876    0.02018415
     atom   12 type  2   force =     0.00093727    0.00096582   -0.02090981
     atom   13 type  1   force =     0.00000000    0.00000000    0.00000000
     atom   14 type  2   force =    -0.00053315    0.00007339    0.02060388
     atom   15 type  2   force =     0.00069708    0.00039237   -0.02059326
     atom   16 type  1   force =     0.00000000    0.00000000    0.00000000
     atom   17 type  2   force =     0.00003256    0.00157996    0.02023331
     atom   18 type  2   force =     0.00016533   -0.00036921   -0.02101284
     atom   19 type  1   force =     0.00000000    0.00000000    0.00000000
     atom   20 type  2   force =     0.00008579    0.00069743   -0.02118366
     atom   21 type  1   force =     0.00000000    0.00000000    0.00000000
     atom   22 type  2   force =     0.00072107   -0.00057464    0.01973609
     atom   23 type  2   force =    -0.00027827    0.00111166   -0.02082938
     atom   24 type  1   force =     0.00000000    0.00000000    0.00000000
     atom   25 type  2   force =    -0.00004333   -0.00009631    0.02031693
     atom   26 type  2   force =    -0.00016808    0.00079384   -0.02092050
     atom   27 type  1   force =     0.00000000    0.00000000    0.00000000
     atom   28 type  2   force =     0.00028613    0.00185921    0.02087409
     atom   29 type  2   force =    -0.00059865   -0.00050207   -0.02061505
     atom   30 type  1   force =     0.00000000    0.00000000    0.00000000
     atom   31 type  2   force =     0.00062420   -0.00065847    0.01936623
     atom   32 type  2   force =     0.00010180    0.00048087   -0.02101498
     atom   33 type  1   force =     0.00000000    0.00000000    0.00000000
     atom   34 type  2   force =    -0.01092459    0.01053430    0.00019931
     atom   35 type  2   force =    -0.00019984    0.00104970   -0.02134203
     atom   36 type  3   force =     0.00000000    0.00000000    0.00000000
     The Hubbard contrib.    to forces
     atom    1 type  1   force =     0.00000000    0.00000000    0.00000000
     atom    2 type  2   force =     0.00000000    0.00000000    0.00000000
     atom    3 type  2   force =     0.00000000    0.00000000    0.00000000
     atom    4 type  1   force =     0.00000000    0.00000000    0.00000000
     atom    5 type  2   force =     0.00000000    0.00000000    0.00000000
     atom    6 type  2   force =     0.00000000    0.00000000    0.00000000
     atom    7 type  1   force =     0.00000000    0.00000000    0.00000000
     atom    8 type  2   force =     0.00000000    0.00000000    0.00000000
     atom    9 type  2   force =     0.00000000    0.00000000    0.00000000
     atom   10 type  1   force =     0.00000000    0.00000000    0.00000000
     atom   11 type  2   force =     0.00000000    0.00000000    0.00000000
     atom   12 type  2   force =     0.00000000    0.00000000    0.00000000
     atom   13 type  1   force =     0.00000000    0.00000000    0.00000000
     atom   14 type  2   force =     0.00000000    0.00000000    0.00000000
     atom   15 type  2   force =     0.00000000    0.00000000    0.00000000
     atom   16 type  1   force =     0.00000000    0.00000000    0.00000000
     atom   17 type  2   force =     0.00000000    0.00000000    0.00000000
     atom   18 type  2   force =     0.00000000    0.00000000    0.00000000
     atom   19 type  1   force =     0.00000000    0.00000000    0.00000000
     atom   20 type  2   force =     0.00000000    0.00000000    0.00000000
     atom   21 type  1   force =     0.00000000    0.00000000    0.00000000
     atom   22 type  2   force =     0.00000000    0.00000000    0.00000000
     atom   23 type  2   force =     0.00000000    0.00000000    0.00000000
     atom   24 type  1   force =     0.00000000    0.00000000    0.00000000
     atom   25 type  2   force =     0.00000000    0.00000000    0.00000000
     atom   26 type  2   force =     0.00000000    0.00000000    0.00000000
     atom   27 type  1   force =     0.00000000    0.00000000    0.00000000
     atom   28 type  2   force =     0.00000000    0.00000000    0.00000000
     atom   29 type  2   force =     0.00000000    0.00000000    0.00000000
     atom   30 type  1   force =     0.00000000    0.00000000    0.00000000
     atom   31 type  2   force =     0.00000000    0.00000000    0.00000000
     atom   32 type  2   force =     0.00000000    0.00000000    0.00000000
     atom   33 type  1   force =     0.00000000    0.00000000    0.00000000
     atom   34 type  2   force =     0.00000000    0.00000000    0.00000000
     atom   35 type  2   force =     0.00000000    0.00000000    0.00000000
     atom   36 type  3   force =     0.00000000    0.00000000    0.00000000
     The SCF correction term to forces
     atom    1 type  1   force =     0.00006107   -0.00010837   -0.00083978
     atom    2 type  2   force =     0.00000018   -0.00007163   -0.00041118
     atom    3 type  2   force =     0.00000225   -0.00003702   -0.00020571
     atom    4 type  1   force =     0.00003077    0.00012784   -0.00076086
     atom    5 type  2   force =     0.00005458    0.00002212   -0.00035208
     atom    6 type  2   force =     0.00006222   -0.00001714   -0.00024115
     atom    7 type  1   force =    -0.00008331    0.00004046   -0.00073851
     atom    8 type  2   force =    -0.00005443    0.00009229   -0.00040076
     atom    9 type  2   force =    -0.00005261    0.00008084   -0.00015164
     atom   10 type  1   force =     0.00008744   -0.00022643   -0.00073248
     atom   11 type  2   force =     0.00000746   -0.00009106   -0.00039141
     atom   12 type  2   force =    -0.00000411   -0.00007217   -0.00017060
     atom   13 type  1   force =     0.00000732   -0.00009053   -0.00080559
     atom   14 type  2   force =     0.00002116   -0.00006310   -0.00038982
     atom   15 type  2   force =     0.00002535   -0.00005501   -0.00023108
     atom   16 type  1   force =     0.00007240    0.00034367   -0.00080995
     atom   17 type  2   force =    -0.00004489    0.00001998   -0.00033419
     atom   18 type  2   force =    -0.00005013    0.00000644   -0.00025107
     atom   19 type  1   force =     0.00016454    0.00005114   -0.00079057
     atom   20 type  2   force =     0.00003987    0.00012700   -0.00016033
     atom   21 type  1   force =     0.00007057   -0.00020527   -0.00078742
     atom   22 type  2   force =     0.00002963   -0.00006196   -0.00035160
     atom   23 type  2   force =     0.00002714   -0.00003960   -0.00021991
     atom   24 type  1   force =    -0.00006279   -0.00001655   -0.00086884
     atom   25 type  2   force =    -0.00001801   -0.00004703   -0.00036535
     atom   26 type  2   force =    -0.00003160   -0.00003959   -0.00024367
     atom   27 type  1   force =    -0.00009649    0.00007943   -0.00077894
     atom   28 type  2   force =    -0.00000807    0.00002958   -0.00041003
     atom   29 type  2   force =    -0.00000517   -0.00001198   -0.00019066
     atom   30 type  1   force =    -0.00008231    0.00019175   -0.00072229
     atom   31 type  2   force =     0.00000517    0.00007598   -0.00036141
     atom   32 type  2   force =     0.00001675    0.00006183   -0.00019210
     atom   33 type  1   force =    -0.00012070   -0.00018488   -0.00078640
     atom   34 type  2   force =    -0.00004308   -0.00004659   -0.00043450
     atom   35 type  2   force =    -0.00001959   -0.00001731   -0.00018155
     atom   36 type  3   force =    -0.00000135   -0.00000449   -0.00003758

     Total force =     0.134480     Total SCF correction =     0.003173

     BFGS Geometry Optimization
     Energy error            =      0.0E+00 Ry
     Gradient error          =      6.2E-02 Ry/Bohr

     number of scf cycles    =   1
     number of bfgs steps    =   0

     energy             new  =   -2205.5427454009 Ry

     new trust radius        =       0.0783733083 bohr
     new conv_thr            =       0.0000010000 Ry


ATOMIC_POSITIONS (angstrom)
Mo            6.5805329621        1.7774788924        2.8269211882
S             8.1677206147        0.8216420811        4.4359621461
S             8.1863762245        0.8145320199        1.2758931679
Mo            8.0997247794        4.4957364063        2.7180694353
S             6.4994435567        3.7192026560        4.3437431639
S             6.5543661975        3.5173568508        1.1211994831
Mo            6.4921813611        7.2131428233        2.6679272392
S             8.0817580766        6.3406090970        4.2513638455
S             8.0872902874        6.3067634408        1.0893149828
Mo            8.1386547020        9.9134054784        2.8175815002
S             6.4949728107        8.9418270996        4.3791760116
S             6.6203546854        9.0492251646        1.1438498627
Mo            3.4240790157        1.7489183322        2.7723899074
S             4.9797575431        0.8172431530        4.3567875761
S             5.0516754220        0.8474611471        1.2219014339
Mo            4.9807452118        4.5160017790        2.6342199705
S             3.4310835526        3.6719021798        4.2804308993
S             3.4346857913        3.5447413695        1.0656556706
Mo            3.4564252933        7.2155486741        2.6289281603
S             4.9847699783        6.3240251457        1.0374256763
Mo            5.0105278273        9.9048806595        2.7450293197
S             3.4682769782        8.9419641339        4.3231711380
S             3.4066573951        9.0666270277        1.1009848797
Mo            0.2903209642        1.7442064200        2.8383549233
S             1.8597374017        0.8042633929        4.4029366043
S             1.8551064761        0.8550227892        1.2076115857
Mo            1.8600259241        4.4948954791        2.6627574405
S             0.2722586496        3.6534519673        4.3350325925
S             0.2328071172        3.5274119319        1.1707152290
Mo            0.2702728174        7.2211281623        2.6962853798
S             1.9026991486        6.3142558380        4.2338542895
S             1.8562646129        6.3133590086        1.0475971475
Mo            1.8532522019        9.9353793699        2.7671695021
S             0.3204359714        9.0571530058        4.4201842853
S             0.2727029049        9.0469561920        1.1582320867
H             1.0451536665        8.5034827973        5.4761038127



     Writing config-only to output data dir ./MoS2-V-O.save/
     NEW-OLD atomic charge density approx. for the potential

     negative rho (up, down):  1.432E-04 0.000E+00

     total cpu time spent up to now is       94.3 secs

     Self-consistent Calculation

     iteration #  1     ecut=    80.00 Ry     beta= 0.70
     Davidson diagonalization with overlap
     ethr =  1.00E-06,  avg # of iterations = 14.0

     negative rho (up, down):  1.100E-04 0.000E+00

     total cpu time spent up to now is      116.8 secs

     total energy              =   -2205.55638029 Ry
     estimated scf accuracy    <       0.00162052 Ry

     iteration #  2     ecut=    80.00 Ry     beta= 0.70
     Davidson diagonalization with overlap
     ethr =  5.28E-07,  avg # of iterations =  2.0

     negative rho (up, down):  9.569E-05 0.000E+00

     total cpu time spent up to now is      136.9 secs

     total energy              =   -2205.55638540 Ry
     estimated scf accuracy    <       0.00033896 Ry

     iteration #  3     ecut=    80.00 Ry     beta= 0.70
     Davidson diagonalization with overlap
     ethr =  1.10E-07,  avg # of iterations =  6.0

     negative rho (up, down):  9.151E-05 0.000E+00

     total cpu time spent up to now is      152.9 secs

     total energy              =   -2205.55643343 Ry
     estimated scf accuracy    <       0.00004482 Ry

     iteration #  4     ecut=    80.00 Ry     beta= 0.70
     Davidson diagonalization with overlap
     ethr =  1.46E-08,  avg # of iterations =  6.0

     negative rho (up, down):  8.769E-05 0.000E+00

     total cpu time spent up to now is      173.2 secs

     total energy              =   -2205.55644189 Ry
     estimated scf accuracy    <       0.00000880 Ry

     iteration #  5     ecut=    80.00 Ry     beta= 0.70
     Davidson diagonalization with overlap
     ethr =  2.87E-09,  avg # of iterations =  5.0

     negative rho (up, down):  8.358E-05 0.000E+00

     total cpu time spent up to now is      185.9 secs

     total energy              =   -2205.55644262 Ry
     estimated scf accuracy    <       0.00000287 Ry

     iteration #  6     ecut=    80.00 Ry     beta= 0.70
     Davidson diagonalization with overlap
     ethr =  9.34E-10,  avg # of iterations =  5.0

     negative rho (up, down):  8.308E-05 0.000E+00

     total cpu time spent up to now is      204.4 secs

     total energy              =   -2205.55644301 Ry
     estimated scf accuracy    <       0.00000115 Ry

     iteration #  7     ecut=    80.00 Ry     beta= 0.70
     Davidson diagonalization with overlap
     ethr =  3.75E-10,  avg # of iterations =  4.0

     negative rho (up, down):  1.369E-04 0.000E+00

     total cpu time spent up to now is      206.3 secs

     End of self-consistent calculation

          k = 0.0000 0.0000 0.0000 (105382 PWs)   bands (ev):

   -62.8420 -62.8246 -62.8113 -62.8066 -62.8043 -62.8022 -62.7747 -62.7708
   -62.7504 -62.6813 -62.6453 -62.5994 -37.1716 -37.1177 -37.1011 -37.0941
   -37.0854 -37.0607 -37.0560 -37.0315 -37.0246 -37.0206 -37.0105 -36.9959
   -36.9878 -36.9837 -36.9771 -36.9741 -36.9688 -36.9576 -36.9449 -36.9312
   -36.9266 -36.9046 -36.8712 -36.8626 -36.8591 -36.8421 -36.8324 -36.8221
   -36.8073 -36.8071 -36.7997 -36.7714 -36.7680 -36.7316 -36.6267 -36.6148
   -16.2145 -15.6451 -15.0895 -15.0392 -14.9073 -14.7918 -14.6527 -14.4446
   -14.4305 -14.3766 -14.3385 -14.2919 -14.2715 -14.2212 -14.1533 -14.0663
   -14.0623 -14.0575 -13.9637 -13.9115 -13.7888 -13.7630 -13.7415  -8.8881
    -7.5849  -7.4004  -7.2876  -7.2346  -7.1776  -7.1433  -7.1238  -7.0779
    -6.7866  -6.7344  -6.7219  -6.6409  -6.5952  -6.4817  -6.4462  -6.3778
    -6.3150  -6.2142  -6.1755  -5.9510  -5.8738  -5.8425  -5.7708  -5.7513
    -5.7216  -5.6665  -5.6186  -5.6020  -5.5676  -5.5214  -5.4710  -5.3961
    -5.3623  -5.3218  -5.2050  -5.0917  -5.0717  -4.9995  -4.9498  -4.9157
    -4.8656  -4.7968  -4.5943  -4.5571  -4.4285  -4.2775  -4.2567  -4.2037
    -4.1339  -4.1159  -3.9907  -3.8202  -3.7398  -3.7202  -3.7015  -3.6752
    -3.6183  -3.5610  -3.5212  -3.4577  -3.4246  -3.4110  -3.4106  -3.3234
    -3.3101  -3.1824  -3.1014  -2.8675  -2.8274  -2.7870  -2.7274  -2.6869
    -2.6559  -2.6178  -2.6062  -2.5621  -2.5030  -2.2132  -1.9760  -1.9405
    -1.9017  -0.7764  -0.6925  -0.6001  -0.1238  -0.1018  -0.0797  -0.0083
     0.0810   0.1500   0.2143   0.2927   0.3102   0.3671   0.4458   0.4912
     0.5180   0.5711   0.6009   0.6317   0.6785   0.6932   0.7533   0.7759
     0.8383   0.8464   0.9092   0.9529   1.0106   1.0473   1.1023   1.2081
     1.4765

     the Fermi energy is    -0.8082 ev

!    total energy              =   -2205.55644258 Ry
     estimated scf accuracy    <       0.00000060 Ry
     smearing contrib. (-TS)   =      -0.00861973 Ry
     internal energy E=F+TS    =   -2205.54782285 Ry

     The total energy is F=E-TS. E is the sum of the following terms:
     one-electron contribution =  -18045.11657058 Ry
     hartree contribution      =    9009.79358164 Ry
     xc contribution           =    -385.33551176 Ry
     ewald contribution        =    7215.11067786 Ry

     convergence has been achieved in   7 iterations

     negative rho (up, down):  1.369E-04 0.000E+00

     Forces acting on atoms (cartesian axes, Ry/au):

     atom    1 type  1   force =     0.00292952   -0.00895759    0.00005316
     atom    2 type  2   force =    -0.01159056    0.01378448   -0.00067289
     atom    3 type  2   force =    -0.01317270    0.00809329   -0.01202334
     atom    4 type  1   force =     0.00601025    0.00102316    0.00188185
     atom    5 type  2   force =     0.00071087   -0.00574568   -0.00517672
     atom    6 type  2   force =     0.00194122    0.00709376    0.00194868
     atom    7 type  1   force =     0.00406428   -0.00745406   -0.00062250
     atom    8 type  2   force =     0.00063875   -0.00461442    0.01115579
     atom    9 type  2   force =     0.01095703    0.00296860    0.00606568
     atom   10 type  1   force =    -0.01639841    0.01369422   -0.01898709
     atom   11 type  2   force =     0.00037677   -0.00185397   -0.00913226
     atom   12 type  2   force =    -0.00186800    0.00021110   -0.00018046
     atom   13 type  1   force =     0.00395107    0.00240909   -0.00259826
     atom   14 type  2   force =     0.00596976    0.00069615    0.00858131
     atom   15 type  2   force =    -0.00819555    0.00203103   -0.00717159
     atom   16 type  1   force =     0.00181861    0.00388615    0.00216863
     atom   17 type  2   force =     0.00539876    0.00053723    0.00117572
     atom   18 type  2   force =    -0.00444733   -0.00417358    0.01070509
     atom   19 type  1   force =     0.00225685   -0.00248056   -0.00011046
     atom   20 type  2   force =     0.00225225   -0.00467927   -0.00206038
     atom   21 type  1   force =    -0.00375512    0.00291479    0.00386872
     atom   22 type  2   force =    -0.00140570   -0.00209394   -0.00446415
     atom   23 type  2   force =    -0.00082112    0.00151486    0.00384404
     atom   24 type  1   force =    -0.00724528   -0.00522397   -0.00837616
     atom   25 type  2   force =     0.01223690    0.01602299    0.00061342
     atom   26 type  2   force =    -0.00719025   -0.00037721   -0.00437819
     atom   27 type  1   force =    -0.00100082    0.00088893    0.00638434
     atom   28 type  2   force =     0.00025187   -0.00344092   -0.00524018
     atom   29 type  2   force =     0.00265754    0.00107280   -0.00362896
     atom   30 type  1   force =    -0.00055422    0.00000965    0.00262343
     atom   31 type  2   force =     0.00087166    0.00097219    0.01299991
     atom   32 type  2   force =    -0.00871642    0.00433797    0.00417472
     atom   33 type  1   force =     0.01026637   -0.00176026    0.00032752
     atom   34 type  2   force =     0.01798148   -0.03843241   -0.01113262
     atom   35 type  2   force =    -0.00751743    0.00829835    0.00845923
     atom   36 type  3   force =     0.00033709   -0.00117294    0.00892498
     The non-local contrib.  to forces
     atom    1 type  1   force =    -0.00113824    0.02978208   -0.01059870
     atom    2 type  2   force =    -0.01198724    0.00977007   -0.26070431
     atom    3 type  2   force =    -0.01385010   -0.00743197    0.26653822
     atom    4 type  1   force =    -0.00191713    0.00477578    0.00357600
     atom    5 type  2   force =     0.00918818   -0.03252312   -0.25337580
     atom    6 type  2   force =    -0.00014301    0.00742992    0.26295684
     atom    7 type  1   force =    -0.03106767   -0.00729363   -0.01845601
     atom    8 type  2   force =     0.00960771   -0.00280737   -0.25118136
     atom    9 type  2   force =     0.00556973   -0.01185986    0.27394779
     atom   10 type  1   force =     0.00298242   -0.00491651   -0.01366901
     atom   11 type  2   force =     0.00697608    0.00236871   -0.25278540
     atom   12 type  2   force =    -0.01307190   -0.00919984    0.26083685
     atom   13 type  1   force =     0.00300890    0.02367459   -0.00813958
     atom   14 type  2   force =     0.00845386   -0.01025131   -0.26383561
     atom   15 type  2   force =    -0.01023423   -0.00609768    0.26202226
     atom   16 type  1   force =    -0.00253855    0.04068412   -0.02310280
     atom   17 type  2   force =     0.00145038   -0.02915035   -0.25080994
     atom   18 type  2   force =    -0.00341248   -0.00292414    0.27218210
     atom   19 type  1   force =     0.01950937   -0.00718449   -0.01284529
     atom   20 type  2   force =    -0.00024376   -0.01877312    0.26446971
     atom   21 type  1   force =    -0.00016243    0.02450412    0.00549246
     atom   22 type  2   force =    -0.00894013    0.00542246   -0.24658952
     atom   23 type  2   force =     0.00341950   -0.01446056    0.26399521
     atom   24 type  1   force =     0.00505524    0.02145966   -0.01105104
     atom   25 type  2   force =     0.00603278   -0.00311596   -0.25958112
     atom   26 type  2   force =     0.00040503   -0.01496741    0.26411177
     atom   27 type  1   force =     0.00115718    0.00600278    0.00536134
     atom   28 type  2   force =    -0.00446828   -0.02635212   -0.27435232
     atom   29 type  2   force =     0.00712831   -0.00009231    0.26393587
     atom   30 type  1   force =    -0.00210353    0.01476700    0.00714114
     atom   31 type  2   force =    -0.00717185    0.00832795   -0.24081510
     atom   32 type  2   force =    -0.00434303   -0.00786881    0.27353659
     atom   33 type  1   force =    -0.00503846    0.00831269    0.00373030
     atom   34 type  2   force =     0.16760661   -0.16656056    0.05905133
     atom   35 type  2   force =    -0.00114833   -0.01070500    0.27368223
     atom   36 type  3   force =    -0.02886924    0.02214509   -0.04189057
     The ionic contribution  to forces
     atom    1 type  1   force =     0.10964677    0.65134844    5.83483624
     atom    2 type  2   force =    -0.49076469    0.30591390   39.35394627
     atom    3 type  2   force =    -0.11755257    0.14811958  -36.25237897
     atom    4 type  1   force =    -0.04088484    0.46459659    0.72033591
     atom    5 type  2   force =    -0.97618080    1.47988611   38.68772456
     atom    6 type  2   force =     0.30620923   -0.53461960  -37.94112879
     atom    7 type  1   force =    -2.66145605   -2.78686417    2.44145567
     atom    8 type  2   force =    -1.13146399   -0.05976646   37.40849901
     atom    9 type  2   force =     0.30098930   -0.10182587  -37.99788911
     atom   10 type  1   force =    -0.58353959   -0.36480349    4.85700319
     atom   11 type  2   force =    -0.51450567   -1.61621608   39.09539311
     atom   12 type  2   force =     0.27814344    0.56841956  -37.91789730
     atom   13 type  1   force =     0.45763060    1.03643511    2.74054321
     atom   14 type  2   force =     0.00518809    0.08075704   38.60801220
     atom   15 type  2   force =     0.16149342    0.01110221  -36.86265475
     atom   16 type  1   force =     0.01722978    3.78086383    0.57577298
     atom   17 type  2   force =     0.82700800    1.44803413   37.93569853
     atom   18 type  2   force =    -0.12994519   -0.59541256  -38.48561277
     atom   19 type  1   force =     2.89669715   -2.68930370    0.35346125
     atom   20 type  2   force =     0.20641096   -0.22380017  -38.52060171
     atom   21 type  1   force =     0.02360059    0.05123643    1.27909026
     atom   22 type  2   force =     0.82935688   -1.63119552   38.28973546
     atom   23 type  2   force =    -0.01035414    0.63490257  -38.34908942
     atom   24 type  1   force =    -0.33378255    1.07736304    5.52282935
     atom   25 type  2   force =     0.55023222    0.41474184   39.16646121
     atom   26 type  2   force =    -0.25377407    0.08952386  -37.31338328
     atom   27 type  1   force =     0.09201516    0.33159329   -2.11142954
     atom   28 type  2   force =     0.05967126    0.87844047   38.18098235
     atom   29 type  2   force =    -0.24661828   -0.39343309  -37.28700167
     atom   30 type  1   force =    -0.54894735   -1.16534382   -0.68670875
     atom   31 type  2   force =     1.35344080   -0.43618444   37.19829203
     atom   32 type  2   force =    -0.41625587   -0.08749295  -38.63825895
     atom   33 type  1   force =     0.53520313   -0.23607157    1.56865060
     atom   34 type  2   force =    -0.92352853   -0.44258825   37.94317496
     atom   35 type  2   force =    -0.26735853    0.52055102  -37.76589416
     atom   36 type  3   force =     0.63674595   -0.60890729    8.36803081
     The local contribution  to forces
     atom    1 type  1   force =    -0.10570146   -0.69001822   -5.82520386
     atom    2 type  2   force =     0.49065123   -0.30122525  -39.11457153
     atom    3 type  2   force =     0.11755467   -0.13294879   35.99437254
     atom    4 type  1   force =     0.04859667   -0.46840750   -0.72300582
     atom    5 type  2   force =     0.96842589   -1.45494192  -38.46025617
     atom    6 type  2   force =    -0.30432934    0.53521915   37.70068619
     atom    7 type  1   force =     2.69638075    2.78662942   -2.42463042
     atom    8 type  2   force =     1.12288718    0.05761727  -37.16672391
     atom    9 type  2   force =    -0.29558111    0.11607263   37.75069165
     atom   10 type  1   force =     0.56402523    0.38353283   -4.86351709
     atom   11 type  2   force =     0.50815606    1.61240783  -38.87236141
     atom   12 type  2   force =    -0.26798789   -0.55993008   37.67735950
     atom   13 type  1   force =    -0.45664258   -1.05770359   -2.73597346
     atom   14 type  2   force =    -0.00713808   -0.06987713  -38.35668835
     atom   15 type  2   force =    -0.16005641   -0.00341807   36.61380305
     atom   16 type  1   force =    -0.01280813   -3.81767514   -0.55144276
     atom   17 type  2   force =    -0.82304548   -1.41989451  -37.70441019
     atom   18 type  2   force =     0.12885226    0.59454912   38.24489870
     atom   19 type  1   force =    -2.91377345    2.69396241   -0.34177899
     atom   20 type  2   force =    -0.20398197    0.23726192   38.27503389
     atom   21 type  1   force =    -0.02718882   -0.07279208   -1.28178601
     atom   22 type  2   force =    -0.82231718    1.62431086  -38.06785885
     atom   23 type  2   force =     0.00646324   -0.62006245   38.10940665
     atom   24 type  1   force =     0.32153424   -1.10396804   -5.52114270
     atom   25 type  2   force =    -0.54403529   -0.39561815  -38.92711981
     atom   26 type  2   force =     0.24644952   -0.07574559   37.06550433
     atom   27 type  1   force =    -0.09405237   -0.33679156    2.11141510
     atom   28 type  2   force =    -0.05525664   -0.85737551  -37.93318894
     atom   29 type  2   force =     0.24270810    0.39495768   37.03980765
     atom   30 type  1   force =     0.55050229    1.15040632    0.68112084
     atom   31 type  2   force =    -1.34594016    0.42939299  -36.96450287
     atom   32 type  2   force =     0.41188048    0.09927450   38.38963207
     atom   33 type  1   force =    -0.51972122    0.22616386   -1.57316595
     atom   34 type  2   force =     0.78490239    0.56070109  -38.01378718
     atom   35 type  2   force =     0.26110612   -0.50255949   37.52154039
     atom   36 type  3   force =    -0.60755136    0.58559447   -8.31729640
     The core correction contribution to forces
     atom    1 type  1   force =     0.00000000    0.00000000    0.00000000
     atom    2 type  2   force =     0.00039519   -0.00051835    0.02027199
     atom    3 type  2   force =     0.00062392    0.00039385   -0.02088380
     atom    4 type  1   force =     0.00000000    0.00000000    0.00000000
     atom    5 type  2   force =    -0.00078751    0.00181087    0.02029258
     atom    6 type  2   force =     0.00014150   -0.00094150   -0.02078090
     atom    7 type  1   force =     0.00000000    0.00000000    0.00000000
     atom    8 type  2   force =    -0.00048264    0.00031868    0.02009020
     atom    9 type  2   force =    -0.00008747    0.00062708   -0.02094036
     atom   10 type  1   force =     0.00000000    0.00000000    0.00000000
     atom   11 type  2   force =    -0.00036403   -0.00044984    0.02022325
     atom   12 type  2   force =     0.00098566    0.00089972   -0.02081708
     atom   13 type  1   force =     0.00000000    0.00000000    0.00000000
     atom   14 type  2   force =    -0.00049455    0.00008887    0.02066851
     atom   15 type  2   force =     0.00061840    0.00043721   -0.02060500
     atom   16 type  1   force =     0.00000000    0.00000000    0.00000000
     atom   17 type  2   force =     0.00006203    0.00152642    0.02025083
     atom   18 type  2   force =     0.00011112   -0.00040600   -0.02098152
     atom   19 type  1   force =     0.00000000    0.00000000    0.00000000
     atom   20 type  2   force =     0.00010710    0.00063663   -0.02116372
     atom   21 type  1   force =     0.00000000    0.00000000    0.00000000
     atom   22 type  2   force =     0.00056069   -0.00060774    0.01981228
     atom   23 type  2   force =    -0.00030889    0.00113656   -0.02078349
     atom   24 type  1   force =     0.00000000    0.00000000    0.00000000
     atom   25 type  2   force =     0.00006782    0.00008617    0.02042715
     atom   26 type  2   force =    -0.00026182    0.00082160   -0.02090019
     atom   27 type  1   force =     0.00000000    0.00000000    0.00000000
     atom   28 type  2   force =     0.00029196    0.00178950    0.02092615
     atom   29 type  2   force =    -0.00056407   -0.00041574   -0.02063266
     atom   30 type  1   force =     0.00000000    0.00000000    0.00000000
     atom   31 type  2   force =     0.00057208   -0.00057658    0.01956860
     atom   32 type  2   force =     0.00002981    0.00045578   -0.02101052
     atom   33 type  1   force =     0.00000000    0.00000000    0.00000000
     atom   34 type  2   force =    -0.01090706    0.00991805    0.00023667
     atom   35 type  2   force =    -0.00010335    0.00099304   -0.02128814
     atom   36 type  3   force =     0.00000000    0.00000000    0.00000000
     The Hubbard contrib.    to forces
     atom    1 type  1   force =     0.00000000    0.00000000    0.00000000
     atom    2 type  2   force =     0.00000000    0.00000000    0.00000000
     atom    3 type  2   force =     0.00000000    0.00000000    0.00000000
     atom    4 type  1   force =     0.00000000    0.00000000    0.00000000
     atom    5 type  2   force =     0.00000000    0.00000000    0.00000000
     atom    6 type  2   force =     0.00000000    0.00000000    0.00000000
     atom    7 type  1   force =     0.00000000    0.00000000    0.00000000
     atom    8 type  2   force =     0.00000000    0.00000000    0.00000000
     atom    9 type  2   force =     0.00000000    0.00000000    0.00000000
     atom   10 type  1   force =     0.00000000    0.00000000    0.00000000
     atom   11 type  2   force =     0.00000000    0.00000000    0.00000000
     atom   12 type  2   force =     0.00000000    0.00000000    0.00000000
     atom   13 type  1   force =     0.00000000    0.00000000    0.00000000
     atom   14 type  2   force =     0.00000000    0.00000000    0.00000000
     atom   15 type  2   force =     0.00000000    0.00000000    0.00000000
     atom   16 type  1   force =     0.00000000    0.00000000    0.00000000
     atom   17 type  2   force =     0.00000000    0.00000000    0.00000000
     atom   18 type  2   force =     0.00000000    0.00000000    0.00000000
     atom   19 type  1   force =     0.00000000    0.00000000    0.00000000
     atom   20 type  2   force =     0.00000000    0.00000000    0.00000000
     atom   21 type  1   force =     0.00000000    0.00000000    0.00000000
     atom   22 type  2   force =     0.00000000    0.00000000    0.00000000
     atom   23 type  2   force =     0.00000000    0.00000000    0.00000000
     atom   24 type  1   force =     0.00000000    0.00000000    0.00000000
     atom   25 type  2   force =     0.00000000    0.00000000    0.00000000
     atom   26 type  2   force =     0.00000000    0.00000000    0.00000000
     atom   27 type  1   force =     0.00000000    0.00000000    0.00000000
     atom   28 type  2   force =     0.00000000    0.00000000    0.00000000
     atom   29 type  2   force =     0.00000000    0.00000000    0.00000000
     atom   30 type  1   force =     0.00000000    0.00000000    0.00000000
     atom   31 type  2   force =     0.00000000    0.00000000    0.00000000
     atom   32 type  2   force =     0.00000000    0.00000000    0.00000000
     atom   33 type  1   force =     0.00000000    0.00000000    0.00000000
     atom   34 type  2   force =     0.00000000    0.00000000    0.00000000
     atom   35 type  2   force =     0.00000000    0.00000000    0.00000000
     atom   36 type  3   force =     0.00000000    0.00000000    0.00000000
     The SCF correction term to forces
     atom    1 type  1   force =     0.00012179   -0.00007210    0.00099130
     atom    2 type  2   force =     0.00011429   -0.00015809    0.00035652
     atom    3 type  2   force =     0.00005073   -0.00004159    0.00030050
     atom    4 type  1   force =     0.00021490    0.00005608    0.00094760
     atom    5 type  2   force =     0.00006444    0.00002017    0.00040994
     atom    6 type  2   force =     0.00006219    0.00000359    0.00018717
     atom    7 type  1   force =     0.00020658    0.00007211    0.00098010
     atom    8 type  2   force =     0.00008983    0.00002125    0.00044370
     atom    9 type  2   force =     0.00006593   -0.00004758    0.00022754
     atom   10 type  1   force =     0.00013287   -0.00012082    0.00116766
     atom   11 type  2   force =     0.00011368    0.00003319    0.00037001
     atom   12 type  2   force =     0.00006203    0.00001955    0.00030939
     atom   13 type  1   force =    -0.00004650    0.00000078    0.00094339
     atom   14 type  2   force =    -0.00004023   -0.00002352    0.00039638
     atom   15 type  2   force =    -0.00001738    0.00000515    0.00023468
     atom   16 type  1   force =    -0.00006515    0.00001114    0.00091304
     atom   17 type  2   force =    -0.00007683    0.00001934    0.00041833
     atom   18 type  2   force =    -0.00005369    0.00001781    0.00019041
     atom   19 type  1   force =    -0.00017688    0.00004300    0.00102441
     atom   20 type  2   force =    -0.00004073   -0.00000674    0.00017328
     atom   21 type  1   force =    -0.00000512   -0.00003589    0.00104384
     atom   22 type  2   force =    -0.00006662   -0.00002620    0.00040832
     atom   23 type  2   force =    -0.00004149   -0.00000347    0.00028693
     atom   24 type  1   force =    -0.00005287   -0.00008084    0.00096006
     atom   25 type  2   force =    -0.00006128   -0.00007312    0.00039782
     atom   26 type  2   force =    -0.00000955   -0.00001188    0.00026101
     atom   27 type  1   force =    -0.00012145    0.00008221    0.00100928
     atom   28 type  2   force =     0.00001290    0.00005453    0.00036441
     atom   29 type  2   force =     0.00000283    0.00005406    0.00023368
     atom   30 type  1   force =    -0.00000630    0.00017795    0.00104202
     atom   31 type  2   force =    -0.00002987    0.00001007    0.00042909
     atom   32 type  2   force =    -0.00002847   -0.00003275    0.00024736
     atom   33 type  1   force =    -0.00017774   -0.00016743    0.00108441
     atom   34 type  2   force =    -0.00009258    0.00009506    0.00016343
     atom   35 type  2   force =    -0.00001400    0.00001657    0.00039075
     atom   36 type  3   force =     0.00001108   -0.00000742    0.00005297

     Total force =     0.078553     Total SCF correction =     0.003895
     Energy error            =      1.4E-02 Ry
     Gradient error          =      3.8E-02 Ry/Bohr

     number of scf cycles    =   2
     number of bfgs steps    =   1

     energy             old  =   -2205.5427454009 Ry
     energy             new  =   -2205.5564425769 Ry

     CASE: energy            _new < energy            _old

     new trust radius        =       0.0862106391 bohr
     new conv_thr            =       0.0000000384 Ry


ATOMIC_POSITIONS (angstrom)
Mo            6.5844040418        1.7675529324        2.8277511049
S             8.1559254486        0.8359689923        4.4357437068
S             8.1737760350        0.8220524442        1.2654154065
Mo            8.1058174297        4.4967502989        2.7196948867
S             6.4999232202        3.7136544440        4.3387380243
S             6.5562244692        3.5246040985        1.1228009949
Mo            6.4960891460        7.2056737368        2.6664609925
S             8.0822966487        6.3359891181        4.2627766655
S             8.0979314833        6.3097266648        1.0956669993
Mo            8.1197504984        9.9274864217        2.7955855311
S             6.4952395171        8.9400214334        4.3706381822
S             6.6193779446        9.0495239354        1.1446447059
Mo            3.4279452953        1.7513925218        2.7692505438
S             4.9858236669        0.8178945673        4.3654243776
S             5.0433825331        0.8494378965        1.2147961093
Mo            4.9824948213        4.5199109902        2.6363438623
S             3.4363511291        3.6724215391        4.2815817236
S             3.4302112941        3.5404340444        1.0763105303
Mo            3.4589169169        7.2132994392        2.6284171581
S             4.9870114438        6.3194362540        1.0357531101
Mo            5.0069882997        9.9080914043        2.7486375147
S             3.4664651401        8.9397941054        4.3188779002
S             3.4055497475        9.0682794170        1.1053606669
Mo            0.2829116741        1.7390695546        2.8287298397
S             1.8721388364        0.8203638800        4.4045798292
S             1.8477611703        0.8548520913        1.2035410544
Mo            1.8590339857        4.4954500116        2.6686813833
S             0.2724788861        3.6503629483        4.3300623857
S             0.2353953125        3.5283432574        1.1673845260
Mo            0.2696010707        7.2222104456        2.6971705755
S             1.9035346440        6.3154136984        4.2474020902
S             1.8475827486        6.3176899086        1.0517976918
Mo            1.8639260021        9.9327744101        2.7660573644
S             0.3412702123        9.0173136099        4.4124379496
S             0.2654749465        9.0546807805        1.1671452778
H             1.0440924631        8.5032806699        5.4831008718



     Writing config-only to output data dir ./MoS2-V-O.save/
     NEW-OLD atomic charge density approx. for the potential

     negative rho (up, down):  1.474E-04 0.000E+00

     total cpu time spent up to now is      209.6 secs

     Self-consistent Calculation

     iteration #  1     ecut=    80.00 Ry     beta= 0.70
     Davidson diagonalization with overlap
     c_bands:  1 eigenvalues not converged
     ethr =  1.00E-06,  avg # of iterations = 20.0

     negative rho (up, down):  1.326E-04 0.000E+00

     total cpu time spent up to now is      226.2 secs

     total energy              =   -2205.56505791 Ry
     estimated scf accuracy    <       0.00125635 Ry

     iteration #  2     ecut=    80.00 Ry     beta= 0.70
     Davidson diagonalization with overlap
     ethr =  4.09E-07,  avg # of iterations =  2.0

     negative rho (up, down):  1.181E-04 0.000E+00

     total cpu time spent up to now is      246.4 secs

     total energy              =   -2205.56509657 Ry
     estimated scf accuracy    <       0.00037477 Ry

     iteration #  3     ecut=    80.00 Ry     beta= 0.70
     Davidson diagonalization with overlap
     ethr =  1.22E-07,  avg # of iterations =  2.0

     negative rho (up, down):  1.129E-04 0.000E+00

     total cpu time spent up to now is      258.3 secs

     total energy              =   -2205.56511876 Ry
     estimated scf accuracy    <       0.00021355 Ry

     iteration #  4     ecut=    80.00 Ry     beta= 0.70
     Davidson diagonalization with overlap
     ethr =  6.96E-08,  avg # of iterations =  3.0

     negative rho (up, down):  1.087E-04 0.000E+00

     total cpu time spent up to now is      270.9 secs

     total energy              =   -2205.56513735 Ry
     estimated scf accuracy    <       0.00000703 Ry

     iteration #  5     ecut=    80.00 Ry     beta= 0.70
     Davidson diagonalization with overlap
     ethr =  2.29E-09,  avg # of iterations =  8.0

     negative rho (up, down):  1.077E-04 0.000E+00

     total cpu time spent up to now is      287.5 secs

     total energy              =   -2205.56514350 Ry
     estimated scf accuracy    <       0.00000295 Ry

     iteration #  6     ecut=    80.00 Ry     beta= 0.70
     Davidson diagonalization with overlap
     ethr =  9.62E-10,  avg # of iterations =  2.0

     negative rho (up, down):  1.076E-04 0.000E+00

     total cpu time spent up to now is      300.9 secs

     total energy              =   -2205.56514356 Ry
     estimated scf accuracy    <       0.00000057 Ry

     iteration #  7     ecut=    80.00 Ry     beta= 0.70
     Davidson diagonalization with overlap
     ethr =  1.87E-10,  avg # of iterations =  6.0

     negative rho (up, down):  1.094E-04 0.000E+00

     total cpu time spent up to now is      316.8 secs

     total energy              =   -2205.56514366 Ry
     estimated scf accuracy    <       0.00000010 Ry

     iteration #  8     ecut=    80.00 Ry     beta= 0.70
     Davidson diagonalization with overlap
     ethr =  3.36E-11,  avg # of iterations =  5.0

     negative rho (up, down):  1.376E-04 0.000E+00

     total cpu time spent up to now is      318.9 secs

     End of self-consistent calculation

          k = 0.0000 0.0000 0.0000 (105382 PWs)   bands (ev):

   -62.8355 -62.8223 -62.8093 -62.8060 -62.8004 -62.7911 -62.7730 -62.7706
   -62.7463 -62.6826 -62.6473 -62.6041 -37.1693 -37.1043 -37.0993 -37.0907
   -37.0811 -37.0578 -37.0496 -37.0214 -37.0200 -37.0145 -37.0092 -36.9927
   -36.9866 -36.9796 -36.9777 -36.9739 -36.9679 -36.9578 -36.9441 -36.9311
   -36.9257 -36.9014 -36.8702 -36.8596 -36.8574 -36.8405 -36.8292 -36.8207
   -36.8087 -36.8061 -36.7988 -36.7751 -36.7676 -36.7349 -36.6278 -36.6174
   -16.2177 -15.6525 -15.0897 -15.0331 -14.9072 -14.7882 -14.6486 -14.4405
   -14.4327 -14.3645 -14.3440 -14.2935 -14.2679 -14.2237 -14.1483 -14.0710
   -14.0621 -14.0566 -13.9643 -13.9056 -13.7910 -13.7655 -13.7381  -8.8950
    -7.5804  -7.3956  -7.2704  -7.2159  -7.1855  -7.1502  -7.1296  -7.0813
    -6.7880  -6.7319  -6.7164  -6.6376  -6.5844  -6.4887  -6.4409  -6.3677
    -6.3163  -6.2140  -6.1772  -5.9460  -5.8810  -5.8346  -5.7667  -5.7504
    -5.7226  -5.6648  -5.6211  -5.5979  -5.5725  -5.5325  -5.4632  -5.3947
    -5.3480  -5.3061  -5.1956  -5.0894  -5.0638  -4.9853  -4.9496  -4.9059
    -4.8777  -4.8005  -4.5945  -4.5589  -4.4279  -4.2756  -4.2542  -4.1965
    -4.1493  -4.1339  -3.9951  -3.8232  -3.7422  -3.7193  -3.7000  -3.6698
    -3.6146  -3.5513  -3.5193  -3.4714  -3.4248  -3.4190  -3.4079  -3.3247
    -3.3088  -3.1858  -3.1026  -2.8548  -2.8231  -2.7694  -2.7235  -2.6906
    -2.6508  -2.6238  -2.6133  -2.5548  -2.5007  -2.2111  -1.9746  -1.9415
    -1.9203  -0.7752  -0.6845  -0.6150  -0.1183  -0.0926  -0.0518  -0.0022
     0.0807   0.1443   0.2206   0.3053   0.3188   0.3699   0.4532   0.4921
     0.5330   0.5842   0.6015   0.6378   0.6842   0.6920   0.7531   0.7940
     0.8356   0.8539   0.9189   0.9557   1.0213   1.0476   1.0976   1.2129
     1.4981

     the Fermi energy is    -0.8062 ev

!    total energy              =   -2205.56514351 Ry
     estimated scf accuracy    <       0.00000004 Ry
     smearing contrib. (-TS)   =      -0.00867411 Ry
     internal energy E=F+TS    =   -2205.55646941 Ry

     The total energy is F=E-TS. E is the sum of the following terms:
     one-electron contribution =  -18046.21715802 Ry
     hartree contribution      =    9010.35547344 Ry
     xc contribution           =    -385.34695258 Ry
     ewald contribution        =    7215.65216776 Ry

     convergence has been achieved in   8 iterations

     negative rho (up, down):  1.376E-04 0.000E+00

     Forces acting on atoms (cartesian axes, Ry/au):

     atom    1 type  1   force =    -0.00517328    0.00156156   -0.00614597
     atom    2 type  2   force =    -0.00562736    0.00506604   -0.00194444
     atom    3 type  2   force =    -0.01083948    0.00823451   -0.01584192
     atom    4 type  1   force =     0.00306722    0.00065922    0.00133076
     atom    5 type  2   force =     0.00218083   -0.00473143   -0.00350690
     atom    6 type  2   force =     0.00163294    0.00398957    0.00299075
     atom    7 type  1   force =     0.00322122   -0.00521585    0.00234383
     atom    8 type  2   force =     0.00044142   -0.00377225    0.00705343
     atom    9 type  2   force =     0.00830186    0.00192258    0.00275098
     atom   10 type  1   force =     0.00168012    0.00820645    0.00218717
     atom   11 type  2   force =     0.00150932   -0.00141158   -0.00846103
     atom   12 type  2   force =    -0.00740781   -0.00102571   -0.00444702
     atom   13 type  1   force =     0.00200955    0.00075740    0.00053470
     atom   14 type  2   force =     0.00292226    0.00072274    0.00490795
     atom   15 type  2   force =    -0.00487801    0.00088192   -0.00418256
     atom   16 type  1   force =     0.00173607    0.00236194    0.00129890
     atom   17 type  2   force =     0.00443616    0.00076317    0.00181756
     atom   18 type  2   force =    -0.00259498   -0.00083518    0.00698938
     atom   19 type  1   force =    -0.00032967   -0.00310660    0.00079928
     atom   20 type  2   force =     0.00163748   -0.00295560   -0.00261446
     atom   21 type  1   force =    -0.00253611    0.00049123    0.00074661
     atom   22 type  2   force =     0.00139183   -0.00128635   -0.00169280
     atom   23 type  2   force =     0.00122193   -0.00028765    0.00020866
     atom   24 type  1   force =    -0.00401807   -0.00235989   -0.00151712
     atom   25 type  2   force =     0.00590695    0.00900610   -0.00425431
     atom   26 type  2   force =    -0.00265853   -0.00144266   -0.00297255
     atom   27 type  1   force =    -0.00003084    0.00201244    0.00484579
     atom   28 type  2   force =     0.00032421   -0.00482366   -0.00346575
     atom   29 type  2   force =     0.00253106    0.00140419   -0.00263286
     atom   30 type  1   force =     0.00087620   -0.00578087    0.00800144
     atom   31 type  2   force =     0.00144674   -0.00075157    0.00649760
     atom   32 type  2   force =    -0.00507504    0.00248763    0.00365758
     atom   33 type  1   force =     0.00227325    0.00388323    0.00462769
     atom   34 type  2   force =    -0.00045970   -0.01801746   -0.01951393
     atom   35 type  2   force =    -0.00520729    0.00765804    0.00475443
     atom   36 type  3   force =     0.00608757   -0.00426563    0.01484914
     The non-local contrib.  to forces
     atom    1 type  1   force =     0.00030862    0.02664523   -0.01067455
     atom    2 type  2   force =    -0.00794857    0.00425885   -0.25871665
     atom    3 type  2   force =    -0.01072422   -0.00835194    0.26172030
     atom    4 type  1   force =    -0.00072164    0.00562449    0.00301440
     atom    5 type  2   force =     0.01056360   -0.03175964   -0.25329226
     atom    6 type  2   force =     0.00009716    0.00443872    0.26481373
     atom    7 type  1   force =    -0.03063093   -0.00686325   -0.01959095
     atom    8 type  2   force =     0.01039085   -0.00225625   -0.25381548
     atom    9 type  2   force =     0.00271946   -0.01289084    0.27148260
     atom   10 type  1   force =    -0.00070214   -0.00288417   -0.01213142
     atom   11 type  2   force =     0.00494998    0.00177249   -0.25233280
     atom   12 type  2   force =    -0.01674710   -0.01073337    0.25855184
     atom   13 type  1   force =     0.00398647    0.02524763   -0.00775987
     atom   14 type  2   force =     0.00587238   -0.01035139   -0.26541437
     atom   15 type  2   force =    -0.00736589   -0.00740739    0.26267601
     atom   16 type  1   force =    -0.00339148    0.04114497   -0.02468051
     atom   17 type  2   force =     0.00055690   -0.02819718   -0.25089978
     atom   18 type  2   force =    -0.00173100   -0.00035914    0.27037270
     atom   19 type  1   force =     0.01961446   -0.00598426   -0.01313863
     atom   20 type  2   force =    -0.00096779   -0.01647297    0.26411534
     atom   21 type  1   force =    -0.00028029    0.02488489    0.00456724
     atom   22 type  2   force =    -0.00583618    0.00534989   -0.24533080
     atom   23 type  2   force =     0.00517203   -0.01596969    0.26199572
     atom   24 type  1   force =     0.00300094    0.02046438   -0.00995086
     atom   25 type  2   force =     0.00138123   -0.00915073   -0.26243100
     atom   26 type  2   force =     0.00383301   -0.01475394    0.26530315
     atom   27 type  1   force =     0.00076871    0.00563534    0.00428236
     atom   28 type  2   force =    -0.00426840   -0.02628067   -0.27415300
     atom   29 type  2   force =     0.00671958   -0.00171552    0.26555759
     atom   30 type  1   force =    -0.00197731    0.01572709    0.00592513
     atom   31 type  2   force =    -0.00636065    0.00728467   -0.24611073
     atom   32 type  2   force =    -0.00080607   -0.00838454    0.27385899
     atom   33 type  1   force =    -0.00268394    0.00702357    0.00241455
     atom   34 type  2   force =     0.16460940   -0.14478304    0.06070577
     atom   35 type  2   force =    -0.00070131   -0.01107406    0.27381641
     atom   36 type  3   force =    -0.02947792    0.02172922   -0.04504483
     The ionic contribution  to forces
     atom    1 type  1   force =    -0.12256417    0.95622077    5.81393730
     atom    2 type  2   force =    -0.24661987    0.09344054   39.45469071
     atom    3 type  2   force =    -0.02741539    0.21075271  -36.49390992
     atom    4 type  1   force =    -0.12242517    0.42636312    0.80870853
     atom    5 type  2   force =    -0.96941801    1.47866422   38.60786304
     atom    6 type  2   force =     0.27315534   -0.54078048  -37.86775487
     atom    7 type  1   force =    -2.65724006   -2.63618972    2.41977364
     atom    8 type  2   force =    -1.15709513    0.00360960   37.55060535
     atom    9 type  2   force =     0.27349127   -0.10630095  -37.96932863
     atom   10 type  1   force =     0.04527554   -0.60047148    4.32816184
[...]
     atom   27 type  1   force =     0.00063146    0.00591956    0.00041604
     atom   28 type  2   force =    -0.00123652   -0.01553852   -0.27317103
     atom   29 type  2   force =     0.00068032   -0.00944111    0.26977771
     atom   30 type  1   force =    -0.00102819    0.01385883    0.00121579
     atom   31 type  2   force =    -0.00903171    0.00752903   -0.25032660
     atom   32 type  2   force =     0.00681893   -0.00748471    0.27033855
     atom   33 type  1   force =     0.00085773    0.00785913    0.00019528
     atom   34 type  2   force =     0.17893451   -0.11096091    0.09349561
     atom   35 type  2   force =     0.00034746   -0.01454869    0.27453692
     atom   36 type  3   force =    -0.02662719    0.01697371   -0.04494952
     The ionic contribution  to forces
     atom    1 type  1   force =    -0.23200235    0.54963330    2.71041415
     atom    2 type  2   force =    -0.15360858   -0.07430427   38.99276811
     atom    3 type  2   force =     0.13195624   -0.00861035  -37.66973949
     atom    4 type  1   force =    -0.07073786    0.29338569    0.56787850
     atom    5 type  2   force =    -0.87342385    1.19326581   38.52633058
     atom    6 type  2   force =     0.20071115   -0.31791271  -38.14828829
     atom    7 type  1   force =    -2.74974402   -1.55633055    2.70662410
     atom    8 type  2   force =    -1.33566854    0.17653259   38.21813604
     atom    9 type  2   force =     0.29643047    0.16616331  -37.89314554
     atom   10 type  1   force =     0.28277592   -1.08212197    2.76824204
     atom   11 type  2   force =    -0.31351584   -1.44721372   38.38829061
     atom   12 type  2   force =     0.18446725    0.13190181  -37.86361001
     atom   13 type  1   force =     0.06861066    0.74734724    2.70218771
     atom   14 type  2   force =     0.04516489   -0.07690489   38.58663680
     atom   15 type  2   force =    -0.01138579   -0.15117628  -37.37750261
     atom   16 type  1   force =    -0.30488157    3.63474851    1.73074475
     atom   17 type  2   force =     0.84120382    1.19730702   38.27420749
     atom   18 type  2   force =    -0.15196889   -0.35137038  -37.96741254
     atom   19 type  1   force =     3.19611247   -2.22285743    1.21383790
     atom   20 type  2   force =     0.01498108    0.04296778  -38.51801729
     atom   21 type  1   force =     0.20318336   -0.31013375    1.09968740
     atom   22 type  2   force =     0.95555412   -1.41725316   38.38085149
     atom   23 type  2   force =    -0.14468762    0.35784208  -38.12979839
     atom   24 type  1   force =     0.14293745    0.35560651    2.51218900
     atom   25 type  2   force =     0.12446769    0.23807972   38.85535834
     atom   26 type  2   force =    -0.11846748   -0.06770060  -37.38734912
     atom   27 type  1   force =     0.23016722    0.09335305    0.33308322
     atom   28 type  2   force =     0.08375636    0.45218490   38.06127203
     atom   29 type  2   force =     0.03678092   -0.17139366  -37.51474032
     atom   30 type  1   force =    -0.70439682   -0.19234415    1.84550300
     atom   31 type  2   force =     1.46214867   -0.31995114   38.14563556
     atom   32 type  2   force =    -0.30408647    0.02236943  -38.20674259
     atom   33 type  1   force =    -0.10988909   -0.00885546    2.99809680
     atom   34 type  2   force =    -1.39536022    0.37909705   37.50127920
     atom   35 type  2   force =    -0.09806491    0.15451855  -36.88280548
     atom   36 type  3   force =     0.57048014   -0.40986987    8.43989686
     The local contribution  to forces
     atom    1 type  1   force =     0.23705595   -0.57528839   -2.70605618
     atom    2 type  2   force =     0.15765662    0.07507017  -38.75842789
     atom    3 type  2   force =    -0.12872388    0.01975324   37.42314119
     atom    4 type  1   force =     0.07006899   -0.29682032   -0.57013268
     atom    5 type  2   force =     0.86865567   -1.17252675  -38.29390401
     atom    6 type  2   force =    -0.20319437    0.32116761   37.90585604
     atom    7 type  1   force =     2.78015196    1.55875144   -2.68587275
     atom    8 type  2   force =     1.32057128   -0.17910498  -37.97939261
     atom    9 type  2   force =    -0.29045026   -0.15073590   37.64706597
     atom   10 type  1   force =    -0.28070009    1.07957766   -2.76131277
     atom   11 type  2   force =     0.31190202    1.44961835  -38.16032376
     atom   12 type  2   force =    -0.17530392   -0.12399217   37.62010061
     atom   13 type  1   force =    -0.07209862   -0.77420176   -2.69622397
     atom   14 type  2   force =    -0.04426443    0.08731756  -38.33987920
     atom   15 type  2   force =     0.01095254    0.16052631   37.13388818
     atom   16 type  1   force =     0.30809715   -3.67887950   -1.70122215
     atom   17 type  2   force =    -0.83730819   -1.17472459  -38.04040720
     atom   18 type  2   force =     0.15065320    0.35347096   37.72198410
     atom   19 type  1   force =    -3.21470856    2.22432864   -1.19995818
     atom   20 type  2   force =    -0.01358864   -0.03259701   38.27400451
     atom   21 type  1   force =    -0.20251939    0.28641269   -1.10490531
     atom   22 type  2   force =    -0.94717809    1.41403128  -38.15599274
     atom   23 type  2   force =     0.13939968   -0.34419139   37.88792691
     atom   24 type  1   force =    -0.14164610   -0.37348195   -2.51156796
     atom   25 type  2   force =    -0.12421562   -0.22099933  -38.61595858
     atom   26 type  2   force =     0.11569816    0.07839238   37.14152004
     atom   27 type  1   force =    -0.23114058   -0.09917053   -0.33342432
     atom   28 type  2   force =    -0.08266910   -0.43792066  -37.80824470
     atom   29 type  2   force =    -0.03738232    0.18069491   37.26658077
     atom   30 type  1   force =     0.70541536    0.17923537   -1.84674571
     atom   31 type  2   force =    -1.45343551    0.31194007  -37.91482757
     atom   32 type  2   force =     0.29887573   -0.01458441   37.95695991
     atom   33 type  1   force =     0.10901964    0.00063764   -2.99842757
     atom   34 type  2   force =     1.22843379   -0.27568413  -37.59227078
     atom   35 type  2   force =     0.09728519   -0.13954882   36.63002950
     atom   36 type  3   force =    -0.54439552    0.39449883   -8.39473561
     The core correction contribution to forces
     atom    1 type  1   force =     0.00000000    0.00000000    0.00000000
     atom    2 type  2   force =     0.00004095    0.00022091    0.02025730
     atom    3 type  2   force =     0.00014523    0.00069886   -0.02102227
     atom    4 type  1   force =     0.00000000    0.00000000    0.00000000
     atom    5 type  2   force =    -0.00047090    0.00104949    0.02027899
     atom    6 type  2   force =     0.00002638   -0.00030320   -0.02077549
     atom    7 type  1   force =     0.00000000    0.00000000    0.00000000
     atom    8 type  2   force =    -0.00085489    0.00006215    0.02044050
     atom    9 type  2   force =     0.00063532    0.00083448   -0.02088303
     atom   10 type  1   force =     0.00000000    0.00000000    0.00000000
     atom   11 type  2   force =     0.00003279   -0.00020350    0.02003681
     atom   12 type  2   force =     0.00069923    0.00049921   -0.02084377
     atom   13 type  1   force =     0.00000000    0.00000000    0.00000000
     atom   14 type  2   force =     0.00004185    0.00017602    0.02082057
     atom   15 type  2   force =    -0.00004965    0.00047204   -0.02068997
     atom   16 type  1   force =     0.00000000    0.00000000    0.00000000
     atom   17 type  2   force =     0.00046417    0.00111679    0.02031026
     atom   18 type  2   force =    -0.00001843   -0.00031470   -0.02081973
     atom   19 type  1   force =     0.00000000    0.00000000    0.00000000
     atom   20 type  2   force =     0.00007099    0.00046945   -0.02123386
     atom   21 type  1   force =     0.00000000    0.00000000    0.00000000
     atom   22 type  2   force =     0.00059832   -0.00059085    0.01982128
     atom   23 type  2   force =    -0.00049100    0.00106658   -0.02079419
     atom   24 type  1   force =     0.00000000    0.00000000    0.00000000
     atom   25 type  2   force =     0.00007484    0.00104134    0.02042981
     atom   26 type  2   force =    -0.00020321    0.00043212   -0.02092952
     atom   27 type  1   force =     0.00000000    0.00000000    0.00000000
     atom   28 type  2   force =     0.00011925    0.00099098    0.02099177
     atom   29 type  2   force =     0.00001000    0.00029123   -0.02083364
     atom   30 type  1   force =     0.00000000    0.00000000    0.00000000
     atom   31 type  2   force =     0.00076866   -0.00041541    0.01993210
     atom   32 type  2   force =    -0.00058417    0.00039868   -0.02105268
     atom   33 type  1   force =     0.00000000    0.00000000    0.00000000
     atom   34 type  2   force =    -0.01171492    0.00721881   -0.00201776
     atom   35 type  2   force =    -0.00002086    0.00080797   -0.02123201
     atom   36 type  3   force =     0.00000000    0.00000000    0.00000000
     The Hubbard contrib.    to forces
     atom    1 type  1   force =     0.00000000    0.00000000    0.00000000
     atom    2 type  2   force =     0.00000000    0.00000000    0.00000000
     atom    3 type  2   force =     0.00000000    0.00000000    0.00000000
     atom    4 type  1   force =     0.00000000    0.00000000    0.00000000
     atom    5 type  2   force =     0.00000000    0.00000000    0.00000000
     atom    6 type  2   force =     0.00000000    0.00000000    0.00000000
     atom    7 type  1   force =     0.00000000    0.00000000    0.00000000
     atom    8 type  2   force =     0.00000000    0.00000000    0.00000000
     atom    9 type  2   force =     0.00000000    0.00000000    0.00000000
     atom   10 type  1   force =     0.00000000    0.00000000    0.00000000
     atom   11 type  2   force =     0.00000000    0.00000000    0.00000000
     atom   12 type  2   force =     0.00000000    0.00000000    0.00000000
     atom   13 type  1   force =     0.00000000    0.00000000    0.00000000
     atom   14 type  2   force =     0.00000000    0.00000000    0.00000000
     atom   15 type  2   force =     0.00000000    0.00000000    0.00000000
     atom   16 type  1   force =     0.00000000    0.00000000    0.00000000
     atom   17 type  2   force =     0.00000000    0.00000000    0.00000000
     atom   18 type  2   force =     0.00000000    0.00000000    0.00000000
     atom   19 type  1   force =     0.00000000    0.00000000    0.00000000
     atom   20 type  2   force =     0.00000000    0.00000000    0.00000000
     atom   21 type  1   force =     0.00000000    0.00000000    0.00000000
     atom   22 type  2   force =     0.00000000    0.00000000    0.00000000
     atom   23 type  2   force =     0.00000000    0.00000000    0.00000000
     atom   24 type  1   force =     0.00000000    0.00000000    0.00000000
     atom   25 type  2   force =     0.00000000    0.00000000    0.00000000
     atom   26 type  2   force =     0.00000000    0.00000000    0.00000000
     atom   27 type  1   force =     0.00000000    0.00000000    0.00000000
     atom   28 type  2   force =     0.00000000    0.00000000    0.00000000
     atom   29 type  2   force =     0.00000000    0.00000000    0.00000000
     atom   30 type  1   force =     0.00000000    0.00000000    0.00000000
     atom   31 type  2   force =     0.00000000    0.00000000    0.00000000
     atom   32 type  2   force =     0.00000000    0.00000000    0.00000000
     atom   33 type  1   force =     0.00000000    0.00000000    0.00000000
     atom   34 type  2   force =     0.00000000    0.00000000    0.00000000
     atom   35 type  2   force =     0.00000000    0.00000000    0.00000000
     atom   36 type  3   force =     0.00000000    0.00000000    0.00000000
     The SCF correction term to forces
     atom    1 type  1   force =    -0.00000221    0.00002005    0.00006594
     atom    2 type  2   force =     0.00000096   -0.00000452    0.00002125
     atom    3 type  2   force =     0.00000012    0.00000925    0.00002436
     atom    4 type  1   force =    -0.00000711   -0.00005781    0.00001067
     atom    5 type  2   force =     0.00000443   -0.00002688    0.00000488
     atom    6 type  2   force =    -0.00000026    0.00000057    0.00000816
     atom    7 type  1   force =     0.00001103   -0.00000891   -0.00000923
     atom    8 type  2   force =     0.00000305   -0.00001414    0.00001315
     atom    9 type  2   force =     0.00001150   -0.00001822   -0.00002538
     atom   10 type  1   force =     0.00000895    0.00004740    0.00005608
     atom   11 type  2   force =     0.00001691    0.00003740    0.00002210
     atom   12 type  2   force =    -0.00000383    0.00001090   -0.00000476
     atom   13 type  1   force =     0.00001125    0.00000776    0.00004723
     atom   14 type  2   force =     0.00000713    0.00001259    0.00001376
     atom   15 type  2   force =    -0.00000302    0.00000983    0.00001562
     atom   16 type  1   force =     0.00000332   -0.00005709   -0.00000928
     atom   17 type  2   force =     0.00000521   -0.00002360    0.00000386
     atom   18 type  2   force =    -0.00000035    0.00000579   -0.00000197
     atom   19 type  1   force =    -0.00001108   -0.00001154   -0.00004128
     atom   20 type  2   force =    -0.00001824   -0.00001007   -0.00002943
     atom   21 type  1   force =    -0.00000481    0.00005157    0.00002574
     atom   22 type  2   force =     0.00000290    0.00002004    0.00000446
     atom   23 type  2   force =     0.00000097   -0.00000579   -0.00001190
     atom   24 type  1   force =    -0.00000783   -0.00001219    0.00006329
     atom   25 type  2   force =    -0.00000750    0.00000487    0.00000767
     atom   26 type  2   force =     0.00000216    0.00000664    0.00001622
     atom   27 type  1   force =    -0.00000155   -0.00003298   -0.00002423
     atom   28 type  2   force =    -0.00000884   -0.00002181    0.00000243
     atom   29 type  2   force =     0.00000085    0.00000331    0.00000520
     atom   30 type  1   force =     0.00000193    0.00000363   -0.00003157
     atom   31 type  2   force =     0.00000359   -0.00001114   -0.00000986
     atom   32 type  2   force =     0.00000710   -0.00000746   -0.00001743
     atom   33 type  1   force =    -0.00000654    0.00004184    0.00001804
     atom   34 type  2   force =    -0.00002203    0.00003711    0.00000122
     atom   35 type  2   force =     0.00000637    0.00000012    0.00001029
     atom   36 type  3   force =    -0.00000155    0.00000390    0.00000109

     Total force =     0.005654     Total SCF correction =     0.000217
     Energy error            =      6.7E-05 Ry
     Gradient error          =      1.6E-03 Ry/Bohr

     bfgs converged in  15 scf cycles and  14 bfgs steps
     (criteria: energy <  1.0E-04 Ry, force <  1.0E-02 Ry/Bohr)

     End of BFGS Geometry Optimization

     Final energy             =   -2205.5761639422 Ry

     File ./MoS2-V-O.bfgs deleted, as requested
Begin final coordinates

ATOMIC_POSITIONS (angstrom)
Mo            6.5533577642        1.7759205323        2.7644012326
S             8.1118235816        0.8702305018        4.3817537601
S             8.1217463114        0.8493600301        1.1689409549
Mo            8.1269898440        4.4901430571        2.7169533781
S             6.5254972148        3.6765871821        4.3212370635
S             6.5573410511        3.5683152013        1.1086737917
Mo            6.5278476132        7.1748705703        2.6748385379
S             8.0832353761        6.2932389850        4.3108175181
S             8.1483569928        6.3156468096        1.1164218386
Mo            8.1123280094        9.9691588536        2.7592901766
S             6.5198407944        8.9442491600        4.3234060501
S             6.5998166707        9.0323119854        1.1282814910
Mo            3.4210527005        1.7600985343        2.7656865327
S             4.9896498849        0.8218708797        4.3502968595
S             4.9882452806        0.8469234050        1.1782048338
Mo            5.0070339534        4.5410652973        2.6569469189
S             3.4753793188        3.6702309267        4.3091908137
S             3.4355001222        3.5619026357        1.1148469020
Mo            3.4561663072        7.1991744870        2.6534611288
S             4.9958385858        6.3223878020        1.0460413980
Mo            4.9979272039        9.9050178363        2.7348432697
S             3.4755095674        8.9427086268        4.3245299948
S             3.3943348872        9.0500574046        1.1187337023
Mo            0.2542319281        1.7311092102        2.7739345211
S             1.8555136259        0.8585982229        4.3797685911
S             1.8441922141        0.8401036363        1.1850502520
Mo            1.8749841936        4.4977480370        2.7107187145
S             0.2731314506        3.6038317106        4.3155108270
S             0.2712463239        3.5495593327        1.1533331099
Mo            0.2781721604        7.1955945062        2.7497383356
S             1.9204022220        6.3037601249        4.3123683344
S             1.8365840537        6.3160671702        1.0991852674
Mo            1.8667129346        9.9379643880        2.7836019783
S             0.3370855478        8.9730385710        4.4065544314
S             0.2632743843        9.0519315991        1.2061911794
H             1.0227480484        8.5404247529        5.5510078471
End final coordinates



     Writing all to output data dir ./MoS2-V-O.save/
 
     init_run     :      2.60s CPU      2.83s WALL (       1 calls)
     electrons    :   1296.38s CPU   1417.91s WALL (      15 calls)
     update_pot   :     19.62s CPU     20.41s WALL (      14 calls)
     forces       :     20.45s CPU     21.93s WALL (      15 calls)

     Called by init_run:
     wfcinit      :      0.40s CPU      0.43s WALL (       1 calls)
     potinit      :      1.44s CPU      1.57s WALL (       1 calls)
     hinit0       :      0.20s CPU      0.22s WALL (       1 calls)

     Called by electrons:
     c_bands      :    159.32s CPU    161.17s WALL (     130 calls)
     sum_band     :     42.41s CPU     46.26s WALL (     130 calls)
     v_of_rho     :     53.95s CPU     61.91s WALL (     135 calls)
     newd         :     21.72s CPU     24.48s WALL (     135 calls)
     mix_rho      :   1025.83s CPU   1130.32s WALL (     130 calls)

     Called by c_bands:
     init_us_2    :      2.88s CPU      2.97s WALL (     261 calls)
     init_us_2:cp :      2.87s CPU      2.97s WALL (     261 calls)
     regterg      :    149.86s CPU    151.61s WALL (     130 calls)

     Called by *egterg:
     rdiaghg      :     12.65s CPU     12.81s WALL (     723 calls)
     h_psi        :     85.96s CPU     86.67s WALL (     748 calls)
     s_psi        :     10.94s CPU     10.97s WALL (     748 calls)
     g_psi        :      0.59s CPU      0.59s WALL (     617 calls)

     Called by h_psi:
     h_psi:calbec :     12.01s CPU     12.06s WALL (     748 calls)
     vloc_psi     :     61.85s CPU     62.45s WALL (     748 calls)
     add_vuspsi   :     10.72s CPU     10.78s WALL (     748 calls)

     General routines
     calbec       :     17.13s CPU     17.20s WALL (     938 calls)
     fft          :     37.16s CPU     42.95s WALL (    9114 calls)
     ffts         :    455.25s CPU    556.15s WALL (  248098 calls)
     fftw         :     53.70s CPU     54.15s WALL (   79006 calls)
     interpolate  :      0.95s CPU      1.11s WALL (     135 calls)
 
     Parallel routines
 
     PWSCF        :  22m22.10s CPU  24m27.49s WALL

 
   This run was terminated on:   7:48:49   4Nov2023            

=------------------------------------------------------------------------------=
   JOB DONE.
=------------------------------------------------------------------------------=
