
     Program PWSCF v.7.2 starts on  3Nov2023 at 22: 4:58 

     This program is part of the open-source Quantum ESPRESSO suite
     for quantum simulation of materials; please cite
         "P. Giannozzi et al., J. Phys.:Condens. Matter 21 395502 (2009);
         "P. Giannozzi et al., J. Phys.:Condens. Matter 29 465901 (2017);
         "P. Giannozzi et al., J. Chem. Phys. 152 154105 (2020);
          URL http://www.quantum-espresso.org", 
     in publications or presentations arising from this work. More details at
     http://www.quantum-espresso.org/quote

     Parallel version (MPI & OpenMP), running on      48 processor cores
     Number of MPI processes:                48
     Threads/MPI process:                     1

     MPI processes distributed on     1 nodes
     48423 MiB available memory on the printing compute node when the environment starts
 
     Waiting for input...
     Reading input from standard input
Warning: card &CELL ignored
Warning: card CELL_DYNAMICS = 'BFGS', ignored
Warning: card CELL_DOFREE = '2DXY' ignored
Warning: card / ignored

     Current dimensions of program PWSCF are:
     Max number of different atomic species (ntypx) = 10
     Max number of k-points (npk) =  40000
     Max angular momentum in pseudopotentials (lmaxx) =  4

     IMPORTANT: XC functional enforced from input :
     Exchange-correlation= RVV10
                           (   1   4  13   4  26   0   0)
     Any further DFT definition will be discarded
     Please, verify this is what you really want


     gamma-point specific algorithms are used
     signal trapping enabled: kill the code with -SIGUSR1 to stop cleanly the simulation 
 
     R & G space division:  proc/nbgrp/npool/nimage =      48
     Subspace diagonalization in iterative solution of the eigenvalue problem:
     one sub-group per band group will be used
     scalapack distributed-memory algorithm (size of sub-group:  2*  2 procs)

 
     Parallelization info
     --------------------
     sticks:   dense  smooth     PW     G-vecs:    dense   smooth      PW
     Min         243     194     47                49060    35090    4376
     Max         246     196     50                49086    35128    4410
     Sum       11735    9389   2349              2355467  1685513  210763
 
     Using Slab Decomposition
 


     bravais-lattice index     =            0
     lattice parameter (alat)  =      17.8707  a.u.
     unit-cell volume          =   17436.2743 (a.u.)^3
     number of atoms/cell      =           36
     number of atomic types    =            3
     number of electrons       =       307.00
     number of Kohn-Sham states=          185
     kinetic-energy cutoff     =      80.0000  Ry
     charge density cutoff     =     400.0000  Ry
     scf convergence threshold =      1.0E-06
     mixing beta               =       0.7000
     number of iterations used =            8  local-TF  mixing
     energy convergence thresh.=      1.0E-04
     force convergence thresh. =      1.0E-02
     Exchange-correlation= RVV10
                           (   1   4  13   4  26   0   0)
     nstep                     =          200


     celldm(1)=  17.870686  celldm(2)=   0.000000  celldm(3)=   0.000000
     celldm(4)=   0.000000  celldm(5)=   0.000000  celldm(6)=   0.000000

     crystal axes: (cart. coord. in units of alat)
               a(1) = (   1.000000   0.000000   0.000000 )  
               a(2) = (   0.000000   1.155671   0.000000 )  
               a(3) = (   0.000000   0.000000   2.643601 )  

     reciprocal axes: (cart. coord. in units 2 pi/alat)
               b(1) = (  1.000000  0.000000  0.000000 )  
               b(2) = (  0.000000  0.865298  0.000000 )  
               b(3) = (  0.000000  0.000000  0.378272 )  


     PseudoPot. # 1 for Mo read from file:
     ../pseudo/Mo_ONCV_PBE-1.0.oncvpsp.upf
     MD5 check sum: 1b5d28e075c9ccadda658a603575cd1f
     Pseudo is Norm-conserving, Zval = 14.0
     Generated using ONCVPSP code by D. R. Hamann
     Using radial grid of 1526 points,  6 beta functions with: 
                l(1) =   0
                l(2) =   0
                l(3) =   1
                l(4) =   1
                l(5) =   2
                l(6) =   2

     PseudoPot. # 2 for S  read from file:
     ../pseudo/s_pbe_v1.4.uspp.F.UPF
     MD5 check sum: 88d86576ff6df21479756cfb9bdac1df
     Pseudo is Ultrasoft + core correction, Zval =  6.0
     Generated by new atomic code, or converted to UPF format
     Using radial grid of  907 points,  6 beta functions with: 
                l(1) =   0
                l(2) =   0
                l(3) =   1
                l(4) =   1
                l(5) =   2
                l(6) =   2
     Q(r) pseudized with  8 coefficients,  rinner =    1.300   1.300   1.300
                                                       1.300   1.300

     PseudoPot. # 3 for H  read from file:
     ../pseudo/H_ONCV_PBE-1.0.oncvpsp.upf
     MD5 check sum: 1790becc920ee074925cf490c71280fe
     Pseudo is Norm-conserving, Zval =  1.0
     Generated using ONCVPSP code by D. R. Hamann
     Using radial grid of 1166 points,  2 beta functions with: 
                l(1) =   0
                l(2) =   0

     atomic species   valence    mass     pseudopotential
        Mo            14.00    95.94000     Mo( 1.00)
        S              6.00    32.06500     S ( 1.00)
        H              1.00     1.00794     H ( 1.00)

     No symmetry found



   Cartesian axes

     site n.     atom                  positions (alat units)
         1           Mo  tau(   1) = (   0.6952221   0.1890506   0.2985846  )
         2           S   tau(   2) = (   0.8646417   0.0856217   0.4689279  )
         3           S   tau(   3) = (   0.8663890   0.0857843   0.1351291  )
         4           Mo  tau(   4) = (   0.8560186   0.4753274   0.2873942  )
         5           S   tau(   5) = (   0.6873294   0.3936244   0.4596353  )
         6           S   tau(   6) = (   0.6929804   0.3713468   0.1185692  )
         7           Mo  tau(   7) = (   0.6862796   0.7633098   0.2825370  )
         8           S   tau(   8) = (   0.8545980   0.6708292   0.4486168  )
         9           S   tau(   9) = (   0.8545123   0.6666874   0.1146125  )
        10           Mo  tau(  10) = (   0.8629403   1.0471007   0.3006803  )
        11           S   tau(  11) = (   0.6868280   0.9456650   0.4634891  )
        12           S   tau(  12) = (   0.6998113   0.9568511   0.1205389  )
        13           Mo  tau(  13) = (   0.3618216   0.1847309   0.2935964  )
        14           S   tau(  14) = (   0.5260962   0.0863870   0.4600448  )
        15           S   tau(  15) = (   0.5348379   0.0894875   0.1297123  )
        16           Mo  tau(  16) = (   0.5265817   0.4772436   0.2784130  )
        17           S   tau(  17) = (   0.3624753   0.3882513   0.4525556  )
        18           S   tau(  18) = (   0.3635411   0.3752055   0.1119148  )
        19           Mo  tau(  19) = (   0.3652268   0.7630864   0.2781795  )
        20           S   tau(  20) = (   0.5269494   0.6690381   0.1096838  )
        21           Mo  tau(  21) = (   0.5300192   1.0470394   0.2900995  )
        22           S   tau(  22) = (   0.3670346   0.9457522   0.4574073  )
        23           S   tau(  23) = (   0.3604225   0.9585725   0.1159032  )
        24           Mo  tau(  24) = (   0.0313099   0.1847895   0.3013130  )
        25           S   tau(  25) = (   0.1956761   0.0838230   0.4650863  )
        26           S   tau(  26) = (   0.1967693   0.0903508   0.1278874  )
        27           Mo  tau(  27) = (   0.1967578   0.4753919   0.2813011  )
        28           S   tau(  28) = (   0.0287851   0.3864324   0.4586755  )
        29           S   tau(  29) = (   0.0244514   0.3729871   0.1239344  )
        30           Mo  tau(  30) = (   0.0286728   0.7631204   0.2856894  )
        31           S   tau(  31) = (   0.2011512   0.6675435   0.4465001  )
        32           S   tau(  32) = (   0.1969214   0.6672839   0.1104564  )
        33           Mo  tau(  33) = (   0.1950294   1.0511147   0.2932237  )
        34           S   tau(  34) = (   0.0312912   0.9612169   0.4667423  )
        35           S   tau(  35) = (   0.0292670   0.9563028   0.1216485  )
        36           H   tau(  36) = (   0.7777778   0.1284079   0.5407634  )

     number of k points=     1  Gaussian smearing, width (Ry)=  0.0100
                       cart. coord. in units 2pi/alat
        k(    1) = (   0.0000000   0.0000000   0.0000000), wk =   2.0000000

     Dense  grid:  1177734 G-vectors     FFT dimensions: ( 120, 135, 320)

     Smooth grid:   842757 G-vectors     FFT dimensions: ( 108, 120, 270)

     Estimated max dynamical RAM per process >     146.59 MB

     Estimated total dynamical RAM >       6.87 GB

     Initial potential from superposition of free atoms

     starting charge     306.9873, renormalised to     307.0000

     negative rho (up, down):  1.418E-04 0.000E+00


---------------------------------------------------------------------------------
Carrying out rVV10 run using the following parameters:
Nqs =      20    Nr_points =    1024   r_max =   100.000
b_value =  6.30000    beta =  0.00901
     q_mesh =  0.00010000  0.00030000  0.00058939  0.00100810
               0.00161396  0.00249058  0.00375900  0.00559430
               0.00824984  0.01209221  0.01765183  0.02569619
               0.03733578  0.05417739  0.07854596  0.11380545
               0.16482331  0.23864234  0.34545298  0.50000000

Gradients computed in Reciprocal space

---------------------------------------------------------------------------------


     Starting wfcs are  213 randomized atomic wfcs

     total cpu time spent up to now is        3.5 secs

     Self-consistent Calculation

     iteration #  1     ecut=    80.00 Ry     beta= 0.70
     Davidson diagonalization with overlap
     ethr =  1.00E-02,  avg # of iterations =  2.0

     Threshold (ethr) on eigenvalues was too large:
     Diagonalizing with lowered threshold

     Davidson diagonalization with overlap
     ethr =  3.81E-04,  avg # of iterations =  4.0

     negative rho (up, down):  1.747E-08 0.000E+00

     total cpu time spent up to now is       20.5 secs

     total energy              =   -2205.55829303 Ry
     estimated scf accuracy    <       1.46225418 Ry

     iteration #  2     ecut=    80.00 Ry     beta= 0.70
     Davidson diagonalization with overlap
     ethr =  4.76E-04,  avg # of iterations =  1.0

     total cpu time spent up to now is       22.9 secs

     total energy              =   -2205.38842391 Ry
     estimated scf accuracy    <       0.59433721 Ry

     iteration #  3     ecut=    80.00 Ry     beta= 0.70
     Davidson diagonalization with overlap
     ethr =  1.94E-04,  avg # of iterations =  2.0

     total cpu time spent up to now is       25.3 secs

     total energy              =   -2205.47688028 Ry
     estimated scf accuracy    <       0.07084671 Ry

     iteration #  4     ecut=    80.00 Ry     beta= 0.70
     Davidson diagonalization with overlap
     ethr =  2.31E-05,  avg # of iterations = 15.0

     total cpu time spent up to now is       28.5 secs

     total energy              =   -2205.48138305 Ry
     estimated scf accuracy    <       0.03181521 Ry

     iteration #  5     ecut=    80.00 Ry     beta= 0.70
     Davidson diagonalization with overlap
     ethr =  1.04E-05,  avg # of iterations =  2.0

     total cpu time spent up to now is       30.7 secs

     total energy              =   -2205.48068684 Ry
     estimated scf accuracy    <       0.01856905 Ry

     iteration #  6     ecut=    80.00 Ry     beta= 0.70
     Davidson diagonalization with overlap
     ethr =  6.05E-06,  avg # of iterations =  2.0

     total cpu time spent up to now is       32.9 secs

     total energy              =   -2205.47992391 Ry
     estimated scf accuracy    <       0.01401512 Ry

     iteration #  7     ecut=    80.00 Ry     beta= 0.70
     Davidson diagonalization with overlap
     ethr =  4.57E-06,  avg # of iterations =  1.0

     negative rho (up, down):  7.548E-05 0.000E+00

     total cpu time spent up to now is       37.2 secs

     total energy              =   -2205.47733838 Ry
     estimated scf accuracy    <       0.00895840 Ry

     iteration #  8     ecut=    80.00 Ry     beta= 0.70
     Davidson diagonalization with overlap
     ethr =  2.92E-06,  avg # of iterations =  2.0

     negative rho (up, down):  1.812E-02 0.000E+00

     total cpu time spent up to now is       41.6 secs

     total energy              =   -2205.47748238 Ry
     estimated scf accuracy    <       0.00394999 Ry

     iteration #  9     ecut=    80.00 Ry     beta= 0.70
     Davidson diagonalization with overlap
     ethr =  1.29E-06,  avg # of iterations =  2.0

     negative rho (up, down):  2.823E-02 0.000E+00

     total cpu time spent up to now is       45.7 secs

     total energy              =   -2205.47712830 Ry
     estimated scf accuracy    <       0.00238779 Ry

     iteration # 10     ecut=    80.00 Ry     beta= 0.70
     Davidson diagonalization with overlap
     ethr =  7.78E-07,  avg # of iterations =  2.0

     negative rho (up, down):  2.749E-02 0.000E+00

     total cpu time spent up to now is       50.5 secs

     total energy              =   -2205.47735623 Ry
     estimated scf accuracy    <       0.00088039 Ry

     iteration # 11     ecut=    80.00 Ry     beta= 0.70
     Davidson diagonalization with overlap
     ethr =  2.87E-07,  avg # of iterations =  5.0

     negative rho (up, down):  1.453E-02 0.000E+00

     total cpu time spent up to now is       55.9 secs

     total energy              =   -2205.47733619 Ry
     estimated scf accuracy    <       0.00051958 Ry

     iteration # 12     ecut=    80.00 Ry     beta= 0.70
     Davidson diagonalization with overlap
     ethr =  1.69E-07,  avg # of iterations =  2.0

     negative rho (up, down):  4.635E-03 0.000E+00

     total cpu time spent up to now is       62.1 secs

     total energy              =   -2205.47737010 Ry
     estimated scf accuracy    <       0.00012420 Ry

     iteration # 13     ecut=    80.00 Ry     beta= 0.70
     Davidson diagonalization with overlap
     c_bands:  1 eigenvalues not converged
     ethr =  4.05E-08,  avg # of iterations = 20.0

     negative rho (up, down):  2.350E-03 0.000E+00

     total cpu time spent up to now is       71.2 secs

     total energy              =   -2205.47741055 Ry
     estimated scf accuracy    <       0.00001894 Ry

     iteration # 14     ecut=    80.00 Ry     beta= 0.70
     Davidson diagonalization with overlap
     ethr =  6.17E-09,  avg # of iterations =  2.0

     negative rho (up, down):  4.493E-04 0.000E+00

     total cpu time spent up to now is       82.0 secs

     total energy              =   -2205.47740712 Ry
     estimated scf accuracy    <       0.00000423 Ry

     iteration # 15     ecut=    80.00 Ry     beta= 0.70
     Davidson diagonalization with overlap
     ethr =  1.38E-09,  avg # of iterations =  5.0

     negative rho (up, down):  3.116E-04 0.000E+00

     total cpu time spent up to now is       91.9 secs

     total energy              =   -2205.47740792 Ry
     estimated scf accuracy    <       0.00000270 Ry

     iteration # 16     ecut=    80.00 Ry     beta= 0.70
     Davidson diagonalization with overlap
     ethr =  8.79E-10,  avg # of iterations =  2.0

     negative rho (up, down):  1.375E-04 0.000E+00

     total cpu time spent up to now is       93.9 secs

     End of self-consistent calculation

          k = 0.0000 0.0000 0.0000 (105382 PWs)   bands (ev):

   -62.9019 -62.8553 -62.8312 -62.8115 -62.8060 -62.7986 -62.7945 -62.7901
   -62.7305 -62.5947 -62.5587 -62.5451 -37.1990 -37.1582 -37.1271 -37.1083
   -37.1013 -37.0881 -37.0841 -37.0614 -37.0335 -37.0248 -37.0186 -37.0005
   -36.9957 -36.9868 -36.9801 -36.9783 -36.9717 -36.9624 -36.9605 -36.9529
   -36.9213 -36.8885 -36.8762 -36.8539 -36.8453 -36.8160 -36.8081 -36.8064
   -36.7767 -36.7548 -36.7367 -36.7280 -36.7147 -36.6820 -36.5618 -36.5370
   -17.1734 -15.7966 -15.1272 -15.0277 -14.9033 -14.8220 -14.6788 -14.4381
   -14.4097 -14.3799 -14.3530 -14.3172 -14.2990 -14.2278 -14.1295 -14.0970
   -14.0520 -14.0419 -13.9756 -13.9044 -13.7746 -13.7634 -13.7314  -9.7407
    -7.6446  -7.4618  -7.2867  -7.2536  -7.2153  -7.1674  -7.1320  -6.9834
    -6.7988  -6.7429  -6.7226  -6.6724  -6.6402  -6.4469  -6.4354  -6.3983
    -6.3828  -6.2385  -6.1693  -5.9185  -5.9045  -5.8425  -5.7990  -5.7846
    -5.7221  -5.6840  -5.6285  -5.5971  -5.5501  -5.5278  -5.4914  -5.4229
    -5.3847  -5.3120  -5.1906  -5.1411  -5.0885  -4.9982  -4.9470  -4.9036
    -4.8715  -4.7626  -4.6197  -4.5131  -4.4274  -4.3046  -4.2378  -4.1960
    -4.1833  -4.0367  -3.9728  -3.8227  -3.8052  -3.7638  -3.7071  -3.6501
    -3.6334  -3.5573  -3.5334  -3.4741  -3.4591  -3.4243  -3.3770  -3.3393
    -3.3266  -3.1689  -3.1038  -2.8866  -2.8354  -2.7771  -2.7423  -2.6748
    -2.6640  -2.6416  -2.6229  -2.5446  -2.4668  -2.2025  -1.9784  -1.9380
    -1.8219  -0.7299  -0.6497  -0.3426  -0.1300  -0.0988  -0.0132   0.0321
     0.0698   0.1049   0.1761   0.2456   0.2666   0.3213   0.3436   0.5131
     0.5803   0.6021   0.6142   0.6240   0.6730   0.7089   0.7501   0.7882
     0.8182   0.8663   0.8839   0.9457   1.0093   1.0368   1.0817   1.3852
     1.4155

     the Fermi energy is    -0.7605 ev

!    total energy              =   -2205.47740937 Ry
     estimated scf accuracy    <       0.00000067 Ry
     smearing contrib. (-TS)   =      -0.00827078 Ry
     internal energy E=F+TS    =   -2205.46913859 Ry

     The total energy is F=E-TS. E is the sum of the following terms:
     one-electron contribution =  -18057.12978488 Ry
     hartree contribution      =    9015.73324832 Ry
     xc contribution           =    -385.52182002 Ry
     ewald contribution        =    7221.44921799 Ry

     convergence has been achieved in  16 iterations

     negative rho (up, down):  1.375E-04 0.000E+00

     Forces acting on atoms (cartesian axes, Ry/au):

     atom    1 type  1   force =    -0.01021511   -0.00074829   -0.03798031
     atom    2 type  2   force =     0.26313074   -0.13016557   -0.18971200
     atom    3 type  2   force =    -0.01342228    0.00928104   -0.00317899
     atom    4 type  1   force =     0.01171474   -0.00440505   -0.00288462
     atom    5 type  2   force =    -0.00185184   -0.00295380   -0.00443870
     atom    6 type  2   force =     0.00297034    0.00716817    0.00197094
     atom    7 type  1   force =     0.00699382   -0.00096352   -0.01152402
     atom    8 type  2   force =     0.00100940   -0.00568606    0.01885636
     atom    9 type  2   force =     0.01329180    0.00488459    0.01175359
     atom   10 type  1   force =    -0.02814097   -0.00817465   -0.03026093
     atom   11 type  2   force =     0.00208425   -0.00796544   -0.00361881
     atom   12 type  2   force =     0.00151825    0.00255267    0.00743549
     atom   13 type  1   force =     0.00418612    0.00778871   -0.00405263
     atom   14 type  2   force =     0.00218884   -0.00057166    0.00957261
     atom   15 type  2   force =    -0.01054939    0.00234409   -0.00847764
     atom   16 type  1   force =    -0.00486535    0.00458224    0.00391769
     atom   17 type  2   force =     0.00455967    0.00162964    0.00270690
     atom   18 type  2   force =    -0.00444898   -0.00672794    0.01364760
     atom   19 type  1   force =     0.00144823   -0.01361434   -0.00364215
     atom   20 type  2   force =     0.00410466   -0.00421849    0.00027519
     atom   21 type  1   force =     0.00005967    0.00427855   -0.00378919
     atom   22 type  2   force =    -0.00393511   -0.00192440   -0.00088274
     atom   23 type  2   force =     0.00016749    0.00210408    0.00865234
     atom   24 type  1   force =     0.00192751    0.02272346   -0.02549581
     atom   25 type  2   force =     0.02201674    0.01742029    0.00642797
     atom   26 type  2   force =    -0.01164409   -0.00000168   -0.00519460
     atom   27 type  1   force =    -0.00258394   -0.00378648    0.00985140
     atom   28 type  2   force =     0.00447586    0.00321465   -0.00574546
     atom   29 type  2   force =     0.00169132   -0.00242736   -0.00307449
     atom   30 type  1   force =    -0.00601061    0.01437941   -0.00544687
     atom   31 type  2   force =     0.00222686   -0.00034879    0.01710816
     atom   32 type  2   force =    -0.01033930    0.00608886    0.00671407
     atom   33 type  1   force =     0.01020199   -0.00216029   -0.00794928
     atom   34 type  2   force =     0.00729524   -0.04749369   -0.01044826
     atom   35 type  2   force =    -0.00710642    0.00590702    0.01424015
     atom   36 type  3   force =    -0.25415017    0.12799002    0.23466705
     The non-local contrib.  to forces
     atom    1 type  1   force =    -0.01198747    0.03350271   -0.01158687
     atom    2 type  2   force =    -0.00059718    0.01021895   -0.17103152
     atom    3 type  2   force =    -0.01527933   -0.00273799    0.27498270
     atom    4 type  1   force =    -0.00443735    0.01512266    0.00500816
     atom    5 type  2   force =     0.00722187   -0.03217585   -0.24115577
     atom    6 type  2   force =    -0.00130834    0.00634040    0.26320441
     atom    7 type  1   force =    -0.03260988   -0.01350041   -0.01574002
     atom    8 type  2   force =     0.00498049   -0.00530551   -0.25277030
     atom    9 type  2   force =     0.00996313   -0.01102660    0.27721449
     atom   10 type  1   force =     0.00552552   -0.00612877   -0.01510493
     atom   11 type  2   force =     0.01509418    0.01127417   -0.25905260
     atom   12 type  2   force =    -0.00423479   -0.01546072    0.26383361
     atom   13 type  1   force =    -0.00082589    0.02464275   -0.00683341
     atom   14 type  2   force =     0.00727855   -0.00408362   -0.24486326
     atom   15 type  2   force =    -0.01301491   -0.00202275    0.26230422
     atom   16 type  1   force =     0.00079724    0.04844338   -0.02014304
     atom   17 type  2   force =     0.00300240   -0.03048275   -0.25241806
     atom   18 type  2   force =    -0.00568660   -0.00479569    0.27326658
     atom   19 type  1   force =     0.02677387   -0.00320542   -0.01222842
     atom   20 type  2   force =     0.00002758   -0.02195643    0.26402133
     atom   21 type  1   force =    -0.00084678    0.01540428    0.00465784
     atom   22 type  2   force =    -0.01141177    0.00446525   -0.25699212
     atom   23 type  2   force =     0.00599633   -0.01192270    0.26803530
     atom   24 type  1   force =     0.00905308    0.02087917   -0.01947223
     atom   25 type  2   force =     0.01629912    0.00572971   -0.25379117
     atom   26 type  2   force =    -0.00244253   -0.00959245    0.26457236
     atom   27 type  1   force =     0.00270849    0.01758065    0.00776093
     atom   28 type  2   force =    -0.00565266   -0.02942489   -0.27114979
     atom   29 type  2   force =     0.00938336   -0.00477422    0.26779807
     atom   30 type  1   force =     0.00382741    0.01267640    0.00741616
     atom   31 type  2   force =    -0.00906549   -0.00024539   -0.25306091
     atom   32 type  2   force =    -0.00751589   -0.01192028    0.27064034
     atom   33 type  1   force =     0.00228570   -0.00059219    0.00773663
     atom   34 type  2   force =     0.00345881   -0.04082932   -0.26959070
     atom   35 type  2   force =    -0.00379698   -0.01215519    0.27207438
     atom   36 type  3   force =     0.07974906   -0.03897710   -0.06543187
     The ionic contribution  to forces
     atom    1 type  1   force =     0.01901091    0.50564371    4.66281822
     atom    2 type  2   force =     1.18374027   -0.50954526   37.77276225
     atom    3 type  2   force =    -0.12850942   -0.00369714  -36.22572700
     atom    4 type  1   force =     0.15571650    0.86032031    0.52420213
     atom    5 type  2   force =    -1.09116185    1.86841868   38.65682999
     atom    6 type  2   force =     0.32758422   -0.44414751  -38.09082184
     atom    7 type  1   force =    -2.64642516   -2.83648730    2.54915943
     atom    8 type  2   force =    -0.96960640    0.05707394   37.39358616
     atom    9 type  2   force =     0.34760433   -0.02571034  -38.00532942
     atom   10 type  1   force =    -0.94776969   -0.75379282    5.29615085
     atom   11 type  2   force =    -0.62598131   -1.83871587   39.10758144
     atom   12 type  2   force =     0.43052520    0.64210956  -37.89113462
     atom   13 type  1   force =     0.35155453    1.02676767    2.74824602
     atom   14 type  2   force =    -0.38464996   -0.08781166   38.39060780
     atom   15 type  2   force =     0.10473280   -0.07549896  -36.88197125
     atom   16 type  1   force =    -0.13042353    4.12013137    0.41760684
     atom   17 type  2   force =     0.76100139    1.57544026   37.93172113
     atom   18 type  2   force =    -0.17465062   -0.61906220  -38.57683740
     atom   19 type  1   force =     2.69289355   -2.47040679    0.67693065
     atom   20 type  2   force =     0.21725864   -0.18946608  -38.47253890
     atom   21 type  1   force =    -0.16370452   -0.17831046    1.00092677
     atom   22 type  2   force =     0.42176719   -1.78251396   38.43755612
     atom   23 type  2   force =    -0.09699316    0.64028333  -38.29144654
     atom   24 type  1   force =    -0.14545735    1.24009199    5.48233797
     atom   25 type  2   force =     0.75677053    0.25804142   39.25562636
     atom   26 type  2   force =    -0.26753853    0.05753366  -37.36241839
     atom   27 type  1   force =     0.07079220    0.51242381   -2.26373207
     atom   28 type  2   force =     0.19931470    1.17801534   38.17593046
     atom   29 type  2   force =    -0.23339139   -0.38594134  -37.30286344
     atom   30 type  1   force =    -0.28773156   -0.94250918   -0.02969521
     atom   31 type  2   force =     1.23972484   -0.04101503   37.34173863
     atom   32 type  2   force =    -0.47519256    0.00043552  -38.62263656
     atom   33 type  1   force =     0.87318770   -0.97525980    2.01945175
     atom   34 type  2   force =     0.33504869   -1.57782804   39.34515880
     atom   35 type  2   force =    -0.27717262    0.44081130  -37.83238980
     atom   36 type  3   force =    -1.44186854    0.75417787    8.66261268
     The local contribution  to forces
     atom    1 type  1   force =    -0.01726255   -0.53987250   -4.68828411
     atom    2 type  2   force =    -0.92302826    0.37128471  -37.80362241
     atom    3 type  2   force =     0.12969024    0.01565648   35.96893452
     atom    4 type  1   force =    -0.13953674   -0.87977248   -0.53117619
     atom    5 type  2   force =     1.08292551   -1.84137262  -38.43906954
     atom    6 type  2   force =    -0.32348999    0.44580855   37.85059173
     atom    7 type  1   force =     2.68605184    2.84894475   -2.54396428
     atom    8 type  2   force =     0.96588023   -0.05801802  -37.14164870
     atom    9 type  2   force =    -0.34390608    0.04093026   37.76097879
     atom   10 type  1   force =     0.91412294    0.75174626   -5.31029375
     atom   11 type  2   force =     0.61380663    1.82052346  -38.87201022
     atom   12 type  2   force =    -0.42546937   -0.62528830   37.65568640
     atom   13 type  1   force =    -0.34653362   -1.04357193   -2.74451540
     atom   14 type  2   force =     0.38049123    0.09164707  -38.15512737
     atom   15 type  2   force =    -0.10299098    0.07966116   36.63198531
     atom   16 type  1   force =     0.12474388   -4.16391405   -0.39256509
     atom   17 type  2   force =    -0.75942569   -1.54495959  -37.69631438
     atom   18 type  2   force =     0.17568442    0.61747517   38.33835988
     atom   19 type  1   force =    -2.71819906    2.45988752   -0.66734077
     atom   20 type  2   force =    -0.21327961    0.20634479   38.23001457
     atom   21 type  1   force =     0.16464530    0.16721700   -1.00847378
     atom   22 type  2   force =    -0.41471201    1.77669339  -38.20121988
     atom   23 type  2   force =     0.09167720   -0.62726211   38.05306524
     atom   24 type  1   force =     0.13829961   -1.23825827   -5.48729714
     atom   25 type  2   force =    -0.75084147   -0.24592163  -39.01511645
     atom   26 type  2   force =     0.25845371   -0.04846138   37.11373679
     atom   27 type  1   force =    -0.07609015   -0.53374882    2.26674362
     atom   28 type  2   force =    -0.18963148   -1.14757042  -37.93060748
     atom   29 type  2   force =     0.22639331    0.38848246   37.05291715
     atom   30 type  1   force =     0.27785221    0.94416612    0.01778176
     atom   31 type  2   force =    -1.22902492    0.04077002  -37.09141429
     atom   32 type  2   force =     0.47217934    0.01683370   38.37971185
     atom   33 type  1   force =    -0.86532331    0.97368164   -2.03416381
     atom   34 type  2   force =    -0.33149713    1.57002423  -39.10629473
     atom   35 type  2   force =     0.27382104   -0.42377328   37.59582660
     atom   36 type  3   force =     1.10798858   -0.58722085   -8.36242569
     The core correction contribution to forces
     atom    1 type  1   force =     0.00000000    0.00000000    0.00000000
     atom    2 type  2   force =     0.00310847   -0.00216452    0.01278128
     atom    3 type  2   force =     0.00067052    0.00003434   -0.02122276
     atom    4 type  1   force =     0.00000000    0.00000000    0.00000000
     atom    5 type  2   force =    -0.00086482    0.00221674    0.01952533
     atom    6 type  2   force =     0.00017224   -0.00080983   -0.02086552
     atom    7 type  1   force =     0.00000000    0.00000000    0.00000000
     atom    8 type  2   force =    -0.00021941    0.00057635    0.02028224
     atom    9 type  2   force =    -0.00033276    0.00069128   -0.02098050
     atom   10 type  1   force =     0.00000000    0.00000000    0.00000000
     atom   11 type  2   force =    -0.00081283   -0.00106008    0.02044362
     atom   12 type  2   force =     0.00071003    0.00120706   -0.02082624
     atom   13 type  1   force =     0.00000000    0.00000000    0.00000000
     atom   14 type  2   force =    -0.00094238   -0.00033964    0.01951766
     atom   15 type  2   force =     0.00072351    0.00017794   -0.02064068
     atom   16 type  1   force =     0.00000000    0.00000000    0.00000000
     atom   17 type  2   force =    -0.00000678    0.00167266    0.02029589
     atom   18 type  2   force =     0.00021556   -0.00033240   -0.02098595
     atom   19 type  1   force =     0.00000000    0.00000000    0.00000000
     atom   20 type  2   force =     0.00010660    0.00081946   -0.02109289
     atom   21 type  1   force =     0.00000000    0.00000000    0.00000000
     atom   22 type  2   force =     0.00040859   -0.00059948    0.02039237
     atom   23 type  2   force =    -0.00050294    0.00101123   -0.02088125
     atom   24 type  1   force =     0.00000000    0.00000000    0.00000000
     atom   25 type  2   force =    -0.00024282   -0.00043748    0.02030930
     atom   26 type  2   force =    -0.00012032    0.00051605   -0.02093669
     atom   27 type  1   force =     0.00000000    0.00000000    0.00000000
     atom   28 type  2   force =     0.00045394    0.00220785    0.02067901
     atom   29 type  2   force =    -0.00069805   -0.00017930   -0.02079104
     atom   30 type  1   force =     0.00000000    0.00000000    0.00000000
     atom   31 type  2   force =     0.00058174    0.00013473    0.02046817
     atom   32 type  2   force =     0.00015172    0.00072655   -0.02086972
     atom   33 type  1   force =     0.00000000    0.00000000    0.00000000
     atom   34 type  2   force =     0.00027467    0.00110903    0.02089449
     atom   35 type  2   force =     0.00001754    0.00099548   -0.02114455
     atom   36 type  3   force =     0.00000000    0.00000000    0.00000000
     The Hubbard contrib.    to forces
     atom    1 type  1   force =     0.00000000    0.00000000    0.00000000
     atom    2 type  2   force =     0.00000000    0.00000000    0.00000000
     atom    3 type  2   force =     0.00000000    0.00000000    0.00000000
     atom    4 type  1   force =     0.00000000    0.00000000    0.00000000
     atom    5 type  2   force =     0.00000000    0.00000000    0.00000000
     atom    6 type  2   force =     0.00000000    0.00000000    0.00000000
     atom    7 type  1   force =     0.00000000    0.00000000    0.00000000
     atom    8 type  2   force =     0.00000000    0.00000000    0.00000000
     atom    9 type  2   force =     0.00000000    0.00000000    0.00000000
     atom   10 type  1   force =     0.00000000    0.00000000    0.00000000
     atom   11 type  2   force =     0.00000000    0.00000000    0.00000000
     atom   12 type  2   force =     0.00000000    0.00000000    0.00000000
     atom   13 type  1   force =     0.00000000    0.00000000    0.00000000
     atom   14 type  2   force =     0.00000000    0.00000000    0.00000000
     atom   15 type  2   force =     0.00000000    0.00000000    0.00000000
     atom   16 type  1   force =     0.00000000    0.00000000    0.00000000
     atom   17 type  2   force =     0.00000000    0.00000000    0.00000000
     atom   18 type  2   force =     0.00000000    0.00000000    0.00000000
     atom   19 type  1   force =     0.00000000    0.00000000    0.00000000
     atom   20 type  2   force =     0.00000000    0.00000000    0.00000000
     atom   21 type  1   force =     0.00000000    0.00000000    0.00000000
     atom   22 type  2   force =     0.00000000    0.00000000    0.00000000
     atom   23 type  2   force =     0.00000000    0.00000000    0.00000000
     atom   24 type  1   force =     0.00000000    0.00000000    0.00000000
     atom   25 type  2   force =     0.00000000    0.00000000    0.00000000
     atom   26 type  2   force =     0.00000000    0.00000000    0.00000000
     atom   27 type  1   force =     0.00000000    0.00000000    0.00000000
     atom   28 type  2   force =     0.00000000    0.00000000    0.00000000
     atom   29 type  2   force =     0.00000000    0.00000000    0.00000000
     atom   30 type  1   force =     0.00000000    0.00000000    0.00000000
     atom   31 type  2   force =     0.00000000    0.00000000    0.00000000
     atom   32 type  2   force =     0.00000000    0.00000000    0.00000000
     atom   33 type  1   force =     0.00000000    0.00000000    0.00000000
     atom   34 type  2   force =     0.00000000    0.00000000    0.00000000
     atom   35 type  2   force =     0.00000000    0.00000000    0.00000000
     atom   36 type  3   force =     0.00000000    0.00000000    0.00000000
     The SCF correction term to forces
     atom    1 type  1   force =     0.00002407   -0.00002580   -0.00090951
     atom    2 type  2   force =    -0.00009248    0.00003695   -0.00058356
     atom    3 type  2   force =     0.00000580    0.00002177   -0.00012840
     atom    4 type  1   force =    -0.00002758   -0.00007913   -0.00090067
     atom    5 type  2   force =     0.00002754   -0.00004434   -0.00055066
     atom    6 type  2   force =     0.00001230   -0.00002703   -0.00011980
     atom    7 type  1   force =    -0.00002290    0.00007586   -0.00096111
     atom    8 type  2   force =    -0.00002544   -0.00001641   -0.00057498
     atom    9 type  2   force =    -0.00003673   -0.00000360   -0.00011173
     atom   10 type  1   force =    -0.00001967   -0.00000290   -0.00099505
     atom   11 type  2   force =    -0.00002234    0.00000929   -0.00056301
     atom   12 type  2   force =    -0.00001273   -0.00001851   -0.00010562
     atom   13 type  1   force =    -0.00000882   -0.00005338   -0.00093179
     atom   14 type  2   force =     0.00001148    0.00001261   -0.00054417
     atom   15 type  2   force =     0.00000027    0.00002311   -0.00013719
     atom   16 type  1   force =     0.00001714   -0.00008205   -0.00096298
     atom   17 type  2   force =    -0.00001157   -0.00004453   -0.00055964
     atom   18 type  2   force =    -0.00001166   -0.00001641   -0.00013747
     atom   19 type  1   force =    -0.00002005    0.00010677   -0.00098556
     atom   20 type  2   force =    -0.00000848    0.00003618   -0.00011088
     atom   21 type  1   force =    -0.00003426   -0.00003587   -0.00088197
     atom   22 type  2   force =     0.00001296    0.00002682   -0.00060119
     atom   23 type  2   force =    -0.00000985   -0.00000926   -0.00010236
     atom   24 type  1   force =     0.00003224    0.00000697   -0.00104637
     atom   25 type  2   force =     0.00003146    0.00000467   -0.00058202
     atom   26 type  2   force =     0.00000366   -0.00000113   -0.00013063
     atom   27 type  1   force =     0.00000559   -0.00004570   -0.00090304
     atom   28 type  2   force =    -0.00000856   -0.00001681   -0.00057961
     atom   29 type  2   force =     0.00000417   -0.00001855   -0.00011717
     atom   30 type  1   force =     0.00004142    0.00004249   -0.00093153
     atom   31 type  2   force =     0.00001077    0.00000329   -0.00060539
     atom   32 type  2   force =     0.00003818    0.00000977   -0.00011379
     atom   33 type  1   force =     0.00005197    0.00000647   -0.00095581
     atom   34 type  2   force =     0.00001027    0.00002682   -0.00059808
     atom   35 type  2   force =     0.00002468    0.00002513   -0.00010844
     atom   36 type  3   force =    -0.00001919    0.00000651   -0.00007003

     Total force =     0.519824     Total SCF correction =     0.003834

     BFGS Geometry Optimization
     Energy error            =      0.0E+00 Ry
     Gradient error          =      2.6E-01 Ry/Bohr

     number of scf cycles    =   1
     number of bfgs steps    =   0

     energy             new  =   -2205.4774093719 Ry

     new trust radius        =       0.3688392319 bohr
     new conv_thr            =       0.0000010000 Ry


ATOMIC_POSITIONS (angstrom)
Mo            6.5691428053        1.7874102519        2.8035447179
S             8.3159521312        0.7408233691        4.3341470856
S             8.1861303226        0.8161530615        1.2762011757
Mo            8.1013617411        4.4927258903        2.7162919172
S             6.4989293051        3.7208484033        4.3443117921
S             6.5549216352        3.5155307873        1.1223232027
Mo            6.4936826639        7.2179274113        2.6657862365
S             8.0822618818        6.3408620592        4.2524399169
S             8.0879513660        6.3072871323        1.0900827308
Mo            8.1457274868        9.8978545766        2.8274483644
S             6.4962705336        8.9387116860        4.3811905396
S             6.6187506232        9.0500620263        1.1438419937
Mo            3.4238748625        1.7510774569        2.7743266048
S             4.9763237757        0.8166386981        4.3555987011
S             5.0522512584        0.8475025488        1.2221722884
Mo            4.9771820474        4.5156028220        2.6349577019
S             3.4302545355        3.6724620542        4.2811420080
S             3.4355662845        3.5446684262        1.0655736821
Mo            3.4546281096        7.2091201409        2.6287495213
S             4.9854062845        6.3246999549        1.0373993560
Mo            5.0122954969        9.9038641636        2.7413958094
S             3.4688757483        8.9427329186        4.3251241842
S             3.4085178001        9.0661034137        1.1006469183
Mo            0.2971104818        1.7595342677        2.8359529047
S             1.8621129693        0.8019124262        4.4016109752
S             1.8546382493        0.8544250314        1.2066519877
Mo            1.8593239448        4.4936630419        2.6654105153
S             0.2745823724        3.6560999476        4.3345437309
S             0.2321262166        3.5259647218        1.1703909351
Mo            0.2679714750        7.2242553523        2.6988140704
S             1.9034166501        6.3126142635        4.2314973682
S             1.8567668927        6.3135658996        1.0481122182
Mo            1.8497453227        9.9389959749        2.7687396755
S             0.2997733723        9.0648652503        4.4083404824
S             0.2730108426        9.0466515773        1.1579363422
H             7.2207673011        1.2820516251        5.2380499223



     Writing config-only to output data dir ./MoS2-V-O.save/
     NEW-OLD atomic charge density approx. for the potential

     negative rho (up, down):  1.515E-04 0.000E+00

     total cpu time spent up to now is       97.2 secs

     Self-consistent Calculation

     iteration #  1     ecut=    80.00 Ry     beta= 0.70
     Davidson diagonalization with overlap
     c_bands:  2 eigenvalues not converged
     ethr =  1.00E-06,  avg # of iterations = 20.0

     negative rho (up, down):  3.102E-04 0.000E+00

     total cpu time spent up to now is      112.5 secs

     total energy              =   -2205.52610946 Ry
     estimated scf accuracy    <       0.03982310 Ry

     iteration #  2     ecut=    80.00 Ry     beta= 0.70
     Davidson diagonalization with overlap
     ethr =  1.30E-05,  avg # of iterations =  3.0

     negative rho (up, down):  6.655E-04 0.000E+00

     total cpu time spent up to now is      127.8 secs

     total energy              =   -2205.52697907 Ry
     estimated scf accuracy    <       0.00589251 Ry

     iteration #  3     ecut=    80.00 Ry     beta= 0.70
     Davidson diagonalization with overlap
     ethr =  1.92E-06,  avg # of iterations = 10.0

     negative rho (up, down):  8.433E-04 0.000E+00

     total cpu time spent up to now is      146.7 secs

     total energy              =   -2205.52769701 Ry
     estimated scf accuracy    <       0.00059590 Ry

     iteration #  4     ecut=    80.00 Ry     beta= 0.70
     Davidson diagonalization with overlap
     ethr =  1.94E-07,  avg # of iterations =  4.0

     negative rho (up, down):  9.476E-04 0.000E+00

     total cpu time spent up to now is      166.7 secs

     total energy              =   -2205.52777353 Ry
     estimated scf accuracy    <       0.00011938 Ry

     iteration #  5     ecut=    80.00 Ry     beta= 0.70
     Davidson diagonalization with overlap
     ethr =  3.89E-08,  avg # of iterations =  5.0

     negative rho (up, down):  9.928E-04 0.000E+00

     total cpu time spent up to now is      179.3 secs

     total energy              =   -2205.52778003 Ry
     estimated scf accuracy    <       0.00002835 Ry

     iteration #  6     ecut=    80.00 Ry     beta= 0.70
     Davidson diagonalization with overlap
     ethr =  9.23E-09,  avg # of iterations =  5.0

     negative rho (up, down):  8.899E-04 0.000E+00

     total cpu time spent up to now is      191.3 secs

     total energy              =   -2205.52778518 Ry
     estimated scf accuracy    <       0.00000541 Ry

     iteration #  7     ecut=    80.00 Ry     beta= 0.70
     Davidson diagonalization with overlap
     ethr =  1.76E-09,  avg # of iterations =  4.0

     negative rho (up, down):  7.242E-04 0.000E+00

     total cpu time spent up to now is      200.2 secs

     total energy              =   -2205.52778612 Ry
     estimated scf accuracy    <       0.00000208 Ry

     iteration #  8     ecut=    80.00 Ry     beta= 0.70
     Davidson diagonalization with overlap
     ethr =  6.76E-10,  avg # of iterations =  5.0

     negative rho (up, down):  1.372E-04 0.000E+00

     total cpu time spent up to now is      202.3 secs

     End of self-consistent calculation

          k = 0.0000 0.0000 0.0000 (105382 PWs)   bands (ev):

   -62.8796 -62.8467 -62.8322 -62.8221 -62.8204 -62.8124 -62.8092 -62.7997
   -62.7405 -62.6241 -62.5867 -62.5735 -37.2144 -37.1560 -37.1269 -37.1156
   -37.1040 -37.0959 -37.0898 -37.0682 -37.0396 -37.0330 -37.0287 -37.0090
   -37.0052 -36.9984 -36.9951 -36.9889 -36.9821 -36.9747 -36.9707 -36.9659
   -36.9318 -36.9019 -36.8865 -36.8652 -36.8524 -36.8288 -36.8235 -36.8180
   -36.7978 -36.7809 -36.7633 -36.7550 -36.7454 -36.7099 -36.5880 -36.5628
   -16.2537 -15.5993 -15.1488 -15.0317 -14.9186 -14.8276 -14.6474 -14.4572
   -14.4221 -14.3928 -14.3684 -14.3402 -14.3178 -14.2444 -14.1305 -14.1190
   -14.0679 -14.0586 -13.9944 -13.9129 -13.7969 -13.7710 -13.7543  -8.8184
    -7.6715  -7.5165  -7.3146  -7.2755  -7.2371  -7.1957  -7.1590  -6.9403
    -6.8173  -6.7596  -6.7411  -6.7147  -6.6440  -6.4693  -6.4570  -6.4165
    -6.3753  -6.2371  -6.1233  -5.9537  -5.9253  -5.8445  -5.8083  -5.7973
    -5.7491  -5.6993  -5.6501  -5.6315  -5.5764  -5.5471  -5.5328  -5.4709
    -5.4043  -5.3054  -5.2133  -5.1325  -5.0929  -4.9853  -4.9730  -4.9256
    -4.9011  -4.7814  -4.6264  -4.4863  -4.4209  -4.2850  -4.2334  -4.2149
    -4.1844  -4.0361  -3.9735  -3.8376  -3.8238  -3.7725  -3.7181  -3.6460
    -3.6384  -3.5707  -3.5434  -3.4870  -3.4572  -3.4216  -3.3964  -3.3663
    -3.3272  -3.1848  -3.1089  -2.8955  -2.8577  -2.7932  -2.7620  -2.6985
    -2.6813  -2.6545  -2.6365  -2.5604  -2.4803  -2.2062  -1.9879  -1.9617
    -1.8534  -0.7624  -0.6679  -0.4235  -0.1553  -0.1055  -0.0433   0.0215
     0.0812   0.1463   0.1860   0.2506   0.2918   0.3167   0.3355   0.5070
     0.5560   0.5907   0.6028   0.6171   0.6768   0.7100   0.7492   0.7621
     0.8013   0.8576   0.9033   0.9240   0.9934   1.0232   1.0885   1.3299
     1.4142

     the Fermi energy is    -0.7882 ev

!    total energy              =   -2205.52778635 Ry
     estimated scf accuracy    <       0.00000077 Ry
     smearing contrib. (-TS)   =      -0.00802824 Ry
     internal energy E=F+TS    =   -2205.51975812 Ry

     The total energy is F=E-TS. E is the sum of the following terms:
     one-electron contribution =  -18068.73172355 Ry
     hartree contribution      =    9021.41055782 Ry
     xc contribution           =    -385.38870162 Ry
     ewald contribution        =    7227.19010923 Ry

     convergence has been achieved in   8 iterations

     negative rho (up, down):  1.372E-04 0.000E+00

     Forces acting on atoms (cartesian axes, Ry/au):

     atom    1 type  1   force =     0.00673552   -0.00877891   -0.00763134
     atom    2 type  2   force =    -0.09193506    0.04134585    0.11011560
     atom    3 type  2   force =    -0.01293069    0.00862024   -0.01592710
     atom    4 type  1   force =     0.00514247   -0.00062111    0.00075351
     atom    5 type  2   force =    -0.00008338   -0.00473671   -0.00549192
     atom    6 type  2   force =     0.00132038    0.00903171   -0.00137973
     atom    7 type  1   force =     0.00669805   -0.00307531   -0.00474399
     atom    8 type  2   force =     0.00121364   -0.00479138    0.01203668
     atom    9 type  2   force =     0.01188556    0.00412127    0.00750382
     atom   10 type  1   force =    -0.00818240   -0.02532766   -0.03323094
     atom   11 type  2   force =     0.00153712   -0.00425621   -0.00466689
     atom   12 type  2   force =    -0.00373818    0.00082816   -0.00202711
     atom   13 type  1   force =     0.00449949    0.00474676   -0.00392615
     atom   14 type  2   force =     0.00603214    0.00008548    0.00773473
     atom   15 type  2   force =    -0.01164128    0.00182527   -0.01088290
     atom   16 type  1   force =    -0.00298347    0.00523723    0.00231022
     atom   17 type  2   force =     0.00373850    0.00106549    0.00444812
     atom   18 type  2   force =    -0.00335834   -0.00458633    0.01017585
     atom   19 type  1   force =    -0.00000092   -0.01182202    0.00015946
     atom   20 type  2   force =     0.00342479   -0.00425323   -0.00204175
     atom   21 type  1   force =    -0.00247391    0.00492203    0.00192329
     atom   22 type  2   force =    -0.00285798   -0.00238808   -0.00252830
     atom   23 type  2   force =     0.00080118   -0.00018861    0.00528929
     atom   24 type  1   force =     0.02750025    0.02310134   -0.03794749
     atom   25 type  2   force =     0.01845022    0.01477355    0.00133186
     atom   26 type  2   force =    -0.00630296   -0.00075625   -0.00641949
     atom   27 type  1   force =    -0.00166122    0.00114966    0.00724294
     atom   28 type  2   force =     0.00248329    0.00033175   -0.00248693
     atom   29 type  2   force =     0.00190954    0.00308105   -0.00801384
     atom   30 type  1   force =    -0.00247086    0.00259012    0.00220637
     atom   31 type  2   force =     0.00038431    0.00048123    0.01212072
     atom   32 type  2   force =    -0.00859014    0.00443842    0.00554577
     atom   33 type  1   force =     0.00617561    0.00003272   -0.00130666
     atom   34 type  2   force =     0.00410947   -0.03905352   -0.01335098
     atom   35 type  2   force =    -0.00430047    0.00663100    0.00572767
     atom   36 type  3   force =     0.04946971   -0.02380501   -0.03262239
     The non-local contrib.  to forces
     atom    1 type  1   force =    -0.01022934    0.03131423   -0.01009306
     atom    2 type  2   force =    -0.30771686    0.16411495    0.03692184
     atom    3 type  2   force =    -0.01301964   -0.00411888    0.26904896
     atom    4 type  1   force =    -0.00187643    0.01351319    0.00391159
     atom    5 type  2   force =     0.01257920   -0.03048268   -0.24258901
     atom    6 type  2   force =    -0.00234456    0.00515603    0.26245842
     atom    7 type  1   force =    -0.03014410   -0.01135502   -0.01755726
     atom    8 type  2   force =     0.00510098   -0.00463485   -0.25808985
     atom    9 type  2   force =     0.00862014   -0.01164209    0.27549164
     atom   10 type  1   force =     0.00168079   -0.00250639   -0.00959664
     atom   11 type  2   force =     0.01397409    0.01271897   -0.25914804
     atom   12 type  2   force =    -0.00992574   -0.01602019    0.25635828
     atom   13 type  1   force =     0.00038936    0.02347313   -0.00857904
     atom   14 type  2   force =     0.01810981   -0.00368077   -0.24320943
     atom   15 type  2   force =    -0.01158887   -0.00238858    0.26066370
     atom   16 type  1   force =     0.00274955    0.04728682   -0.02324154
     atom   17 type  2   force =     0.00210258   -0.02959733   -0.25122105
     atom   18 type  2   force =    -0.00482088   -0.00271713    0.27193045
     atom   19 type  1   force =     0.02753113   -0.00125417   -0.01353683
     atom   20 type  2   force =    -0.00001409   -0.02103192    0.26315953
     atom   21 type  1   force =    -0.00016258    0.01668440    0.00344491
     atom   22 type  2   force =    -0.01009365    0.00255033   -0.25963091
     atom   23 type  2   force =     0.00706104   -0.01414704    0.26720856
     atom   24 type  1   force =     0.00267265    0.02068852   -0.01730906
     atom   25 type  2   force =     0.01230810    0.00076562   -0.26055116
     atom   26 type  2   force =     0.00138992   -0.01030032    0.26467258
     atom   27 type  1   force =     0.00106266    0.01563842    0.00605658
     atom   28 type  2   force =    -0.00552980   -0.02936900   -0.26910827
     atom   29 type  2   force =     0.00750283   -0.00028933    0.26294318
     atom   30 type  1   force =     0.00250276    0.01594198    0.00800833
     atom   31 type  2   force =    -0.01099320    0.00040827   -0.25715050
     atom   32 type  2   force =    -0.00539661   -0.01249472    0.27043911
     atom   33 type  1   force =     0.00454194   -0.00075683    0.00726295
     atom   34 type  2   force =     0.00050551   -0.03169284   -0.27653964
     atom   35 type  2   force =    -0.00203543   -0.01039663    0.26764757
     atom   36 type  3   force =     0.02869298   -0.01422416   -0.02562845
     The ionic contribution  to forces
     atom    1 type  1   force =     0.21010785    0.41059045    4.73355017
     atom    2 type  2   force =    -0.31660416    0.17635777   37.75946645
     atom    3 type  2   force =    -0.08963649   -0.00609575  -36.28483224
     atom    4 type  1   force =    -0.08279137    0.88986172    0.73338335
     atom    5 type  2   force =    -0.98610785    1.66597861   38.65032786
     atom    6 type  2   force =     0.29084878   -0.32632814  -38.04376013
     atom    7 type  1   force =    -2.75739764   -2.96823557    2.44220780
     atom    8 type  2   force =    -1.01832035    0.01266981   37.52500030
     atom    9 type  2   force =     0.32211108   -0.09694129  -37.95403031
     atom   10 type  1   force =    -0.98988694   -0.96803369    4.68272300
     atom   11 type  2   force =    -0.65838290   -1.74243818   39.21349609
     atom   12 type  2   force =     0.28859286    0.57793024  -37.94645073
     atom   13 type  1   force =     0.43325508    0.86849254    2.85512810
     atom   14 type  2   force =    -0.14055316   -0.06351229   38.49179288
     atom   15 type  2   force =     0.02928449   -0.11810039  -36.93134536
     atom   16 type  1   force =     0.04777859    4.10953907    0.67822318
     atom   17 type  2   force =     0.81411600    1.54880352   38.03864525
     atom   18 type  2   force =    -0.15906945   -0.54392211  -38.52739210
     atom   19 type  1   force =     2.71709473   -2.36397879    0.69862583
     atom   20 type  2   force =     0.20519626   -0.19540639  -38.48319868
     atom   21 type  1   force =    -0.23437875   -0.15268865    1.25540951
     atom   22 type  2   force =     0.47657395   -1.77269169   38.45205545
     atom   23 type  2   force =    -0.07534771    0.57980019  -38.23067889
     atom   24 type  1   force =     0.11343427    1.42349389    4.78666968
     atom   25 type  2   force =     0.75679568    0.20802530   39.29925591
     atom   26 type  2   force =    -0.19330078    0.00798199  -37.36519584
     atom   27 type  1   force =     0.12833833    0.73318410   -1.93378825
     atom   28 type  2   force =     0.07040318    1.10704663   38.32206995
     atom   29 type  2   force =    -0.21127135   -0.25985014  -37.41242387
     atom   30 type  1   force =    -0.16027594   -1.18001143   -0.00964631
     atom   31 type  2   force =     1.22188310   -0.01111105   37.43569377
     atom   32 type  2   force =    -0.44901555   -0.03465725  -38.56533787
     atom   33 type  1   force =     0.86657074   -0.86188565    2.07422690
     atom   34 type  2   force =     0.30426996   -1.46387793   39.32191621
     atom   35 type  2   force =    -0.18230887    0.45866604  -37.79474467
     atom   36 type  3   force =    -0.59200567    0.35134448    8.03295764
     The local contribution  to forces
     atom    1 type  1   force =    -0.19326647   -0.45059821   -4.73058494
     atom    2 type  2   force =     0.51482396   -0.28970356  -37.68893571
     atom    3 type  2   force =     0.08910813    0.01870566   36.02067986
     atom    4 type  1   force =     0.08973631   -0.90376631   -0.73588369
     atom    5 type  2   force =     0.97442657   -1.64207485  -38.43225458
     atom    6 type  2   force =    -0.28742680    0.33093709   37.80068778
     atom    7 type  1   force =     2.79390593    2.97646517   -2.42866192
     atom    8 type  2   force =     1.01464787   -0.01335641  -37.27484203
     atom    9 type  2   force =    -0.31858509    0.11203223   37.70696643
     atom   10 type  1   force =     0.98015932    0.94505381   -4.70565967
     atom   11 type  2   force =     0.64663558    1.72654006  -38.97899129
     atom   12 type  2   force =    -0.28330891   -0.56231552   37.70864924
     atom   13 type  1   force =    -0.42920741   -0.88727797   -2.84973172
     atom   14 type  2   force =     0.12959581    0.06753591  -38.25970603
     atom   15 type  2   force =    -0.03000096    0.12213538   36.68035337
     atom   16 type  1   force =    -0.05367270   -4.15126485   -0.65203803
     atom   17 type  2   force =    -0.81250777   -1.51971297  -37.80276163
     atom   18 type  2   force =     0.16038698    0.54249832   38.28657195
     atom   19 type  1   force =    -2.74458652    2.35341825   -0.68423737
     atom   20 type  2   force =    -0.20203199    0.21146914   38.23916118
     atom   21 type  1   force =     0.23179633    0.14054259   -1.25616669
     atom   22 type  2   force =    -0.46968913    1.76814735  -38.21508791
     atom   23 type  2   force =     0.06960705   -0.56710285   37.98973554
     atom   24 type  1   force =    -0.08837541   -1.42121141   -4.80663969
     atom   25 type  2   force =    -0.75046331   -0.19385126  -39.05735955
     atom   26 type  2   force =     0.18589909    0.00098577   37.11500656
     atom   27 type  1   force =    -0.13083307   -0.74733149    1.93555169
     atom   28 type  2   force =    -0.06277886   -1.07945545  -38.07559636
     atom   29 type  2   force =     0.20627230    0.26357085   37.16206646
     atom   30 type  1   force =     0.15557561    1.16659577    0.00450010
     atom   31 type  2   force =    -1.21097678    0.01113081  -37.18664933
     atom   32 type  2   force =     0.44594308    0.05097238   38.32137554
     atom   33 type  1   force =    -0.86483201    0.86250615   -2.08203586
     atom   34 type  2   force =    -0.30094399    1.45567025  -39.07937863
     atom   35 type  2   force =     0.18011755   -0.44261944   37.55382658
     atom   36 type  3   force =     0.61276357   -0.36092441   -8.03981390
     The core correction contribution to forces
     atom    1 type  1   force =     0.00000000    0.00000000    0.00000000
     atom    2 type  2   force =     0.01775304   -0.00957834    0.00316098
     atom    3 type  2   force =     0.00066480    0.00006098   -0.02089200
     atom    4 type  1   force =     0.00000000    0.00000000    0.00000000
     atom    5 type  2   force =    -0.00104172    0.00201020    0.01956175
     atom    6 type  2   force =     0.00021030   -0.00063668   -0.02085371
     atom    7 type  1   force =     0.00000000    0.00000000    0.00000000
     atom    8 type  2   force =    -0.00022788    0.00052536    0.02045792
     atom    9 type  2   force =    -0.00025094    0.00065573   -0.02097005
     atom   10 type  1   force =     0.00000000    0.00000000    0.00000000
     atom   11 type  2   force =    -0.00075606   -0.00113795    0.02049808
     atom   12 type  2   force =     0.00086874    0.00119652   -0.02061977
     atom   13 type  1   force =     0.00000000    0.00000000    0.00000000
     atom   14 type  2   force =    -0.00131253   -0.00033954    0.01941000
     atom   15 type  2   force =     0.00057375    0.00014203   -0.02062112
     atom   16 type  1   force =     0.00000000    0.00000000    0.00000000
     atom   17 type  2   force =     0.00005025    0.00161194    0.02026650
     atom   18 type  2   force =     0.00015255   -0.00039065   -0.02098108
     atom   19 type  1   force =     0.00000000    0.00000000    0.00000000
     atom   20 type  2   force =     0.00011593    0.00076647   -0.02108375
     atom   21 type  1   force =     0.00000000    0.00000000    0.00000000
     atom   22 type  2   force =     0.00037081   -0.00053317    0.02049901
     atom   23 type  2   force =    -0.00052356    0.00107797   -0.02088334
     atom   24 type  1   force =     0.00000000    0.00000000    0.00000000
     atom   25 type  2   force =    -0.00015349   -0.00022215    0.02050902
     atom   26 type  2   force =    -0.00025893    0.00054626   -0.02091660
     atom   27 type  1   force =     0.00000000    0.00000000    0.00000000
     atom   28 type  2   force =     0.00041016    0.00216607    0.02069702
     atom   29 type  2   force =    -0.00056972   -0.00030220   -0.02067070
     atom   30 type  1   force =     0.00000000    0.00000000    0.00000000
     atom   31 type  2   force =     0.00062312    0.00014337    0.02056756
     atom   32 type  2   force =     0.00002119    0.00069204   -0.02085612
     atom   33 type  1   force =     0.00000000    0.00000000    0.00000000
     atom   34 type  2   force =     0.00031507    0.00084911    0.02114467
     atom   35 type  2   force =    -0.00003064    0.00094695   -0.02101122
     atom   36 type  3   force =     0.00000000    0.00000000    0.00000000
     The Hubbard contrib.    to forces
     atom    1 type  1   force =     0.00000000    0.00000000    0.00000000
     atom    2 type  2   force =     0.00000000    0.00000000    0.00000000
     atom    3 type  2   force =     0.00000000    0.00000000    0.00000000
     atom    4 type  1   force =     0.00000000    0.00000000    0.00000000
     atom    5 type  2   force =     0.00000000    0.00000000    0.00000000
     atom    6 type  2   force =     0.00000000    0.00000000    0.00000000
     atom    7 type  1   force =     0.00000000    0.00000000    0.00000000
     atom    8 type  2   force =     0.00000000    0.00000000    0.00000000
     atom    9 type  2   force =     0.00000000    0.00000000    0.00000000
     atom   10 type  1   force =     0.00000000    0.00000000    0.00000000
     atom   11 type  2   force =     0.00000000    0.00000000    0.00000000
     atom   12 type  2   force =     0.00000000    0.00000000    0.00000000
     atom   13 type  1   force =     0.00000000    0.00000000    0.00000000
     atom   14 type  2   force =     0.00000000    0.00000000    0.00000000
     atom   15 type  2   force =     0.00000000    0.00000000    0.00000000
     atom   16 type  1   force =     0.00000000    0.00000000    0.00000000
     atom   17 type  2   force =     0.00000000    0.00000000    0.00000000
     atom   18 type  2   force =     0.00000000    0.00000000    0.00000000
     atom   19 type  1   force =     0.00000000    0.00000000    0.00000000
     atom   20 type  2   force =     0.00000000    0.00000000    0.00000000
     atom   21 type  1   force =     0.00000000    0.00000000    0.00000000
     atom   22 type  2   force =     0.00000000    0.00000000    0.00000000
     atom   23 type  2   force =     0.00000000    0.00000000    0.00000000
     atom   24 type  1   force =     0.00000000    0.00000000    0.00000000
     atom   25 type  2   force =     0.00000000    0.00000000    0.00000000
     atom   26 type  2   force =     0.00000000    0.00000000    0.00000000
     atom   27 type  1   force =     0.00000000    0.00000000    0.00000000
     atom   28 type  2   force =     0.00000000    0.00000000    0.00000000
     atom   29 type  2   force =     0.00000000    0.00000000    0.00000000
     atom   30 type  1   force =     0.00000000    0.00000000    0.00000000
     atom   31 type  2   force =     0.00000000    0.00000000    0.00000000
     atom   32 type  2   force =     0.00000000    0.00000000    0.00000000
     atom   33 type  1   force =     0.00000000    0.00000000    0.00000000
     atom   34 type  2   force =     0.00000000    0.00000000    0.00000000
     atom   35 type  2   force =     0.00000000    0.00000000    0.00000000
     atom   36 type  3   force =     0.00000000    0.00000000    0.00000000
     The SCF correction term to forces
     atom    1 type  1   force =     0.00012201   -0.00008955   -0.00048158
     atom    2 type  2   force =    -0.00019253    0.00015087   -0.00047603
     atom    3 type  2   force =    -0.00004899    0.00006407    0.00009024
     atom    4 type  1   force =     0.00007248   -0.00023388   -0.00063581
     atom    5 type  2   force =     0.00005895   -0.00017215   -0.00051600
     atom    6 type  2   force =     0.00003118   -0.00010075    0.00010983
     atom    7 type  1   force =     0.00033238    0.00004595   -0.00071069
     atom    8 type  2   force =     0.00001153    0.00000056   -0.00046773
     atom    9 type  2   force =    -0.00001111    0.00001253    0.00006805
     atom   10 type  1   force =    -0.00013706    0.00015445   -0.00067571
     atom   11 type  2   force =     0.00006492    0.00005672   -0.00049980
     atom   12 type  2   force =     0.00003338    0.00003295    0.00005779
     atom   13 type  1   force =     0.00006097    0.00005490   -0.00072156
     atom   14 type  2   force =     0.00019072    0.00007800   -0.00053076
     atom   15 type  2   force =     0.00008882    0.00003267    0.00008843
     atom   16 type  1   force =     0.00015960   -0.00032797   -0.00061146
     atom   17 type  2   force =    -0.00002403   -0.00004382   -0.00045903
     atom   18 type  2   force =    -0.00000903   -0.00005893    0.00006856
     atom   19 type  1   force =    -0.00004175   -0.00001147   -0.00067024
     atom   20 type  2   force =     0.00015719   -0.00005470   -0.00005810
     atom   21 type  1   force =     0.00026961    0.00037954   -0.00074251
     atom   22 type  2   force =    -0.00002144    0.00013494   -0.00034202
     atom   23 type  2   force =     0.00000287    0.00017897   -0.00007065
     atom   24 type  1   force =    -0.00023274    0.00012618   -0.00064649
     atom   25 type  2   force =    -0.00003825    0.00005188   -0.00050044
     atom   26 type  2   force =    -0.00003373    0.00002589    0.00003573
     atom   27 type  1   force =    -0.00023062   -0.00034554   -0.00055515
     atom   28 type  2   force =    -0.00002287   -0.00006066   -0.00052735
     atom   29 type  2   force =    -0.00002601   -0.00005228    0.00009302
     atom   30 type  1   force =    -0.00027478    0.00005964   -0.00063382
     atom   31 type  2   force =    -0.00015341   -0.00009434   -0.00031886
     atom   32 type  2   force =    -0.00014374   -0.00007819   -0.00005297
     atom   33 type  1   force =    -0.00010655    0.00016489   -0.00073872
     atom   34 type  2   force =    -0.00003856   -0.00000626   -0.00047167
     atom   35 type  2   force =    -0.00004456    0.00002993    0.00003133
     atom   36 type  3   force =     0.00001734   -0.00000508   -0.00011576

     Total force =     0.189959     Total SCF correction =     0.002993
     Energy error            =      5.0E-02 Ry
     Gradient error          =      1.1E-01 Ry/Bohr

     number of scf cycles    =   2
     number of bfgs steps    =   1

     energy             old  =   -2205.4774093719 Ry
     energy             new  =   -2205.5277863523 Ry

     CASE: energy            _new < energy            _old

     new trust radius        =       0.1038026903 bohr
     new conv_thr            =       0.0000001101 Ry


ATOMIC_POSITIONS (angstrom)
Mo            6.5717501985        1.7836451998        2.7992985484
S             8.2835883000        0.7550699281        4.3761818912
S             8.1802634612        0.8200728858        1.2693229572
Mo            8.1038612207        4.4923460400        2.7165381955
S             6.4988454502        3.7187504639        4.3418529257
S             6.5555624243        3.5195710784        1.1217859230
Mo            6.4967227491        7.2165902038        2.6634617433
S             8.0828060029        6.3386695585        4.2580670268
S             8.0933689173        6.3091728349        1.0935906967
Mo            8.1415027428        9.8868353401        2.8124813315
S             6.4969806906        8.9366880843        4.3791050506
S             6.6171953044        9.0504819190        1.1431709854
Mo            3.4259037216        1.7533057451        2.7725458443
S             4.9789544682        0.8166602645        4.3591483238
S             5.0470094332        0.8483424195        1.2173080426
Mo            4.9757822902        4.5179567676        2.6360455075
S             3.4319684556        3.6729591387        4.2831103826
S             3.4340174446        3.5425362423        1.0702710560
Mo            3.4546654765        7.2037212918        2.6287225968
S             4.9869744973        6.3227753165        1.0365354140
Mo            5.0112415531        9.9060757104        2.7421175914
S             3.4675537883        8.9416638663        4.3240224659
S             3.4088639945        9.0660778023        1.1031291950
Mo            0.3088937785        1.7699829611        2.8190977833
S             1.8705588276        0.8086697855        4.4023468076
S             1.8516454877        0.8541023332        1.2037776627
Mo            1.8585478125        4.4940548225        2.6687575830
S             0.2757585709        3.6563253016        4.3333328772
S             0.2329850221        3.5272159726        1.1668916527
Mo            0.2667605643        7.2257353383        2.6996134103
S             1.9036386785        6.3128104866        4.2371147501
S             1.8528323212        6.3156183149        1.0506533868
Mo            1.8526461532        9.9389536125        2.7679749281
S             0.3017168927        9.0469647016        4.4023718440
S             0.2709907557        9.0496347190        1.1607513403
H             7.2352473397        1.2752321814        5.2302498549



     Writing config-only to output data dir ./MoS2-V-O.save/
     NEW-OLD atomic charge density approx. for the potential

     negative rho (up, down):  1.469E-04 0.000E+00

     total cpu time spent up to now is      205.7 secs

     Self-consistent Calculation

     iteration #  1     ecut=    80.00 Ry     beta= 0.70
     Davidson diagonalization with overlap
     ethr =  1.00E-06,  avg # of iterations =  8.0

     negative rho (up, down):  8.915E-05 0.000E+00

     total cpu time spent up to now is      219.3 secs

     total energy              =   -2205.54828063 Ry
     estimated scf accuracy    <       0.00286126 Ry

     iteration #  2     ecut=    80.00 Ry     beta= 0.70
     Davidson diagonalization with overlap
     ethr =  9.32E-07,  avg # of iterations =  3.0

     negative rho (up, down):  6.944E-05 0.000E+00

     total cpu time spent up to now is      232.2 secs

     total energy              =   -2205.54841960 Ry
     estimated scf accuracy    <       0.00044948 Ry

     iteration #  3     ecut=    80.00 Ry     beta= 0.70
     Davidson diagonalization with overlap
     ethr =  1.46E-07,  avg # of iterations =  5.0

     negative rho (up, down):  5.671E-05 0.000E+00

     total cpu time spent up to now is      254.0 secs

     total energy              =   -2205.54845463 Ry
     estimated scf accuracy    <       0.00011587 Ry

     iteration #  4     ecut=    80.00 Ry     beta= 0.70
     Davidson diagonalization with overlap
     ethr =  3.77E-08,  avg # of iterations =  3.0

     negative rho (up, down):  5.297E-05 0.000E+00

     total cpu time spent up to now is      270.4 secs

     total energy              =   -2205.54846904 Ry
     estimated scf accuracy    <       0.00001633 Ry

     iteration #  5     ecut=    80.00 Ry     beta= 0.70
     Davidson diagonalization with overlap
     ethr =  5.32E-09,  avg # of iterations = 12.0

     negative rho (up, down):  5.216E-05 0.000E+00

     total cpu time spent up to now is      283.8 secs

     total energy              =   -2205.54847179 Ry
     estimated scf accuracy    <       0.00000422 Ry

     iteration #  6     ecut=    80.00 Ry     beta= 0.70
     Davidson diagonalization with overlap
     ethr =  1.37E-09,  avg # of iterations =  3.0

     negative rho (up, down):  5.431E-05 0.000E+00

     total cpu time spent up to now is      291.7 secs

     total energy              =   -2205.54847220 Ry
     estimated scf accuracy    <       0.00000121 Ry

     iteration #  7     ecut=    80.00 Ry     beta= 0.70
     Davidson diagonalization with overlap
     ethr =  3.93E-10,  avg # of iterations =  5.0

     negative rho (up, down):  5.848E-05 0.000E+00

     total cpu time spent up to now is      301.7 secs

     total energy              =   -2205.54847229 Ry
     estimated scf accuracy    <       0.00000054 Ry

     iteration #  8     ecut=    80.00 Ry     beta= 0.70
     Davidson diagonalization with overlap
     ethr =  1.75E-10,  avg # of iterations =  2.0

     negative rho (up, down):  8.213E-05 0.000E+00

     total cpu time spent up to now is      313.6 secs

     total energy              =   -2205.54847221 Ry
     estimated scf accuracy    <       0.00000029 Ry

     iteration #  9     ecut=    80.00 Ry     beta= 0.70
     Davidson diagonalization with overlap
     ethr =  9.42E-11,  avg # of iterations =  4.0

     negative rho (up, down):  1.374E-04 0.000E+00

     total cpu time spent up to now is      315.7 secs

     End of self-consistent calculation

          k = 0.0000 0.0000 0.0000 (105382 PWs)   bands (ev):

   -62.8867 -62.8470 -62.8330 -62.8188 -62.8175 -62.8093 -62.8078 -62.7983
   -62.7336 -62.6283 -62.5853 -62.5716 -37.2028 -37.1516 -37.1291 -37.1103
   -37.1021 -37.0928 -37.0875 -37.0643 -37.0389 -37.0304 -37.0250 -37.0054
   -37.0011 -36.9953 -36.9933 -36.9871 -36.9802 -36.9740 -36.9683 -36.9632
   -36.9310 -36.8976 -36.8843 -36.8626 -36.8478 -36.8279 -36.8195 -36.8166
   -36.7968 -36.7826 -36.7660 -36.7513 -36.7404 -36.7130 -36.5918 -36.5592
   -16.2673 -15.6300 -15.1522 -15.0290 -14.9116 -14.8285 -14.6476 -14.4565
   -14.4157 -14.3934 -14.3668 -14.3412 -14.3160 -14.2412 -14.1291 -14.1237
   -14.0650 -14.0591 -13.9924 -13.9067 -13.8003 -13.7713 -13.7500  -8.9251
    -7.6484  -7.4749  -7.2896  -7.2631  -7.2311  -7.1894  -7.1597  -6.9495
    -6.8115  -6.7603  -6.7329  -6.6936  -6.6438  -6.4576  -6.4484  -6.4207
    -6.3735  -6.2274  -6.1308  -5.9315  -5.9184  -5.8489  -5.8055  -5.7901
    -5.7479  -5.6912  -5.6477  -5.6269  -5.5860  -5.5439  -5.5193  -5.4599
    -5.3935  -5.2961  -5.1912  -5.1249  -5.0977  -4.9802  -4.9726  -4.9230
    -4.9007  -4.7820  -4.6159  -4.4885  -4.4084  -4.2866  -4.2374  -4.2218
    -4.1841  -4.0517  -3.9779  -3.8409  -3.8118  -3.7802  -3.7186  -3.6450
    -3.6377  -3.5698  -3.5433  -3.4847  -3.4591  -3.4261  -3.3927  -3.3573
    -3.3207  -3.1867  -3.1155  -2.8749  -2.8560  -2.7732  -2.7633  -2.6918
    -2.6778  -2.6692  -2.6420  -2.5630  -2.4774  -2.2057  -1.9783  -1.9613
    -1.8646  -0.7721  -0.6634  -0.4117  -0.1356  -0.1108  -0.0459   0.0199
     0.0877   0.1379   0.1618   0.2564   0.2861   0.3287   0.3412   0.5145
     0.5766   0.5968   0.6110   0.6163   0.6746   0.7034   0.7615   0.7763
     0.7960   0.8735   0.8978   0.9193   0.9902   1.0259   1.0817   1.3422
     1.3967

     the Fermi energy is    -0.7936 ev

!    total energy              =   -2205.54847212 Ry
     estimated scf accuracy    <       0.00000004 Ry
     smearing contrib. (-TS)   =      -0.00776631 Ry
     internal energy E=F+TS    =   -2205.54070581 Ry

     The total energy is F=E-TS. E is the sum of the following terms:
     one-electron contribution =  -18062.49824887 Ry
     hartree contribution      =    9018.37883763 Ry
     xc contribution           =    -385.38029044 Ry
     ewald contribution        =    7223.95899587 Ry

     convergence has been achieved in   9 iterations

     negative rho (up, down):  1.374E-04 0.000E+00

     Forces acting on atoms (cartesian axes, Ry/au):

     atom    1 type  1   force =    -0.00066643   -0.00390291   -0.00810961
     atom    2 type  2   force =    -0.05437050    0.02631949    0.06659246
     atom    3 type  2   force =    -0.00836472    0.00651275   -0.01164179
     atom    4 type  1   force =     0.00560612   -0.00074495    0.00155665
     atom    5 type  2   force =     0.00013427   -0.00528927   -0.00623479
     atom    6 type  2   force =     0.00086740    0.00750922   -0.00087624
     atom    7 type  1   force =     0.00524065   -0.00318618   -0.00320154
     atom    8 type  2   force =     0.00105529   -0.00442531    0.00909384
     atom    9 type  2   force =     0.01057425    0.00324216    0.00567422
     atom   10 type  1   force =    -0.00437225   -0.00610176   -0.01070306
     atom   11 type  2   force =     0.00121635   -0.00495638   -0.00653097
     atom   12 type  2   force =    -0.00560880   -0.00100068   -0.00471527
     atom   13 type  1   force =     0.00465104    0.00209619   -0.00102809
     atom   14 type  2   force =     0.00524853    0.00151640    0.00314192
     atom   15 type  2   force =    -0.00896881    0.00144232   -0.00945318
     atom   16 type  1   force =    -0.00243876    0.00464262    0.00248832
     atom   17 type  2   force =     0.00337439    0.00117004    0.00428746
     atom   18 type  2   force =    -0.00258218   -0.00255728    0.00818882
     atom   19 type  1   force =    -0.00063172   -0.01080300    0.00128261
     atom   20 type  2   force =     0.00316145   -0.00352832   -0.00236606
     atom   21 type  1   force =    -0.00045229    0.00348028    0.00207641
     atom   22 type  2   force =    -0.00205776   -0.00238252   -0.00299816
     atom   23 type  2   force =     0.00123079   -0.00105469    0.00434805
     atom   24 type  1   force =     0.00537881    0.00699233   -0.01246811
     atom   25 type  2   force =     0.01309083    0.01333695   -0.00314237
     atom   26 type  2   force =    -0.00210911   -0.00048013   -0.00830630
     atom   27 type  1   force =    -0.00140714    0.00195667    0.00582161
     atom   28 type  2   force =     0.00296121    0.00029762   -0.00338379
     atom   29 type  2   force =     0.00340277    0.00593049   -0.00980869
     atom   30 type  1   force =    -0.00044414   -0.00104482    0.00364234
     atom   31 type  2   force =     0.00054940    0.00000944    0.00988910
     atom   32 type  2   force =    -0.00723390    0.00376937    0.00510423
     atom   33 type  1   force =     0.00155315    0.00191558    0.00225893
     atom   34 type  2   force =     0.00122393   -0.02982109   -0.01502756
     atom   35 type  2   force =    -0.00275767    0.00504769    0.00211268
     atom   36 type  3   force =     0.03394552   -0.01590829   -0.01756409
     The non-local contrib.  to forces
     atom    1 type  1   force =    -0.01087094    0.03027844   -0.01000409
     atom    2 type  2   force =    -0.28881124    0.15755266    0.00755649
     atom    3 type  2   force =    -0.00772608   -0.00651065    0.27178278
     atom    4 type  1   force =    -0.00139813    0.01312567    0.00340698
     atom    5 type  2   force =     0.01173369   -0.02980351   -0.24235991
     atom    6 type  2   force =    -0.00251466    0.00374409    0.26338297
     atom    7 type  1   force =    -0.02891730   -0.01092119   -0.01666553
     atom    8 type  2   force =     0.00527583   -0.00506170   -0.25931258
     atom    9 type  2   force =     0.00712243   -0.01188235    0.27390149
     atom   10 type  1   force =     0.00091704   -0.00652699   -0.01260281
     atom   11 type  2   force =     0.01194108    0.01180642   -0.25937022
     atom   12 type  2   force =    -0.01084429   -0.01742692    0.25499865
     atom   13 type  1   force =     0.00057230    0.02410544   -0.00845016
     atom   14 type  2   force =     0.01396826   -0.00262791   -0.24510350
     atom   15 type  2   force =    -0.00942591   -0.00258067    0.26103586
     atom   16 type  1   force =     0.00241929    0.04738342   -0.02407408
     atom   17 type  2   force =     0.00230291   -0.02914995   -0.25151910
     atom   18 type  2   force =    -0.00441457   -0.00155840    0.27074852
     atom   19 type  1   force =     0.02801182   -0.00006019   -0.01451765
     atom   20 type  2   force =    -0.00026665   -0.02007480    0.26290231
     atom   21 type  1   force =     0.00011201    0.01712163    0.00213391
     atom   22 type  2   force =    -0.00895682    0.00205809   -0.26017411
     atom   23 type  2   force =     0.00752079   -0.01491884    0.26678549
     atom   24 type  1   force =     0.00661364    0.02472974   -0.01798289
     atom   25 type  2   force =     0.01069863   -0.00093602   -0.26182147
     atom   26 type  2   force =     0.00401835   -0.00921900    0.26360537
     atom   27 type  1   force =     0.00094027    0.01542483    0.00543420
     atom   28 type  2   force =    -0.00491087   -0.02677726   -0.26864913
     atom   29 type  2   force =     0.00887369    0.00080881    0.26219725
     atom   30 type  1   force =     0.00243806    0.01633915    0.00717898
     atom   31 type  2   force =    -0.01118606   -0.00038379   -0.25868503
     atom   32 type  2   force =    -0.00402165   -0.01269988    0.27032674
     atom   33 type  1   force =     0.00452015   -0.00115814    0.00587499
     atom   34 type  2   force =     0.00011738   -0.02566161   -0.27674787
     atom   35 type  2   force =    -0.00126428   -0.01165674    0.26574413
     atom   36 type  3   force =     0.03517588   -0.01746822   -0.03018039
     The ionic contribution  to forces
     atom    1 type  1   force =     0.35550686    0.35826494    4.52908503
[...]
     atom   27 type  1   force =     0.00274410    0.01737725    0.00380625
     atom   28 type  2   force =    -0.00174637   -0.02485504   -0.26043712
     atom   29 type  2   force =     0.00101481   -0.00894321    0.26696567
     atom   30 type  1   force =     0.00614335    0.01268100    0.00444248
     atom   31 type  2   force =    -0.01573146   -0.00122032   -0.26364644
     atom   32 type  2   force =     0.00593663   -0.01099897    0.26692259
     atom   33 type  1   force =     0.00392621    0.00071624    0.00135667
     atom   34 type  2   force =    -0.00828226   -0.00022638   -0.26348214
     atom   35 type  2   force =    -0.00081422   -0.01490367    0.26674975
     atom   36 type  3   force =    -0.00003738   -0.00723461   -0.06198326
     The ionic contribution  to forces
     atom    1 type  1   force =     0.22606190   -0.05963825    2.57737494
     atom    2 type  2   force =    -0.20354146   -0.31249530   35.99824384
     atom    3 type  2   force =     0.01938270   -0.27517763  -36.54319525
     atom    4 type  1   force =    -0.10504224    0.34208704    0.38019323
     atom    5 type  2   force =    -0.91908666    1.27675459   38.62655075
     atom    6 type  2   force =     0.30288555   -0.44665615  -38.39957035
     atom    7 type  1   force =    -3.04052904   -1.35679421    3.09792422
     atom    8 type  2   force =    -1.10196800    0.26741860   38.37506647
     atom    9 type  2   force =     0.27756365    0.18500507  -37.87121739
     atom   10 type  1   force =    -0.66668913    0.15199907    4.07619151
     atom   11 type  2   force =    -0.67065525   -1.40896600   38.56998262
     atom   12 type  2   force =     0.17846624    0.39325603  -37.58214466
     atom   13 type  1   force =     0.17342584    0.61925066    2.44266941
     atom   14 type  2   force =     0.01142713   -0.25563976   38.58350311
     atom   15 type  2   force =     0.19668263   -0.26993471  -37.54191325
     atom   16 type  1   force =    -0.83416967    3.78836576    1.00302997
     atom   17 type  2   force =     0.86960140    1.36693637   38.17450655
     atom   18 type  2   force =    -0.11791713   -0.28102601  -38.00370269
     atom   19 type  1   force =     2.98481529   -2.23530135    0.44970605
     atom   20 type  2   force =    -0.05105894    0.10337024  -38.67741385
     atom   21 type  1   force =     0.52348786   -0.40641654    1.13625327
     atom   22 type  2   force =     0.54067263   -1.54942636   38.51202509
     atom   23 type  2   force =    -0.12038899    0.42673475  -38.16072695
     atom   24 type  1   force =    -0.47046559   -0.26167573    2.56350244
     atom   25 type  2   force =     0.24595790   -0.09460892   38.97714134
     atom   26 type  2   force =    -0.18582361   -0.20094833  -37.52883352
     atom   27 type  1   force =     0.70999278    0.72649977    0.54451715
     atom   28 type  2   force =     0.06833018    0.62587467   38.40214549
     atom   29 type  2   force =    -0.09308032   -0.20405895  -37.87471853
     atom   30 type  1   force =    -0.10248500   -0.57605745    2.28049698
     atom   31 type  2   force =     1.46970768    0.13454748   38.13834321
     atom   32 type  2   force =    -0.27306114   -0.00986086  -38.10320083
     atom   33 type  1   force =     0.16727069   -0.30247442    3.02026114
     atom   34 type  2   force =     0.10038090   -0.41129105   39.02390332
     atom   35 type  2   force =    -0.08213169    0.36150290  -37.37669993
     atom   36 type  3   force =    -0.02801908    0.14884499    8.70980507
     The local contribution  to forces
     atom    1 type  1   force =    -0.21138800    0.03119040   -2.56816865
     atom    2 type  2   force =     0.20109177    0.27515931  -36.25207158
     atom    3 type  2   force =    -0.01654101    0.28399841   36.27785785
     atom    4 type  1   force =     0.10784323   -0.35584776   -0.38398425
     atom    5 type  2   force =     0.91238874   -1.24655422  -38.39946777
     atom    6 type  2   force =    -0.30529552    0.45168350   38.15880848
     atom    7 type  1   force =     3.08262636    1.36667855   -3.07414813
     atom    8 type  2   force =     1.09361684   -0.26705135  -38.13148948
     atom    9 type  2   force =    -0.27487359   -0.16669630   37.62577714
     atom   10 type  1   force =     0.66596999   -0.13167761   -4.05936817
     atom   11 type  2   force =     0.66125281    1.40175026  -38.33572642
     atom   12 type  2   force =    -0.17116690   -0.37812167   37.33629637
     atom   13 type  1   force =    -0.17448971   -0.64783560   -2.43570674
     atom   14 type  2   force =    -0.01832291    0.25907864  -38.34718892
     atom   15 type  2   force =    -0.19502075    0.27485443   37.30107902
     atom   16 type  1   force =     0.84481226   -3.84824100   -0.97673251
     atom   17 type  2   force =    -0.86312529   -1.34367958  -37.94074336
     atom   18 type  2   force =     0.11800103    0.28559899   37.75868241
     atom   19 type  1   force =    -3.01383778    2.24064128   -0.44540736
     atom   20 type  2   force =     0.05222029   -0.09033478   38.43699119
     atom   21 type  1   force =    -0.51827453    0.39203543   -1.13873892
     atom   22 type  2   force =    -0.53361440    1.53992847  -38.27675822
     atom   23 type  2   force =     0.11602362   -0.41637899   37.91969985
     atom   24 type  1   force =     0.45276266    0.23511173   -2.55202962
     atom   25 type  2   force =    -0.23910279    0.09939301  -38.73998210
     atom   26 type  2   force =     0.18181810    0.20785497   37.28307077
     atom   27 type  1   force =    -0.71200650   -0.74356212   -0.54844352
     atom   28 type  2   force =    -0.06625943   -0.60249424  -38.16189589
     atom   29 type  2   force =     0.09251361    0.21380473   37.62841629
     atom   30 type  1   force =     0.09666357    0.56276492   -2.28576083
     atom   31 type  2   force =    -1.45546660   -0.13310487  -37.89486221
     atom   32 type  2   force =     0.26844911    0.02042665   37.85681948
     atom   33 type  1   force =    -0.17107591    0.30201549   -3.02247852
     atom   34 type  2   force =    -0.09274265    0.41239420  -38.78088910
     atom   35 type  2   force =     0.08333786   -0.34796171   37.13022582
     atom   36 type  3   force =     0.02866120   -0.14246449   -8.64887860
     The core correction contribution to forces
     atom    1 type  1   force =     0.00000000    0.00000000    0.00000000
     atom    2 type  2   force =    -0.00006933   -0.00258635   -0.01089012
     atom    3 type  2   force =     0.00016420    0.00026053   -0.02155446
     atom    4 type  1   force =     0.00000000    0.00000000    0.00000000
     atom    5 type  2   force =    -0.00070986    0.00204382    0.01986516
     atom    6 type  2   force =     0.00012548   -0.00008222   -0.02080956
     atom    7 type  1   force =     0.00000000    0.00000000    0.00000000
     atom    8 type  2   force =    -0.00044722    0.00030951    0.02070288
     atom    9 type  2   force =     0.00043760    0.00103840   -0.02078570
     atom   10 type  1   force =     0.00000000    0.00000000    0.00000000
     atom   11 type  2   force =    -0.00069758   -0.00090276    0.02011392
     atom   12 type  2   force =     0.00056021    0.00083118   -0.02084848
     atom   13 type  1   force =     0.00000000    0.00000000    0.00000000
     atom   14 type  2   force =    -0.00065099   -0.00030696    0.02022486
     atom   15 type  2   force =     0.00005007    0.00007018   -0.02068972
     atom   16 type  1   force =     0.00000000    0.00000000    0.00000000
     atom   17 type  2   force =     0.00062831    0.00139502    0.02019930
     atom   18 type  2   force =    -0.00002470   -0.00010965   -0.02071722
     atom   19 type  1   force =     0.00000000    0.00000000    0.00000000
     atom   20 type  2   force =     0.00003318    0.00061379   -0.02107643
     atom   21 type  1   force =     0.00000000    0.00000000    0.00000000
     atom   22 type  2   force =     0.00029570   -0.00096129    0.02033212
     atom   23 type  2   force =    -0.00046122    0.00086087   -0.02076763
     atom   24 type  1   force =     0.00000000    0.00000000    0.00000000
     atom   25 type  2   force =     0.00068347    0.00012146    0.02029638
     atom   26 type  2   force =    -0.00023578    0.00018828   -0.02096474
     atom   27 type  1   force =     0.00000000    0.00000000    0.00000000
     atom   28 type  2   force =     0.00017872    0.00180598    0.02043872
     atom   29 type  2   force =    -0.00006475    0.00037511   -0.02090066
     atom   30 type  1   force =     0.00000000    0.00000000    0.00000000
     atom   31 type  2   force =     0.00107436    0.00028800    0.02070383
     atom   32 type  2   force =    -0.00050573    0.00052260   -0.02084217
     atom   33 type  1   force =     0.00000000    0.00000000    0.00000000
     atom   34 type  2   force =     0.00069467   -0.00036203    0.02065261
     atom   35 type  2   force =     0.00012402    0.00088676   -0.02101194
     atom   36 type  3   force =     0.00000000    0.00000000    0.00000000
     The Hubbard contrib.    to forces
     atom    1 type  1   force =     0.00000000    0.00000000    0.00000000
     atom    2 type  2   force =     0.00000000    0.00000000    0.00000000
     atom    3 type  2   force =     0.00000000    0.00000000    0.00000000
     atom    4 type  1   force =     0.00000000    0.00000000    0.00000000
     atom    5 type  2   force =     0.00000000    0.00000000    0.00000000
     atom    6 type  2   force =     0.00000000    0.00000000    0.00000000
     atom    7 type  1   force =     0.00000000    0.00000000    0.00000000
     atom    8 type  2   force =     0.00000000    0.00000000    0.00000000
     atom    9 type  2   force =     0.00000000    0.00000000    0.00000000
     atom   10 type  1   force =     0.00000000    0.00000000    0.00000000
     atom   11 type  2   force =     0.00000000    0.00000000    0.00000000
     atom   12 type  2   force =     0.00000000    0.00000000    0.00000000
     atom   13 type  1   force =     0.00000000    0.00000000    0.00000000
     atom   14 type  2   force =     0.00000000    0.00000000    0.00000000
     atom   15 type  2   force =     0.00000000    0.00000000    0.00000000
     atom   16 type  1   force =     0.00000000    0.00000000    0.00000000
     atom   17 type  2   force =     0.00000000    0.00000000    0.00000000
     atom   18 type  2   force =     0.00000000    0.00000000    0.00000000
     atom   19 type  1   force =     0.00000000    0.00000000    0.00000000
     atom   20 type  2   force =     0.00000000    0.00000000    0.00000000
     atom   21 type  1   force =     0.00000000    0.00000000    0.00000000
     atom   22 type  2   force =     0.00000000    0.00000000    0.00000000
     atom   23 type  2   force =     0.00000000    0.00000000    0.00000000
     atom   24 type  1   force =     0.00000000    0.00000000    0.00000000
     atom   25 type  2   force =     0.00000000    0.00000000    0.00000000
     atom   26 type  2   force =     0.00000000    0.00000000    0.00000000
     atom   27 type  1   force =     0.00000000    0.00000000    0.00000000
     atom   28 type  2   force =     0.00000000    0.00000000    0.00000000
     atom   29 type  2   force =     0.00000000    0.00000000    0.00000000
     atom   30 type  1   force =     0.00000000    0.00000000    0.00000000
     atom   31 type  2   force =     0.00000000    0.00000000    0.00000000
     atom   32 type  2   force =     0.00000000    0.00000000    0.00000000
     atom   33 type  1   force =     0.00000000    0.00000000    0.00000000
     atom   34 type  2   force =     0.00000000    0.00000000    0.00000000
     atom   35 type  2   force =     0.00000000    0.00000000    0.00000000
     atom   36 type  3   force =     0.00000000    0.00000000    0.00000000
     The SCF correction term to forces
     atom    1 type  1   force =     0.00000425    0.00003374   -0.00006855
     atom    2 type  2   force =     0.00001732   -0.00000010    0.00002140
     atom    3 type  2   force =    -0.00001563    0.00000010   -0.00002986
     atom    4 type  1   force =     0.00001979   -0.00007061   -0.00000479
     atom    5 type  2   force =     0.00000084   -0.00003388   -0.00001459
     atom    6 type  2   force =    -0.00000970   -0.00003905    0.00000248
     atom    7 type  1   force =     0.00008713    0.00006846   -0.00001969
     atom    8 type  2   force =     0.00001120    0.00002054    0.00001237
     atom    9 type  2   force =    -0.00000561    0.00003484   -0.00001414
     atom   10 type  1   force =     0.00001866   -0.00003739   -0.00000471
     atom   11 type  2   force =     0.00003236   -0.00001215   -0.00002771
     atom   12 type  2   force =     0.00002426   -0.00001975    0.00001331
     atom   13 type  1   force =    -0.00001393    0.00001350   -0.00000570
     atom   14 type  2   force =    -0.00000229    0.00001762   -0.00003626
     atom   15 type  2   force =     0.00001089    0.00003406    0.00001344
     atom   16 type  1   force =     0.00000246   -0.00009168   -0.00003248
     atom   17 type  2   force =     0.00001128   -0.00002077   -0.00001360
     atom   18 type  2   force =     0.00002313   -0.00002124    0.00000135
     atom   19 type  1   force =    -0.00001666   -0.00002430   -0.00001398
     atom   20 type  2   force =     0.00001440    0.00000707   -0.00002385
     atom   21 type  1   force =     0.00006170    0.00005640   -0.00001170
     atom   22 type  2   force =    -0.00002452    0.00002595    0.00001407
     atom   23 type  2   force =    -0.00000991    0.00002045   -0.00002684
     atom   24 type  1   force =     0.00000465    0.00003377    0.00001419
     atom   25 type  2   force =     0.00000035   -0.00000552   -0.00001523
     atom   26 type  2   force =     0.00000691    0.00000307    0.00001419
     atom   27 type  1   force =    -0.00002381   -0.00008573    0.00000688
     atom   28 type  2   force =    -0.00000202   -0.00000470   -0.00001106
     atom   29 type  2   force =    -0.00000363   -0.00001410    0.00000912
     atom   30 type  1   force =    -0.00005759    0.00007639    0.00002701
     atom   31 type  2   force =    -0.00002298    0.00001083    0.00000484
     atom   32 type  2   force =    -0.00002244    0.00001209   -0.00001038
     atom   33 type  1   force =    -0.00005854    0.00003494    0.00003628
     atom   34 type  2   force =    -0.00001305   -0.00000034   -0.00001108
     atom   35 type  2   force =    -0.00002221   -0.00000851    0.00000902
     atom   36 type  3   force =     0.00000201   -0.00000071   -0.00000147

     Total force =     0.006292     Total SCF correction =     0.000301
     Energy error            =      8.5E-05 Ry
     Gradient error          =      1.6E-03 Ry/Bohr

     bfgs converged in  32 scf cycles and  31 bfgs steps
     (criteria: energy <  1.0E-04 Ry, force <  1.0E-02 Ry/Bohr)

     End of BFGS Geometry Optimization

     Final energy             =   -2205.5910355828 Ry

     File ./MoS2-V-O.bfgs deleted, as requested
Begin final coordinates

ATOMIC_POSITIONS (angstrom)
Mo            6.5085652354        1.7978121079        2.7604511202
S             8.1043517367        0.8682249033        4.2809650301
S             8.1192119550        0.8393816126        1.2161714986
Mo            8.1122790194        4.4866909450        2.7045290686
S             6.4991086865        3.7043886607        4.3174997641
S             6.5435121714        3.5669414254        1.0880294649
Mo            6.4954343227        7.1522332549        2.6709026711
S             8.0706783029        6.2915248968        4.3053436421
S             8.1286038337        6.3173288263        1.1096922564
Mo            8.1097813450        9.8922880902        2.7882573509
S             6.4757697281        8.9098411324        4.3318348846
S             6.5747980897        9.0223123765        1.1372364720
Mo            3.4057053703        1.7696801230        2.7512478252
S             4.9578976146        0.8290071602        4.3368933258
S             4.9706567306        0.8512480290        1.1602038869
Mo            4.9979742011        4.5439745201        2.6337807420
S             3.4577902575        3.6869105827        4.2900689866
S             3.4028960235        3.5746192646        1.0994166828
Mo            3.4311165062        7.2248521616        2.6212120361
S             4.9706596143        6.3255649216        1.0231894494
Mo            4.9704536019        9.9182478922        2.7236033357
S             3.4431005537        8.9584867860        4.3136911066
S             3.3730013906        9.0753581935        1.1027456471
Mo            0.2768719984        1.7768212626        2.7716477371
S             1.8489086494        0.8625226232        4.3690495632
S             1.8234703124        0.8546477976        1.1707345876
Mo            1.8434176418        4.5042643724        2.7023049251
S             0.2605538002        3.6350321793        4.3179324193
S             0.2535143537        3.5609470871        1.1315805969
Mo            0.2522311245        7.2162255316        2.7351431659
S             1.9094401715        6.3184402676        4.2840702032
S             1.8090923591        6.3262168606        1.0901949660
Mo            1.8254777994        9.9508125687        2.7638877436
S             0.2601003283        9.0062793321        4.3670931501
S             0.2347022249        9.0521369628        1.1762931032
H             8.1064777358        1.0240039205        5.6438491673
End final coordinates



     Writing all to output data dir ./MoS2-V-O.save/
 
     init_run     :      3.10s CPU      3.41s WALL (       1 calls)
     electrons    :   2912.73s CPU   3238.04s WALL (      32 calls)
     update_pot   :     43.33s CPU     45.72s WALL (      31 calls)
     forces       :     41.98s CPU     47.59s WALL (      32 calls)

     Called by init_run:
     wfcinit      :      0.37s CPU      0.43s WALL (       1 calls)
     potinit      :      2.03s CPU      2.18s WALL (       1 calls)
     hinit0       :      0.18s CPU      0.18s WALL (       1 calls)

     Called by electrons:
     c_bands      :    340.34s CPU    345.53s WALL (     277 calls)
     sum_band     :     78.88s CPU     97.24s WALL (     277 calls)
     v_of_rho     :    115.68s CPU    139.78s WALL (     300 calls)
     newd         :     39.56s CPU     56.69s WALL (     300 calls)
     mix_rho      :   2351.55s CPU   2611.85s WALL (     277 calls)

     Called by c_bands:
     init_us_2    :      5.90s CPU      6.37s WALL (     555 calls)
     init_us_2:cp :      5.90s CPU      6.36s WALL (     555 calls)
     regterg      :    319.47s CPU    324.16s WALL (     277 calls)

     Called by *egterg:
     rdiaghg      :     26.56s CPU     26.88s WALL (    1531 calls)
     h_psi        :    184.70s CPU    186.61s WALL (    1572 calls)
     s_psi        :     23.13s CPU     23.21s WALL (    1572 calls)
     g_psi        :      1.17s CPU      1.19s WALL (    1294 calls)

     Called by h_psi:
     h_psi:calbec :     26.46s CPU     26.61s WALL (    1572 calls)
     vloc_psi     :    132.78s CPU    134.34s WALL (    1572 calls)
     add_vuspsi   :     22.82s CPU     22.99s WALL (    1572 calls)

     General routines
     calbec       :     37.45s CPU     37.64s WALL (    1977 calls)
     fft          :     74.83s CPU     89.06s WALL (   20164 calls)
     ffts         :   1056.84s CPU   1308.91s WALL (  575767 calls)
     fftw         :    113.84s CPU    115.06s WALL (  168585 calls)
     interpolate  :      2.20s CPU      2.59s WALL (     300 calls)
 
     Parallel routines
 
     PWSCF        :  50m 6.75s CPU  55m43.77s WALL

 
   This run was terminated on:  23: 0:42   3Nov2023            

=------------------------------------------------------------------------------=
   JOB DONE.
=------------------------------------------------------------------------------=
