
     Program PWSCF v.7.2 starts on  4Nov2023 at  0: 8:53 

     This program is part of the open-source Quantum ESPRESSO suite
     for quantum simulation of materials; please cite
         "P. Giannozzi et al., J. Phys.:Condens. Matter 21 395502 (2009);
         "P. Giannozzi et al., J. Phys.:Condens. Matter 29 465901 (2017);
         "P. Giannozzi et al., J. Chem. Phys. 152 154105 (2020);
          URL http://www.quantum-espresso.org", 
     in publications or presentations arising from this work. More details at
     http://www.quantum-espresso.org/quote

     Parallel version (MPI & OpenMP), running on      48 processor cores
     Number of MPI processes:                48
     Threads/MPI process:                     1

     MPI processes distributed on     1 nodes
     110183 MiB available memory on the printing compute node when the environment starts
 
     Waiting for input...
     Reading input from standard input
Warning: card &CELL ignored
Warning: card CELL_DYNAMICS = 'BFGS', ignored
Warning: card CELL_DOFREE = '2DXY' ignored
Warning: card / ignored

     Current dimensions of program PWSCF are:
     Max number of different atomic species (ntypx) = 10
     Max number of k-points (npk) =  40000
     Max angular momentum in pseudopotentials (lmaxx) =  4

     IMPORTANT: XC functional enforced from input :
     Exchange-correlation= RVV10
                           (   1   4  13   4  26   0   0)
     Any further DFT definition will be discarded
     Please, verify this is what you really want


     gamma-point specific algorithms are used
     signal trapping enabled: kill the code with -SIGUSR1 to stop cleanly the simulation 
 
     R & G space division:  proc/nbgrp/npool/nimage =      48
     Subspace diagonalization in iterative solution of the eigenvalue problem:
     one sub-group per band group will be used
     scalapack distributed-memory algorithm (size of sub-group:  2*  2 procs)

 
     Parallelization info
     --------------------
     sticks:   dense  smooth     PW     G-vecs:    dense   smooth      PW
     Min         243     194     47                49060    35090    4376
     Max         246     196     50                49086    35128    4410
     Sum       11735    9389   2349              2355467  1685513  210763
 
     Using Slab Decomposition
 


     bravais-lattice index     =            0
     lattice parameter (alat)  =      17.8707  a.u.
     unit-cell volume          =   17436.2743 (a.u.)^3
     number of atoms/cell      =           36
     number of atomic types    =            3
     number of electrons       =       307.00
     number of Kohn-Sham states=          185
     kinetic-energy cutoff     =      80.0000  Ry
     charge density cutoff     =     400.0000  Ry
     scf convergence threshold =      1.0E-06
     mixing beta               =       0.7000
     number of iterations used =            8  local-TF  mixing
     energy convergence thresh.=      1.0E-04
     force convergence thresh. =      1.0E-02
     Exchange-correlation= RVV10
                           (   1   4  13   4  26   0   0)
     nstep                     =          200


     celldm(1)=  17.870686  celldm(2)=   0.000000  celldm(3)=   0.000000
     celldm(4)=   0.000000  celldm(5)=   0.000000  celldm(6)=   0.000000

     crystal axes: (cart. coord. in units of alat)
               a(1) = (   1.000000   0.000000   0.000000 )  
               a(2) = (   0.000000   1.155671   0.000000 )  
               a(3) = (   0.000000   0.000000   2.643601 )  

     reciprocal axes: (cart. coord. in units 2 pi/alat)
               b(1) = (  1.000000  0.000000  0.000000 )  
               b(2) = (  0.000000  0.865298  0.000000 )  
               b(3) = (  0.000000  0.000000  0.378272 )  


     PseudoPot. # 1 for Mo read from file:
     ../pseudo/Mo_ONCV_PBE-1.0.oncvpsp.upf
     MD5 check sum: 1b5d28e075c9ccadda658a603575cd1f
     Pseudo is Norm-conserving, Zval = 14.0
     Generated using ONCVPSP code by D. R. Hamann
     Using radial grid of 1526 points,  6 beta functions with: 
                l(1) =   0
                l(2) =   0
                l(3) =   1
                l(4) =   1
                l(5) =   2
                l(6) =   2

     PseudoPot. # 2 for S  read from file:
     ../pseudo/s_pbe_v1.4.uspp.F.UPF
     MD5 check sum: 88d86576ff6df21479756cfb9bdac1df
     Pseudo is Ultrasoft + core correction, Zval =  6.0
     Generated by new atomic code, or converted to UPF format
     Using radial grid of  907 points,  6 beta functions with: 
                l(1) =   0
                l(2) =   0
                l(3) =   1
                l(4) =   1
                l(5) =   2
                l(6) =   2
     Q(r) pseudized with  8 coefficients,  rinner =    1.300   1.300   1.300
                                                       1.300   1.300

     PseudoPot. # 3 for H  read from file:
     ../pseudo/H_ONCV_PBE-1.0.oncvpsp.upf
     MD5 check sum: 1790becc920ee074925cf490c71280fe
     Pseudo is Norm-conserving, Zval =  1.0
     Generated using ONCVPSP code by D. R. Hamann
     Using radial grid of 1166 points,  2 beta functions with: 
                l(1) =   0
                l(2) =   0

     atomic species   valence    mass     pseudopotential
        Mo            14.00    95.94000     Mo( 1.00)
        S              6.00    32.06500     S ( 1.00)
        H              1.00     1.00794     H ( 1.00)

     No symmetry found



   Cartesian axes

     site n.     atom                  positions (alat units)
         1           Mo  tau(   1) = (   0.6952221   0.1890506   0.2985846  )
         2           S   tau(   2) = (   0.8646417   0.0856217   0.4689279  )
         3           S   tau(   3) = (   0.8663890   0.0857843   0.1351291  )
         4           Mo  tau(   4) = (   0.8560186   0.4753274   0.2873942  )
         5           S   tau(   5) = (   0.6873294   0.3936244   0.4596353  )
         6           S   tau(   6) = (   0.6929804   0.3713468   0.1185692  )
         7           Mo  tau(   7) = (   0.6862796   0.7633098   0.2825370  )
         8           S   tau(   8) = (   0.8545980   0.6708292   0.4486168  )
         9           S   tau(   9) = (   0.8545123   0.6666874   0.1146125  )
        10           Mo  tau(  10) = (   0.8629403   1.0471007   0.3006803  )
        11           S   tau(  11) = (   0.6868280   0.9456650   0.4634891  )
        12           S   tau(  12) = (   0.6998113   0.9568511   0.1205389  )
        13           Mo  tau(  13) = (   0.3618216   0.1847309   0.2935964  )
        14           S   tau(  14) = (   0.5260962   0.0863870   0.4600448  )
        15           S   tau(  15) = (   0.5348379   0.0894875   0.1297123  )
        16           Mo  tau(  16) = (   0.5265817   0.4772436   0.2784130  )
        17           S   tau(  17) = (   0.3624753   0.3882513   0.4525556  )
        18           S   tau(  18) = (   0.3635411   0.3752055   0.1119148  )
        19           Mo  tau(  19) = (   0.3652268   0.7630864   0.2781795  )
        20           S   tau(  20) = (   0.5269494   0.6690381   0.1096838  )
        21           Mo  tau(  21) = (   0.5300192   1.0470394   0.2900995  )
        22           S   tau(  22) = (   0.3670346   0.9457522   0.4574073  )
        23           S   tau(  23) = (   0.3604225   0.9585725   0.1159032  )
        24           Mo  tau(  24) = (   0.0313099   0.1847895   0.3013130  )
        25           S   tau(  25) = (   0.1956761   0.0838230   0.4650863  )
        26           S   tau(  26) = (   0.1967693   0.0903508   0.1278874  )
        27           Mo  tau(  27) = (   0.1967578   0.4753919   0.2813011  )
        28           S   tau(  28) = (   0.0287851   0.3864324   0.4586755  )
        29           S   tau(  29) = (   0.0244514   0.3729871   0.1239344  )
        30           Mo  tau(  30) = (   0.0286728   0.7631204   0.2856894  )
        31           S   tau(  31) = (   0.2011512   0.6675435   0.4465001  )
        32           S   tau(  32) = (   0.1969214   0.6672839   0.1104564  )
        33           Mo  tau(  33) = (   0.1950294   1.0511147   0.2932237  )
        34           S   tau(  34) = (   0.0312912   0.9612169   0.4667423  )
        35           S   tau(  35) = (   0.0292670   0.9563028   0.1216485  )
        36           H   tau(  36) = (   0.1111111   0.3852236   0.5650415  )

     number of k points=     1  Gaussian smearing, width (Ry)=  0.0100
                       cart. coord. in units 2pi/alat
        k(    1) = (   0.0000000   0.0000000   0.0000000), wk =   2.0000000

     Dense  grid:  1177734 G-vectors     FFT dimensions: ( 120, 135, 320)

     Smooth grid:   842757 G-vectors     FFT dimensions: ( 108, 120, 270)

     Estimated max dynamical RAM per process >     146.59 MB

     Estimated total dynamical RAM >       6.87 GB

     Initial potential from superposition of free atoms

     starting charge     306.9873, renormalised to     307.0000

     negative rho (up, down):  1.409E-04 0.000E+00


---------------------------------------------------------------------------------
Carrying out rVV10 run using the following parameters:
Nqs =      20    Nr_points =    1024   r_max =   100.000
b_value =  6.30000    beta =  0.00901
     q_mesh =  0.00010000  0.00030000  0.00058939  0.00100810
               0.00161396  0.00249058  0.00375900  0.00559430
               0.00824984  0.01209221  0.01765183  0.02569619
               0.03733578  0.05417739  0.07854596  0.11380545
               0.16482331  0.23864234  0.34545298  0.50000000

Gradients computed in Reciprocal space

---------------------------------------------------------------------------------


     Starting wfcs are  213 randomized atomic wfcs

     total cpu time spent up to now is        2.8 secs

     Self-consistent Calculation

     iteration #  1     ecut=    80.00 Ry     beta= 0.70
     Davidson diagonalization with overlap
     ethr =  1.00E-02,  avg # of iterations =  2.0

     Threshold (ethr) on eigenvalues was too large:
     Diagonalizing with lowered threshold

     Davidson diagonalization with overlap
     ethr =  3.90E-04,  avg # of iterations =  4.0

     negative rho (up, down):  1.716E-08 0.000E+00

     total cpu time spent up to now is       22.4 secs

     total energy              =   -2205.62061949 Ry
     estimated scf accuracy    <       1.48760149 Ry

     iteration #  2     ecut=    80.00 Ry     beta= 0.70
     Davidson diagonalization with overlap
     ethr =  4.85E-04,  avg # of iterations =  2.0

     total cpu time spent up to now is       24.8 secs

     total energy              =   -2205.44908112 Ry
     estimated scf accuracy    <       0.61066090 Ry

     iteration #  3     ecut=    80.00 Ry     beta= 0.70
     Davidson diagonalization with overlap
     ethr =  1.99E-04,  avg # of iterations =  4.0

     total cpu time spent up to now is       27.3 secs

     total energy              =   -2205.54016060 Ry
     estimated scf accuracy    <       0.06687069 Ry

     iteration #  4     ecut=    80.00 Ry     beta= 0.70
     Davidson diagonalization with overlap
     ethr =  2.18E-05,  avg # of iterations = 20.0

     total cpu time spent up to now is       30.9 secs

     total energy              =   -2205.54357833 Ry
     estimated scf accuracy    <       0.03891680 Ry

     iteration #  5     ecut=    80.00 Ry     beta= 0.70
     Davidson diagonalization with overlap
     ethr =  1.27E-05,  avg # of iterations =  2.0

     total cpu time spent up to now is       33.2 secs

     total energy              =   -2205.54418682 Ry
     estimated scf accuracy    <       0.02784799 Ry

     iteration #  6     ecut=    80.00 Ry     beta= 0.70
     Davidson diagonalization with overlap
     ethr =  9.07E-06,  avg # of iterations =  1.0

     total cpu time spent up to now is       35.3 secs

     total energy              =   -2205.54381444 Ry
     estimated scf accuracy    <       0.01407940 Ry

     iteration #  7     ecut=    80.00 Ry     beta= 0.70
     Davidson diagonalization with overlap
     ethr =  4.59E-06,  avg # of iterations =  1.0

     total cpu time spent up to now is       37.5 secs

     total energy              =   -2205.54138645 Ry
     estimated scf accuracy    <       0.01105861 Ry

     iteration #  8     ecut=    80.00 Ry     beta= 0.70
     Davidson diagonalization with overlap
     ethr =  3.60E-06,  avg # of iterations =  2.0

     negative rho (up, down):  2.174E-03 0.000E+00

     total cpu time spent up to now is       41.6 secs

     total energy              =   -2205.54102041 Ry
     estimated scf accuracy    <       0.00459187 Ry

     iteration #  9     ecut=    80.00 Ry     beta= 0.70
     Davidson diagonalization with overlap
     ethr =  1.50E-06,  avg # of iterations =  2.0

     negative rho (up, down):  2.097E-02 0.000E+00

     total cpu time spent up to now is       46.4 secs

     total energy              =   -2205.54072480 Ry
     estimated scf accuracy    <       0.00300662 Ry

     iteration # 10     ecut=    80.00 Ry     beta= 0.70
     Davidson diagonalization with overlap
     ethr =  9.79E-07,  avg # of iterations =  2.0

     negative rho (up, down):  3.219E-02 0.000E+00

     total cpu time spent up to now is       50.3 secs

     total energy              =   -2205.54070728 Ry
     estimated scf accuracy    <       0.00165140 Ry

     iteration # 11     ecut=    80.00 Ry     beta= 0.70
     Davidson diagonalization with overlap
     ethr =  5.38E-07,  avg # of iterations =  2.0

     negative rho (up, down):  2.200E-02 0.000E+00

     total cpu time spent up to now is       54.3 secs

     total energy              =   -2205.54071119 Ry
     estimated scf accuracy    <       0.00063391 Ry

     iteration # 12     ecut=    80.00 Ry     beta= 0.70
     Davidson diagonalization with overlap
     ethr =  2.06E-07,  avg # of iterations =  2.0

     negative rho (up, down):  8.840E-03 0.000E+00

     total cpu time spent up to now is       59.5 secs

     total energy              =   -2205.54079482 Ry
     estimated scf accuracy    <       0.00014756 Ry

     iteration # 13     ecut=    80.00 Ry     beta= 0.70
     Davidson diagonalization with overlap
     ethr =  4.81E-08,  avg # of iterations = 15.0

     negative rho (up, down):  2.138E-03 0.000E+00

     total cpu time spent up to now is       68.4 secs

     total energy              =   -2205.54083294 Ry
     estimated scf accuracy    <       0.00001989 Ry

     iteration # 14     ecut=    80.00 Ry     beta= 0.70
     Davidson diagonalization with overlap
     ethr =  6.48E-09,  avg # of iterations =  5.0

     negative rho (up, down):  7.505E-04 0.000E+00

     total cpu time spent up to now is       78.0 secs

     total energy              =   -2205.54083399 Ry
     estimated scf accuracy    <       0.00000522 Ry

     iteration # 15     ecut=    80.00 Ry     beta= 0.70
     Davidson diagonalization with overlap
     ethr =  1.70E-09,  avg # of iterations =  2.0

     negative rho (up, down):  3.098E-04 0.000E+00

     total cpu time spent up to now is       85.4 secs

     total energy              =   -2205.54083580 Ry
     estimated scf accuracy    <       0.00000221 Ry

     iteration # 16     ecut=    80.00 Ry     beta= 0.70
     Davidson diagonalization with overlap
     ethr =  7.20E-10,  avg # of iterations =  2.0

     negative rho (up, down):  1.366E-04 0.000E+00

     total cpu time spent up to now is       87.4 secs

     End of self-consistent calculation

          k = 0.0000 0.0000 0.0000 (105382 PWs)   bands (ev):

   -62.8720 -62.8549 -62.8438 -62.7798 -62.7681 -62.7556 -62.7552 -62.7468
   -62.7252 -62.5962 -62.5746 -62.5676 -37.1831 -37.1424 -37.1179 -37.0948
   -37.0699 -37.0597 -37.0472 -37.0352 -37.0300 -37.0140 -37.0074 -36.9772
   -36.9739 -36.9613 -36.9561 -36.9407 -36.9397 -36.9367 -36.9351 -36.9249
   -36.8943 -36.8769 -36.8656 -36.8313 -36.8094 -36.8026 -36.7951 -36.7860
   -36.7721 -36.7533 -36.7426 -36.7354 -36.7249 -36.7109 -36.5579 -36.5437
   -16.6457 -15.7507 -15.0528 -15.0250 -14.8868 -14.7639 -14.6851 -14.4322
   -14.4126 -14.3688 -14.3171 -14.2872 -14.2492 -14.2056 -14.1426 -14.0554
   -14.0538 -14.0358 -13.9409 -13.8857 -13.7600 -13.7310 -13.7165  -9.4230
    -7.6460  -7.3972  -7.2954  -7.2022  -7.1973  -7.1498  -7.0675  -7.0382
    -6.8167  -6.7598  -6.7026  -6.6386  -6.5747  -6.4810  -6.3966  -6.3605
    -6.3190  -6.1911  -6.1632  -5.9152  -5.9100  -5.8588  -5.7920  -5.7090
    -5.6617  -5.6442  -5.6181  -5.5961  -5.5885  -5.5422  -5.4849  -5.4075
    -5.3780  -5.3200  -5.1209  -5.0578  -5.0124  -4.9847  -4.9463  -4.8818
    -4.8585  -4.7763  -4.5903  -4.5223  -4.4126  -4.2780  -4.2360  -4.2050
    -4.1683  -4.0806  -3.9490  -3.8394  -3.7347  -3.7201  -3.6980  -3.6560
    -3.6038  -3.5381  -3.5119  -3.4557  -3.4451  -3.3971  -3.3788  -3.3187
    -3.2782  -3.1722  -3.0783  -2.8509  -2.8260  -2.7362  -2.7115  -2.6947
    -2.6428  -2.5925  -2.5658  -2.5268  -2.4755  -2.2379  -1.9425  -1.9365
    -1.8055  -0.7149  -0.5951  -0.5426  -0.1312  -0.0633  -0.0295   0.0027
     0.0527   0.1469   0.2273   0.3126   0.3505   0.3829   0.3925   0.4889
     0.5310   0.6034   0.6244   0.6582   0.7007   0.7403   0.7698   0.8164
     0.8584   0.8771   0.9432   0.9709   0.9915   1.0384   1.0916   1.3590
     1.4308

     the Fermi energy is    -0.7371 ev

!    total energy              =   -2205.54083669 Ry
     estimated scf accuracy    <       0.00000087 Ry
     smearing contrib. (-TS)   =      -0.00811889 Ry
     internal energy E=F+TS    =   -2205.53271780 Ry

     The total energy is F=E-TS. E is the sum of the following terms:
     one-electron contribution =  -18049.61179170 Ry
     hartree contribution      =    9012.18624827 Ry
     xc contribution           =    -385.41925499 Ry
     ewald contribution        =    7217.31208061 Ry

     convergence has been achieved in  16 iterations

     negative rho (up, down):  1.366E-04 0.000E+00

     Forces acting on atoms (cartesian axes, Ry/au):

     atom    1 type  1   force =     0.01578375   -0.02160475    0.00367840
     atom    2 type  2   force =    -0.01680397    0.01338817    0.00204063
     atom    3 type  2   force =    -0.01350140    0.00849060   -0.00400216
     atom    4 type  1   force =    -0.01579393    0.01400419   -0.01231635
     atom    5 type  2   force =    -0.00788279   -0.00335359   -0.01127957
     atom    6 type  2   force =     0.00656318    0.00815227    0.00282197
     atom    7 type  1   force =    -0.00182686    0.00567073   -0.00751924
     atom    8 type  2   force =    -0.00071914    0.00217137    0.01981052
     atom    9 type  2   force =     0.01136869   -0.00123191    0.01020470
     atom   10 type  1   force =    -0.01168965    0.00956920   -0.02689587
     atom   11 type  2   force =     0.00283205   -0.00267847   -0.00439984
     atom   12 type  2   force =    -0.00023308    0.00113106    0.00553947
     atom   13 type  1   force =     0.00429722    0.00661332   -0.00757419
     atom   14 type  2   force =     0.00856738    0.00035927    0.01190579
     atom   15 type  2   force =    -0.01148003    0.00090244   -0.00976602
     atom   16 type  1   force =     0.00292221    0.00216847    0.00393354
     atom   17 type  2   force =     0.00474522    0.00141406   -0.00022051
     atom   18 type  2   force =    -0.00689976   -0.00449982    0.01481267
     atom   19 type  1   force =     0.01258889   -0.00205487   -0.00287586
     atom   20 type  2   force =     0.00290036   -0.00572316    0.00121235
     atom   21 type  1   force =    -0.00476141    0.00555151   -0.00109852
     atom   22 type  2   force =    -0.00194096   -0.00167198   -0.00137336
     atom   23 type  2   force =    -0.00088355    0.00161089    0.00902190
     atom   24 type  1   force =    -0.00179937   -0.01253407   -0.01818444
     atom   25 type  2   force =     0.01681987    0.01733113    0.00856546
     atom   26 type  2   force =    -0.01266062   -0.00018337   -0.00511229
     atom   27 type  1   force =     0.00580324    0.00149332   -0.00461423
     atom   28 type  2   force =    -0.03972997   -0.01948403   -0.08964202
     atom   29 type  2   force =     0.00194243    0.00219603   -0.00221995
     atom   30 type  1   force =    -0.00342260    0.00670023   -0.00470491
     atom   31 type  2   force =     0.00038887    0.00251555    0.01697318
     atom   32 type  2   force =    -0.01205198    0.00411384    0.00652408
     atom   33 type  1   force =     0.01252479   -0.00532654   -0.00865113
     atom   34 type  2   force =     0.00363585   -0.04424188   -0.01022178
     atom   35 type  2   force =    -0.00809509    0.00847437    0.01541351
     atom   36 type  3   force =     0.05849215    0.00056641    0.10021404
     The non-local contrib.  to forces
     atom    1 type  1   force =    -0.00634325    0.02990272   -0.01173416
     atom    2 type  2   force =    -0.00818549    0.00514976   -0.26587947
     atom    3 type  2   force =    -0.01464734   -0.00468845    0.27131744
     atom    4 type  1   force =    -0.00848590    0.00158391   -0.00975408
     atom    5 type  2   force =     0.00148703   -0.03185756   -0.24784580
     atom    6 type  2   force =     0.00158382    0.01745374    0.26284760
     atom    7 type  1   force =    -0.02876850   -0.01075359   -0.01324025
     atom    8 type  2   force =     0.00185481    0.00153394   -0.24635051
     atom    9 type  2   force =     0.01435224   -0.01726452    0.27761677
     atom   10 type  1   force =     0.00220756   -0.00350834   -0.00033499
     atom   11 type  2   force =     0.01427949    0.00649539   -0.25883590
     atom   12 type  2   force =    -0.01025593   -0.01412936    0.26046193
     atom   13 type  1   force =     0.00207833    0.01828254   -0.00747504
     atom   14 type  2   force =     0.01154141   -0.00530024   -0.25918459
     atom   15 type  2   force =    -0.01296188   -0.00266442    0.26106738
     atom   16 type  1   force =    -0.00276175    0.05031962   -0.01568960
     atom   17 type  2   force =     0.00068845   -0.02926798   -0.23145530
     atom   18 type  2   force =    -0.00474818   -0.00223522    0.27305575
     atom   19 type  1   force =     0.02666186   -0.00794723   -0.00873980
     atom   20 type  2   force =    -0.00000836   -0.02128498    0.26426717
     atom   21 type  1   force =     0.00441167    0.01549348    0.00576140
     atom   22 type  2   force =    -0.00967487    0.00356620   -0.26015564
     atom   23 type  2   force =     0.00647391   -0.01315830    0.26698564
     atom   24 type  1   force =     0.00202204    0.00943030   -0.01775331
     atom   25 type  2   force =     0.00597272    0.01261356   -0.25127972
     atom   26 type  2   force =    -0.00726992   -0.01182871    0.26624406
     atom   27 type  1   force =     0.00711650    0.02032953    0.00646163
     atom   28 type  2   force =     0.13256989   -0.01673146    0.04347844
     atom   29 type  2   force =     0.00916991    0.00240700    0.26937287
     atom   30 type  1   force =     0.00187654    0.02090217    0.01034640
     atom   31 type  2   force =    -0.00701500   -0.00414426   -0.24192127
     atom   32 type  2   force =    -0.00546107   -0.01862726    0.27377365
     atom   33 type  1   force =    -0.00180718    0.00335763    0.00627202
     atom   34 type  2   force =    -0.00053946   -0.03955563   -0.27265135
     atom   35 type  2   force =    -0.00192412   -0.01266760    0.27178950
     atom   36 type  3   force =    -0.04924740    0.00081615   -0.06108701
     The ionic contribution  to forces
     atom    1 type  1   force =     0.30198639    0.11622732    5.62265705
     atom    2 type  2   force =    -0.77341937    0.25390364   39.24995976
     atom    3 type  2   force =    -0.18832786   -0.02311406  -36.10950198
     atom    4 type  1   force =    -0.19951868    0.70546469    0.36660221
     atom    5 type  2   force =    -1.05530329    1.50047166   38.71717274
     atom    6 type  2   force =     0.32793177   -0.50275050  -38.05279571
     atom    7 type  1   force =    -2.65031979   -2.68484784    2.55736127
     atom    8 type  2   force =    -1.09718019    0.17309613   37.34886782
     atom    9 type  2   force =     0.31866093   -0.00069898  -38.02678782
     atom   10 type  1   force =    -1.15590525   -0.38045071    5.65694509
     atom   11 type  2   force =    -0.57571835   -1.59922129   39.14769894
     atom   12 type  2   force =     0.43683487    0.69443127  -37.84120554
     atom   13 type  1   force =     0.69392386    0.77799193    2.64652526
     atom   14 type  2   force =     0.10054526   -0.07918788   38.51130707
     atom   15 type  2   force =     0.16793544   -0.09027826  -36.81004588
     atom   16 type  1   force =     0.07898498    4.00975020    0.37566841
     atom   17 type  2   force =     1.21564808    1.50501361   37.75843110
     atom   18 type  2   force =    -0.12174337   -0.64816035  -38.62576598
     atom   19 type  1   force =     2.80332667   -2.30309722    0.59854532
     atom   20 type  2   force =     0.23962075   -0.17179253  -38.48440285
     atom   21 type  1   force =     0.06515670    0.00955816    1.18059182
     atom   22 type  2   force =     0.48784892   -1.70603033   38.43384588
     atom   23 type  2   force =    -0.07560120    0.66737094  -38.28353358
     atom   24 type  1   force =    -0.70321659    0.73475040    5.37939467
     atom   25 type  2   force =     0.73562988   -0.00327989   39.19075992
     atom   26 type  2   force =    -0.27539593    0.01467141  -37.37683279
     atom   27 type  1   force =     0.24827816    0.65490683   -2.95927925
     atom   28 type  2   force =    -1.20582280    1.02485338   36.59488528
     atom   29 type  2   force =    -0.29172817   -0.43213107  -37.37992517
     atom   30 type  1   force =    -0.39099962   -0.68657357   -0.14643374
     atom   31 type  2   force =     1.31828138    0.24172800   37.22054729
     atom   32 type  2   force =    -0.46822936    0.04044228  -38.67838796
     atom   33 type  1   force =     0.82279413   -0.94652491    2.03058905
     atom   34 type  2   force =     0.22298016   -1.43876533   39.35237776
     atom   35 type  2   force =    -0.30627921    0.48021104  -37.81510924
     atom   36 type  3   force =     0.94834070    0.09206183    8.64927375
     The local contribution  to forces
     atom    1 type  1   force =    -0.27988555   -0.16775715   -5.60603617
     atom    2 type  2   force =     0.76476064   -0.24528353  -39.00207258
     atom    3 type  2   force =     0.18887543    0.03619220   35.85571822
     atom    4 type  1   force =     0.19210495   -0.69304129   -0.36802739
     atom    5 type  2   force =     1.04652501   -1.47378046  -38.50029872
     atom    6 type  2   force =    -0.32295816    0.49484897   37.81420460
     atom    7 type  1   force =     2.67740279    2.70136799   -2.55044340
     atom    8 type  2   force =     1.09481213   -0.17292313  -37.10215813
     atom    9 type  2   force =    -0.32106682    0.01563992   37.78087401
     atom   10 type  1   force =     1.14212981    0.39362983   -5.68218739
     atom   11 type  2   force =     0.56498986    1.59078964  -38.91329660
     atom   12 type  2   force =    -0.42780271   -0.68034099   37.60744975
     atom   13 type  1   force =    -0.69171109   -0.78973142   -2.64539220
     atom   14 type  2   force =    -0.10291992    0.08508296  -38.26024365
     atom   15 type  2   force =    -0.16716946    0.09366037   36.56033811
     atom   16 type  1   force =    -0.07323798   -4.05815603   -0.35488624
     atom   17 type  2   force =    -1.21212432   -1.47592510  -37.54588852
     atom   18 type  2   force =     0.11943332    0.64641136   38.38906319
     atom   19 type  1   force =    -2.81755265    2.30912657   -0.59152609
     atom   20 type  2   force =    -0.23686169    0.18648254   38.24291423
     atom   21 type  1   force =    -0.07434943   -0.01942310   -1.18613907
     atom   22 type  2   force =    -0.48046665    1.70137300  -38.19514139
     atom   23 type  2   force =     0.06873971   -0.65371854   38.04692062
     atom   24 type  1   force =     0.69943529   -0.75691004   -5.37855837
     atom   25 type  2   force =    -0.72498337    0.00898917  -38.95062731
     atom   26 type  2   force =     0.26988246   -0.00366328   37.12704686
     atom   27 type  1   force =    -0.24957356   -0.67376534    2.94940500
     atom   28 type  2   force =     1.04352229   -1.02912236  -36.72831836
     atom   29 type  2   force =     0.28515983    0.43251267   37.12984907
     atom   30 type  1   force =     0.38572030    0.67243615    0.13258466
     atom   31 type  2   force =    -1.31151299   -0.23565598  -36.98098227
     atom   32 type  2   force =     0.46157601   -0.01877359   38.43266277
     atom   33 type  1   force =    -0.80855870    0.93789699   -2.04424314
     atom   34 type  2   force =    -0.21918234    1.43288682  -39.11058877
     atom   35 type  2   force =     0.30021641   -0.46010941   37.58041115
     atom   36 type  3   force =    -0.84060371   -0.09232144   -8.48789391
     The core correction contribution to forces
     atom    1 type  1   force =     0.00000000    0.00000000    0.00000000
     atom    2 type  2   force =     0.00006453   -0.00044045    0.02043695
     atom    3 type  2   force =     0.00062307    0.00008418   -0.02095962
     atom    4 type  1   force =     0.00000000    0.00000000    0.00000000
     atom    5 type  2   force =    -0.00057418    0.00180440    0.02002811
     atom    6 type  2   force =     0.00001096   -0.00137837   -0.02085155
     atom    7 type  1   force =     0.00000000    0.00000000    0.00000000
     atom    8 type  2   force =    -0.00016155    0.00043603    0.01989192
     atom    9 type  2   force =    -0.00052915    0.00102927   -0.02100273
     atom   10 type  1   force =     0.00000000    0.00000000    0.00000000
     atom   11 type  2   force =    -0.00070213   -0.00064500    0.02052488
     atom   12 type  2   force =     0.00099652    0.00122607   -0.02066432
     atom   13 type  1   force =     0.00000000    0.00000000    0.00000000
     atom   14 type  2   force =    -0.00059366   -0.00027811    0.02044829
     atom   15 type  2   force =     0.00070884    0.00018216   -0.02055837
     atom   16 type  1   force =     0.00000000    0.00000000    0.00000000
     atom   17 type  2   force =     0.00053190    0.00155660    0.01906983
     atom   18 type  2   force =     0.00018884   -0.00051961   -0.02099849
     atom   19 type  1   force =     0.00000000    0.00000000    0.00000000
     atom   20 type  2   force =     0.00011568    0.00083121   -0.02111313
     atom   21 type  1   force =     0.00000000    0.00000000    0.00000000
     atom   22 type  2   force =     0.00035073   -0.00052332    0.02053235
     atom   23 type  2   force =    -0.00051127    0.00113013   -0.02082821
     atom   24 type  1   force =     0.00000000    0.00000000    0.00000000
     atom   25 type  2   force =     0.00016895   -0.00101192    0.02009448
     atom   26 type  2   force =     0.00010909    0.00062039   -0.02098656
     atom   27 type  1   force =     0.00000000    0.00000000    0.00000000
     atom   28 type  2   force =    -0.00998066    0.00147526    0.00074328
     atom   29 type  2   force =    -0.00069186   -0.00058522   -0.02098673
     atom   30 type  1   force =     0.00000000    0.00000000    0.00000000
     atom   31 type  2   force =     0.00060595    0.00060092    0.01977038
     atom   32 type  2   force =     0.00004719    0.00108028   -0.02103590
     atom   33 type  1   force =     0.00000000    0.00000000    0.00000000
     atom   34 type  2   force =     0.00035723    0.00125057    0.02106627
     atom   35 type  2   force =    -0.00009753    0.00105921   -0.02112447
     atom   36 type  3   force =     0.00000000    0.00000000    0.00000000
     The Hubbard contrib.    to forces
     atom    1 type  1   force =     0.00000000    0.00000000    0.00000000
     atom    2 type  2   force =     0.00000000    0.00000000    0.00000000
     atom    3 type  2   force =     0.00000000    0.00000000    0.00000000
     atom    4 type  1   force =     0.00000000    0.00000000    0.00000000
     atom    5 type  2   force =     0.00000000    0.00000000    0.00000000
     atom    6 type  2   force =     0.00000000    0.00000000    0.00000000
     atom    7 type  1   force =     0.00000000    0.00000000    0.00000000
     atom    8 type  2   force =     0.00000000    0.00000000    0.00000000
     atom    9 type  2   force =     0.00000000    0.00000000    0.00000000
     atom   10 type  1   force =     0.00000000    0.00000000    0.00000000
     atom   11 type  2   force =     0.00000000    0.00000000    0.00000000
     atom   12 type  2   force =     0.00000000    0.00000000    0.00000000
     atom   13 type  1   force =     0.00000000    0.00000000    0.00000000
     atom   14 type  2   force =     0.00000000    0.00000000    0.00000000
     atom   15 type  2   force =     0.00000000    0.00000000    0.00000000
     atom   16 type  1   force =     0.00000000    0.00000000    0.00000000
     atom   17 type  2   force =     0.00000000    0.00000000    0.00000000
     atom   18 type  2   force =     0.00000000    0.00000000    0.00000000
     atom   19 type  1   force =     0.00000000    0.00000000    0.00000000
     atom   20 type  2   force =     0.00000000    0.00000000    0.00000000
     atom   21 type  1   force =     0.00000000    0.00000000    0.00000000
     atom   22 type  2   force =     0.00000000    0.00000000    0.00000000
     atom   23 type  2   force =     0.00000000    0.00000000    0.00000000
     atom   24 type  1   force =     0.00000000    0.00000000    0.00000000
     atom   25 type  2   force =     0.00000000    0.00000000    0.00000000
     atom   26 type  2   force =     0.00000000    0.00000000    0.00000000
     atom   27 type  1   force =     0.00000000    0.00000000    0.00000000
     atom   28 type  2   force =     0.00000000    0.00000000    0.00000000
     atom   29 type  2   force =     0.00000000    0.00000000    0.00000000
     atom   30 type  1   force =     0.00000000    0.00000000    0.00000000
     atom   31 type  2   force =     0.00000000    0.00000000    0.00000000
     atom   32 type  2   force =     0.00000000    0.00000000    0.00000000
     atom   33 type  1   force =     0.00000000    0.00000000    0.00000000
     atom   34 type  2   force =     0.00000000    0.00000000    0.00000000
     atom   35 type  2   force =     0.00000000    0.00000000    0.00000000
     atom   36 type  3   force =     0.00000000    0.00000000    0.00000000
     The SCF correction term to forces
     atom    1 type  1   force =     0.00002612    0.00001847   -0.00116810
     atom    2 type  2   force =    -0.00002432    0.00005484   -0.00036380
     atom    3 type  2   force =    -0.00002475    0.00001282   -0.00053600
     atom    4 type  1   force =     0.00010565   -0.00000702   -0.00109688
     atom    5 type  2   force =    -0.00001740    0.00000447   -0.00029568
     atom    6 type  2   force =    -0.00000526   -0.00002547   -0.00054275
     atom    7 type  1   force =    -0.00014140   -0.00009974   -0.00115664
     atom    8 type  2   force =    -0.00004440    0.00002449   -0.00040037
     atom    9 type  2   force =    -0.00004854    0.00005849   -0.00045531
     atom   10 type  1   force =    -0.00012181   -0.00010548   -0.00127835
     atom   11 type  2   force =    -0.00001686   -0.00010112   -0.00045095
     atom   12 type  2   force =    -0.00000587   -0.00005984   -0.00046213
     atom   13 type  1   force =     0.00000607    0.00006637   -0.00119199
     atom   14 type  2   force =    -0.00000576    0.00003864   -0.00038112
     atom   15 type  2   force =     0.00000697   -0.00000132   -0.00052704
     atom   16 type  1   force =    -0.00006309    0.00025078   -0.00111882
     atom   17 type  2   force =     0.00000107    0.00003303   -0.00033740
     atom   18 type  2   force =    -0.00003041    0.00000008   -0.00050158
     atom   19 type  1   force =     0.00015297   -0.00014090   -0.00111509
     atom   20 type  2   force =     0.00003393    0.00003670   -0.00041285
     atom   21 type  1   force =     0.00001960   -0.00008093   -0.00127245
     atom   22 type  2   force =     0.00000087   -0.00006144   -0.00041434
     atom   23 type  2   force =     0.00001525   -0.00001725   -0.00048236
     atom   24 type  1   force =    -0.00004017    0.00019136   -0.00122720
     atom   25 type  2   force =     0.00003165    0.00001631   -0.00034169
     atom   26 type  2   force =     0.00001364    0.00001291   -0.00054363
     atom   27 type  1   force =    -0.00001790    0.00001840   -0.00116140
     atom   28 type  2   force =    -0.00001874    0.00003725   -0.00039043
     atom   29 type  2   force =     0.00003268   -0.00001125   -0.00048978
     atom   30 type  1   force =    -0.00001986   -0.00006842   -0.00116200
     atom   31 type  2   force =     0.00002948   -0.00001703   -0.00040073
     atom   32 type  2   force =     0.00001521   -0.00001178   -0.00044827
     atom   33 type  1   force =     0.00009649   -0.00006016   -0.00122883
     atom   34 type  2   force =     0.00002021   -0.00006220   -0.00038547
     atom   35 type  2   force =    -0.00001068   -0.00002278   -0.00051321
     atom   36 type  3   force =     0.00000252    0.00000596   -0.00003858

     Total force =     0.183139     Total SCF correction =     0.004649

     BFGS Geometry Optimization
     Energy error            =      0.0E+00 Ry
     Gradient error          =      1.0E-01 Ry/Bohr

     number of scf cycles    =   1
     number of bfgs steps    =   0

     energy             new  =   -2205.5408366889 Ry

     new trust radius        =       0.1160366560 bohr
     new conv_thr            =       0.0000010000 Ry


ATOMIC_POSITIONS (angstrom)
Mo            6.5829008090        1.7763734896        2.8255895574
S             8.1678170631        0.8167887383        4.4356182100
S             8.1860884542        0.8157347784        1.2757655764
Mo            8.0868047776        4.5024676444        2.7113008606
S             6.4957378629        3.7206368452        4.3406917592
S             6.5568228826        3.5160515497        1.1227735490
Mo            6.4890149663        7.2214381060        2.6679054725
S             8.0813471738        6.3450200317        4.2529448365
S             8.0869337011        6.3040504203        1.0892630954
Mo            8.1544331539        9.9072442153        2.8292290819
S             6.4966662507        8.9415094310        4.3807772359
S             6.6178238578        9.0493097436        1.1428386637
Mo            3.4239336545        1.7504554714        2.7724630762
S             4.9796991510        0.8171313290        4.3568333676
S             5.0517587820        0.8467396580        1.2214905075
Mo            4.9813030481        4.5143255103        2.6349660873
S             3.4303527267        3.6723479736        4.2795928931
S             3.4342693853        3.5458474963        1.0661902098
Mo            3.4605234962        7.2152371456        2.6291550200
S             4.9847689959        6.3239037202        1.0378952784
Mo            5.0097442891        9.9045377859        2.7428196483
S             3.4699310076        8.9428664968        4.3248645625
S             3.4079616134        9.0658424279        1.1008424844
Mo            0.2951383012        1.7408767850        2.8398219200
S             1.8593629049        0.8018652441        4.4027420852
S             1.8541003218        0.8543288816        1.2066955489
Mo            1.8637622516        4.4964569920        2.6577556348
S             0.2511896525        3.6440883203        4.2901475856
S             0.2322590959        3.5284113142        1.1708431368
Mo            0.2693409917        7.2201917016        2.6992066992
S             1.9024440268        6.3141300092        4.2314259425
S             1.8558605831        6.3125207602        1.0480116755
Mo            1.8509744974        9.9373204708        2.7683682734
S             0.2978369081        9.0665860350        4.4084603325
S             0.2724876602        9.0480101592        1.1585572592
H             1.0817038251        3.6432663953        5.3964927446



     Writing config-only to output data dir ./MoS2-V-O.save/
     NEW-OLD atomic charge density approx. for the potential

     negative rho (up, down):  1.484E-04 0.000E+00

     total cpu time spent up to now is       90.7 secs

     Self-consistent Calculation

     iteration #  1     ecut=    80.00 Ry     beta= 0.70
     Davidson diagonalization with overlap
     ethr =  1.00E-06,  avg # of iterations = 11.0

     negative rho (up, down):  2.294E-04 0.000E+00

     total cpu time spent up to now is      103.2 secs

     total energy              =   -2205.55901568 Ry
     estimated scf accuracy    <       0.00398455 Ry

     iteration #  2     ecut=    80.00 Ry     beta= 0.70
     Davidson diagonalization with overlap
     ethr =  1.30E-06,  avg # of iterations =  2.0

     negative rho (up, down):  3.553E-04 0.000E+00

     total cpu time spent up to now is      129.1 secs

     total energy              =   -2205.55907975 Ry
     estimated scf accuracy    <       0.00067729 Ry

     iteration #  3     ecut=    80.00 Ry     beta= 0.70
     Davidson diagonalization with overlap
     ethr =  2.21E-07,  avg # of iterations =  5.0

     negative rho (up, down):  4.170E-04 0.000E+00

     total cpu time spent up to now is      154.0 secs

     total energy              =   -2205.55915760 Ry
     estimated scf accuracy    <       0.00019003 Ry

     iteration #  4     ecut=    80.00 Ry     beta= 0.70
     Davidson diagonalization with overlap
     ethr =  6.19E-08,  avg # of iterations =  2.0

     negative rho (up, down):  4.526E-04 0.000E+00

     total cpu time spent up to now is      167.8 secs

     total energy              =   -2205.55917539 Ry
     estimated scf accuracy    <       0.00001310 Ry

     iteration #  5     ecut=    80.00 Ry     beta= 0.70
     Davidson diagonalization with overlap
     ethr =  4.27E-09,  avg # of iterations =  6.0

     negative rho (up, down):  4.425E-04 0.000E+00

     total cpu time spent up to now is      183.8 secs

     total energy              =   -2205.55918064 Ry
     estimated scf accuracy    <       0.00000605 Ry

     iteration #  6     ecut=    80.00 Ry     beta= 0.70
     Davidson diagonalization with overlap
     ethr =  1.97E-09,  avg # of iterations =  2.0

     negative rho (up, down):  3.934E-04 0.000E+00

     total cpu time spent up to now is      196.8 secs

     total energy              =   -2205.55918126 Ry
     estimated scf accuracy    <       0.00000184 Ry

     iteration #  7     ecut=    80.00 Ry     beta= 0.70
     Davidson diagonalization with overlap
     ethr =  6.00E-10,  avg # of iterations =  5.0

     negative rho (up, down):  1.367E-04 0.000E+00

     total cpu time spent up to now is      198.9 secs

     End of self-consistent calculation

          k = 0.0000 0.0000 0.0000 (105382 PWs)   bands (ev):

   -62.8670 -62.8506 -62.8419 -62.7864 -62.7729 -62.7613 -62.7588 -62.7498
   -62.7313 -62.6164 -62.5931 -62.5756 -37.1841 -37.1404 -37.1177 -37.0968
   -37.0736 -37.0620 -37.0487 -37.0393 -37.0311 -37.0166 -37.0069 -36.9845
   -36.9786 -36.9654 -36.9604 -36.9463 -36.9453 -36.9422 -36.9402 -36.9296
   -36.8988 -36.8857 -36.8703 -36.8361 -36.8218 -36.8094 -36.8029 -36.7972
   -36.7788 -36.7650 -36.7581 -36.7466 -36.7413 -36.7185 -36.5769 -36.5560
   -16.3860 -15.7024 -15.0594 -15.0188 -14.8963 -14.7670 -14.6745 -14.4426
   -14.4156 -14.3626 -14.3286 -14.2933 -14.2555 -14.2176 -14.1476 -14.0658
   -14.0599 -14.0448 -13.9502 -13.8801 -13.7766 -13.7486 -13.7177  -9.1137
    -7.6519  -7.4096  -7.3047  -7.2213  -7.2043  -7.1571  -7.0801  -7.0316
    -6.8164  -6.7715  -6.7070  -6.6373  -6.5733  -6.4885  -6.4044  -6.3607
    -6.3105  -6.2039  -6.1714  -5.9311  -5.9034  -5.8678  -5.7871  -5.7247
    -5.6772  -5.6569  -5.6184  -5.6069  -5.6000  -5.5583  -5.5013  -5.3981
    -5.3839  -5.3154  -5.1171  -5.0612  -5.0195  -4.9898  -4.9568  -4.8898
    -4.8687  -4.7845  -4.5976  -4.5045  -4.4191  -4.2932  -4.2384  -4.2073
    -4.1753  -4.0962  -3.9676  -3.8455  -3.7428  -3.7254  -3.7056  -3.6537
    -3.6094  -3.5336  -3.5274  -3.4695  -3.4543  -3.4063  -3.3940  -3.3354
    -3.2837  -3.1825  -3.0872  -2.8491  -2.8220  -2.7481  -2.7208  -2.6860
    -2.6394  -2.6158  -2.5846  -2.5354  -2.4887  -2.2409  -1.9522  -1.9438
    -1.8314  -0.7405  -0.6148  -0.5481  -0.1319  -0.0626  -0.0294   0.0160
     0.0539   0.1524   0.2412   0.3108   0.3458   0.3817   0.3977   0.4820
     0.5357   0.5999   0.6217   0.6697   0.6959   0.7344   0.7640   0.8154
     0.8533   0.8829   0.9310   0.9589   0.9760   1.0422   1.0866   1.3627
     1.4361

     the Fermi energy is    -0.7599 ev

!    total energy              =   -2205.55918211 Ry
     estimated scf accuracy    <       0.00000036 Ry
     smearing contrib. (-TS)   =      -0.00783952 Ry
     internal energy E=F+TS    =   -2205.55134259 Ry

     The total energy is F=E-TS. E is the sum of the following terms:
     one-electron contribution =  -18055.47131633 Ry
     hartree contribution      =    9015.01842507 Ry
     xc contribution           =    -385.38340527 Ry
     ewald contribution        =    7220.28495393 Ry

     convergence has been achieved in   7 iterations

     negative rho (up, down):  1.367E-04 0.000E+00

     Forces acting on atoms (cartesian axes, Ry/au):

     atom    1 type  1   force =     0.00424281   -0.01171017   -0.00091307
     atom    2 type  2   force =    -0.01050692    0.00759378    0.00044014
     atom    3 type  2   force =    -0.01132831    0.00690282   -0.00957762
     atom    4 type  1   force =    -0.01177996    0.01201979   -0.00814699
     atom    5 type  2   force =    -0.00531412   -0.00383814   -0.00915129
     atom    6 type  2   force =     0.00325142    0.00344552    0.00128423
     atom    7 type  1   force =     0.00081517    0.00393357   -0.00223360
     atom    8 type  2   force =    -0.00129131    0.00232991    0.01380803
     atom    9 type  2   force =     0.00855127    0.00225766    0.00480804
     atom   10 type  1   force =    -0.00557447    0.00712771   -0.00942501
     atom   11 type  2   force =     0.00200746   -0.00083109   -0.00590612
     atom   12 type  2   force =    -0.00244516    0.00163002    0.00031031
     atom   13 type  1   force =     0.00385493    0.00419200   -0.00284821
     atom   14 type  2   force =     0.00632690    0.00028580    0.00779893
     atom   15 type  2   force =    -0.00773483    0.00123734   -0.00776057
     atom   16 type  1   force =     0.00016847    0.00226669    0.00166502
     atom   17 type  2   force =     0.00079985    0.00171595    0.00128007
     atom   18 type  2   force =    -0.00350150   -0.00305011    0.00994804
     atom   19 type  1   force =     0.00709038   -0.00374454    0.00167264
     atom   20 type  2   force =     0.00339567   -0.00512554   -0.00151902
     atom   21 type  1   force =    -0.00287148    0.00370130    0.00171908
     atom   22 type  2   force =    -0.00054419   -0.00127303   -0.00141918
     atom   23 type  2   force =     0.00023406    0.00043920    0.00443883
     atom   24 type  1   force =    -0.00340630   -0.01380484   -0.01330437
     atom   25 type  2   force =     0.01245641    0.01352998    0.00293568
     atom   26 type  2   force =    -0.00743954   -0.00148896   -0.00647737
     atom   27 type  1   force =     0.00306974    0.00261801   -0.00141991
     atom   28 type  2   force =     0.03272335   -0.01525027    0.00838806
     atom   29 type  2   force =     0.00092386    0.00264176   -0.00524229
     atom   30 type  1   force =    -0.00242615   -0.00000187    0.00264087
     atom   31 type  2   force =     0.00085777    0.00058864    0.01033346
     atom   32 type  2   force =    -0.00851820    0.00494919    0.00461014
     atom   33 type  1   force =     0.00650622   -0.00160026    0.00007316
     atom   34 type  2   force =     0.00060140   -0.03238535   -0.01462410
     atom   35 type  2   force =    -0.00602692    0.00787995    0.00868465
     atom   36 type  3   force =    -0.00716778    0.00081756    0.01312934
     The non-local contrib.  to forces
     atom    1 type  1   force =    -0.00384548    0.02714988   -0.01262477
     atom    2 type  2   force =    -0.00394446    0.00183503   -0.26646135
     atom    3 type  2   force =    -0.01186404   -0.00669828    0.26629936
     atom    4 type  1   force =    -0.00756636    0.00159029   -0.00945289
     atom    5 type  2   force =     0.00390676   -0.03301749   -0.24642488
     atom    6 type  2   force =    -0.00141126    0.01356834    0.26279517
     atom    7 type  1   force =    -0.02730299   -0.01082995   -0.01415676
     atom    8 type  2   force =     0.00094106    0.00194266   -0.25050598
     atom    9 type  2   force =     0.01182020   -0.01401410    0.27429335
     atom   10 type  1   force =     0.00104606   -0.00325475   -0.00063553
     atom   11 type  2   force =     0.01280151    0.00829150   -0.25959262
     atom   12 type  2   force =    -0.01139270   -0.01336530    0.25782928
     atom   13 type  1   force =     0.00181833    0.01961394   -0.00768398
     atom   14 type  2   force =     0.01021003   -0.00494579   -0.26191845
     atom   15 type  2   force =    -0.00987226   -0.00278632    0.26198411
     atom   16 type  1   force =    -0.00367291    0.04848140   -0.01951200
     atom   17 type  2   force =    -0.00160661   -0.02936865   -0.22783413
     atom   18 type  2   force =    -0.00244805   -0.00154505    0.27047932
     atom   19 type  1   force =     0.02735891   -0.00699236   -0.01124368
     atom   20 type  2   force =     0.00032578   -0.02043542    0.26286128
     atom   21 type  1   force =     0.00382021    0.01639154    0.00464111
     atom   22 type  2   force =    -0.00749295    0.00323204   -0.26058386
     atom   23 type  2   force =     0.00757388   -0.01416096    0.26453988
     atom   24 type  1   force =     0.00140514    0.00989830   -0.01733504
     atom   25 type  2   force =     0.00313751    0.00939913   -0.25457549
     atom   26 type  2   force =    -0.00230466   -0.01194790    0.26538608
     atom   27 type  1   force =     0.00732689    0.01933785    0.00804468
     atom   28 type  2   force =     0.18755906   -0.01159547    0.12619410
     atom   29 type  2   force =     0.00752573    0.00165925    0.27024543
     atom   30 type  1   force =     0.00161950    0.02071533    0.00879777
     atom   31 type  2   force =    -0.00651978   -0.00463022   -0.24788666
     atom   32 type  2   force =    -0.00218117   -0.01814932    0.27319703
     atom   33 type  1   force =    -0.00095039    0.00165623    0.00458136
     atom   34 type  2   force =    -0.00308949   -0.03006257   -0.27679938
     atom   35 type  2   force =    -0.00086886   -0.01280563    0.26840872
     atom   36 type  3   force =    -0.03598060    0.00002162   -0.04600391
     The ionic contribution  to forces
     atom    1 type  1   force =     0.04894674    0.37059449    5.74073894
     atom    2 type  2   force =    -0.58056681    0.15299120   39.36978234
     atom    3 type  2   force =    -0.15513843    0.01338086  -36.23033030
     atom    4 type  1   force =    -0.13836858    0.71513517    0.19014929
     atom    5 type  2   force =    -1.01198805    1.47243146   38.69395896
     atom    6 type  2   force =     0.24807931   -0.58298814  -38.01346139
     atom    7 type  1   force =    -2.57456373   -2.70860159    2.49516814
     atom    8 type  2   force =    -1.07023531    0.14545409   37.49310820
     atom    9 type  2   force =     0.31858053    0.03555842  -38.01123952
     atom   10 type  1   force =    -0.87106728   -0.42144269    5.36529176
     atom   11 type  2   force =    -0.52744323   -1.58338689   39.16421631
     atom   12 type  2   force =     0.37212039    0.65888856  -37.86939395
     atom   13 type  1   force =     0.65837175    0.70707668    2.61137994
     atom   14 type  2   force =     0.02233654   -0.04960167   38.59531124
     atom   15 type  2   force =     0.17244005   -0.03467322  -36.85399925
     atom   16 type  1   force =     0.01657756    3.92830009    0.52714296
     atom   17 type  2   force =     1.13074661    1.49404519   37.80280726
     atom   18 type  2   force =    -0.07927242   -0.61270224  -38.56877793
     atom   19 type  1   force =     2.61694278   -2.38719098    0.63119407
     atom   20 type  2   force =     0.21068543   -0.19836858  -38.52357512
     atom   21 type  1   force =     0.01688025    0.03536175    1.30688312
     atom   22 type  2   force =     0.46177161   -1.69808770   38.48049230
     atom   23 type  2   force =    -0.07745900    0.62642180  -38.27721743
     atom   24 type  1   force =    -0.51463519    0.60137587    5.15472759
     atom   25 type  2   force =     0.63445360   -0.03817410   39.21738380
     atom   26 type  2   force =    -0.21693602    0.00511752  -37.37281422
     atom   27 type  1   force =     0.19876384    0.74873842   -2.82192353
     atom   28 type  2   force =    -0.90598903    1.03852654   36.40058711
     atom   29 type  2   force =    -0.28082875   -0.39796710  -37.35209382
     atom   30 type  1   force =    -0.28661955   -0.82265146   -0.10381117
     atom   31 type  2   force =     1.28727042    0.18701280   37.28893017
     atom   32 type  2   force =    -0.42803690    0.05161499  -38.61023299
     atom   33 type  1   force =     0.64642468   -0.78320454    2.13401332
     atom   34 type  2   force =     0.17412247   -1.23847413   39.26917287
     atom   35 type  2   force =    -0.24288811    0.46473838  -37.73632887
     atom   36 type  3   force =     0.72652183    0.10475075    8.41275978
     The local contribution  to forces
     atom    1 type  1   force =    -0.04088333   -0.40952445   -5.72906408
     atom    2 type  2   force =     0.57401111   -0.14679647  -39.12318148
     atom    3 type  2   force =     0.15515817   -0.00001681   35.97516393
     atom    4 type  1   force =     0.13413419   -0.70460043   -0.18885576
     atom    5 type  2   force =     1.00328434   -1.44498995  -38.47642652
     atom    6 type  2   force =    -0.24360757    0.57418679   37.77256558
     atom    7 type  1   force =     2.60253615    2.72332516   -2.48331473
     atom    8 type  2   force =     1.06803465   -0.14540274  -37.24862231
     atom    9 type  2   force =    -0.32153218   -0.02008935   37.76252239
     atom   10 type  1   force =     0.86431906    0.43169347   -5.37429003
     atom   11 type  2   force =     0.51720059    1.57485906  -38.93096568
     atom   12 type  2   force =    -0.36414291   -0.64517407   37.63236359
     atom   13 type  1   force =    -0.65641237   -0.72231658   -2.60655272
     atom   14 type  2   force =    -0.02564449    0.05511894  -38.34592204
     atom   15 type  2   force =    -0.17091394    0.03846485   36.60463586
     atom   16 type  1   force =    -0.01287623   -3.97433195   -0.50595661
     atom   17 type  2   force =    -1.12888434   -1.46443611  -37.59243270
     atom   18 type  2   force =     0.07813384    0.61175459   38.32909132
     atom   19 type  1   force =    -2.63697572    2.39029342   -0.61829342
     atom   20 type  2   force =    -0.20764146    0.21292001   38.28020968
     atom   21 type  1   force =    -0.02347068   -0.04824554   -1.30994067
     atom   22 type  2   force =    -0.45504844    1.69406304  -38.24169170
     atom   23 type  2   force =     0.07068695   -0.61298999   38.03770284
     atom   24 type  1   force =     0.50986708   -0.62499960   -5.15065151
     atom   25 type  2   force =    -0.62538289    0.04328217  -38.97976097
     atom   26 type  2   force =     0.21186167    0.00474785   37.12170469
     atom   27 type  1   force =    -0.20280952   -0.76551032    2.81241439
     atom   28 type  2   force =     0.76366207   -1.04341974  -36.51523454
     atom   29 type  2   force =     0.27492434    0.39944228   37.09734514
     atom   30 type  1   force =     0.28250764    0.80199084    0.09757965
     atom   31 type  2   force =    -1.28040790   -0.18246203  -37.05038747
     atom   32 type  2   force =     0.42181465   -0.02959150   38.36245183
     atom   33 type  1   force =    -0.63894141    0.77992088   -2.13860011
     atom   34 type  2   force =    -0.17081322    1.23509890  -39.02794650
     atom   35 type  2   force =     0.23779072   -0.44514426   37.49743481
     atom   36 type  3   force =    -0.69768013   -0.10395697   -8.35354183
     The core correction contribution to forces
     atom    1 type  1   force =     0.00000000    0.00000000    0.00000000
     atom    2 type  2   force =    -0.00001877   -0.00038089    0.02051490
     atom    3 type  2   force =     0.00050481    0.00020717   -0.02085967
     atom    4 type  1   force =     0.00000000    0.00000000    0.00000000
     atom    5 type  2   force =    -0.00064777    0.00180427    0.01996888
     atom    6 type  2   force =     0.00010031   -0.00127185   -0.02082927
     atom    7 type  1   force =     0.00000000    0.00000000    0.00000000
     atom    8 type  2   force =    -0.00011029    0.00041979    0.02002356
     atom    9 type  2   force =    -0.00040566    0.00091480   -0.02093894
     atom   10 type  1   force =     0.00000000    0.00000000    0.00000000
     atom   11 type  2   force =    -0.00058096   -0.00072100    0.02054752
     atom   12 type  2   force =     0.00098127    0.00117772   -0.02060779
     atom   13 type  1   force =     0.00000000    0.00000000    0.00000000
     atom   14 type  2   force =    -0.00058492   -0.00026996    0.02055267
     atom   15 type  2   force =     0.00059691    0.00021858   -0.02058706
     atom   16 type  1   force =     0.00000000    0.00000000    0.00000000
     atom   17 type  2   force =     0.00057403    0.00154292    0.01893430
     atom   18 type  2   force =     0.00010367   -0.00052700   -0.02095363
     atom   19 type  1   force =     0.00000000    0.00000000    0.00000000
     atom   20 type  2   force =     0.00010398    0.00076038   -0.02108806
     atom   21 type  1   force =     0.00000000    0.00000000    0.00000000
     atom   22 type  2   force =     0.00024006   -0.00052254    0.02057829
     atom   23 type  2   force =    -0.00053704    0.00115653   -0.02079124
     atom   24 type  1   force =     0.00000000    0.00000000    0.00000000
     atom   25 type  2   force =     0.00027513   -0.00088593    0.02018657
     atom   26 type  2   force =    -0.00007744    0.00061735   -0.02095220
     atom   27 type  1   force =     0.00000000    0.00000000    0.00000000
     atom   28 type  2   force =    -0.01248504    0.00119318   -0.00304636
     atom   29 type  2   force =    -0.00062673   -0.00051871   -0.02094777
     atom   30 type  1   force =     0.00000000    0.00000000    0.00000000
     atom   31 type  2   force =     0.00055862    0.00061806    0.01995653
     atom   32 type  2   force =    -0.00010444    0.00105709   -0.02100983
     atom   33 type  1   force =     0.00000000    0.00000000    0.00000000
     atom   34 type  2   force =     0.00040873    0.00093972    0.02119741
     atom   35 type  2   force =    -0.00011555    0.00106946   -0.02102795
     atom   36 type  3   force =     0.00000000    0.00000000    0.00000000
     The Hubbard contrib.    to forces
     atom    1 type  1   force =     0.00000000    0.00000000    0.00000000
     atom    2 type  2   force =     0.00000000    0.00000000    0.00000000
     atom    3 type  2   force =     0.00000000    0.00000000    0.00000000
     atom    4 type  1   force =     0.00000000    0.00000000    0.00000000
     atom    5 type  2   force =     0.00000000    0.00000000    0.00000000
     atom    6 type  2   force =     0.00000000    0.00000000    0.00000000
     atom    7 type  1   force =     0.00000000    0.00000000    0.00000000
     atom    8 type  2   force =     0.00000000    0.00000000    0.00000000
     atom    9 type  2   force =     0.00000000    0.00000000    0.00000000
     atom   10 type  1   force =     0.00000000    0.00000000    0.00000000
     atom   11 type  2   force =     0.00000000    0.00000000    0.00000000
     atom   12 type  2   force =     0.00000000    0.00000000    0.00000000
     atom   13 type  1   force =     0.00000000    0.00000000    0.00000000
     atom   14 type  2   force =     0.00000000    0.00000000    0.00000000
     atom   15 type  2   force =     0.00000000    0.00000000    0.00000000
     atom   16 type  1   force =     0.00000000    0.00000000    0.00000000
     atom   17 type  2   force =     0.00000000    0.00000000    0.00000000
     atom   18 type  2   force =     0.00000000    0.00000000    0.00000000
     atom   19 type  1   force =     0.00000000    0.00000000    0.00000000
     atom   20 type  2   force =     0.00000000    0.00000000    0.00000000
     atom   21 type  1   force =     0.00000000    0.00000000    0.00000000
     atom   22 type  2   force =     0.00000000    0.00000000    0.00000000
     atom   23 type  2   force =     0.00000000    0.00000000    0.00000000
     atom   24 type  1   force =     0.00000000    0.00000000    0.00000000
     atom   25 type  2   force =     0.00000000    0.00000000    0.00000000
     atom   26 type  2   force =     0.00000000    0.00000000    0.00000000
     atom   27 type  1   force =     0.00000000    0.00000000    0.00000000
     atom   28 type  2   force =     0.00000000    0.00000000    0.00000000
     atom   29 type  2   force =     0.00000000    0.00000000    0.00000000
     atom   30 type  1   force =     0.00000000    0.00000000    0.00000000
     atom   31 type  2   force =     0.00000000    0.00000000    0.00000000
     atom   32 type  2   force =     0.00000000    0.00000000    0.00000000
     atom   33 type  1   force =     0.00000000    0.00000000    0.00000000
     atom   34 type  2   force =     0.00000000    0.00000000    0.00000000
     atom   35 type  2   force =     0.00000000    0.00000000    0.00000000
     atom   36 type  3   force =     0.00000000    0.00000000    0.00000000
     The SCF correction term to forces
     atom    1 type  1   force =     0.00002495    0.00006852    0.00004617
     atom    2 type  2   force =     0.00001207   -0.00005647   -0.00020495
     atom    3 type  2   force =     0.00001125    0.00002850    0.00015839
     atom    4 type  1   force =     0.00002085   -0.00010662    0.00002169
     atom    5 type  2   force =     0.00013066   -0.00006780   -0.00021840
     atom    6 type  2   force =     0.00009070   -0.00005101    0.00022345
     atom    7 type  1   force =     0.00014581    0.00003857    0.00007908
     atom    8 type  2   force =     0.00007864   -0.00008528   -0.00018611
     atom    9 type  2   force =     0.00008845   -0.00011350    0.00018008
     atom   10 type  1   force =     0.00012775    0.00013030    0.00021812
     atom   11 type  2   force =     0.00002962    0.00012487   -0.00010232
     atom   12 type  2   force =    -0.00001115    0.00010173    0.00012851
     atom   13 type  1   force =     0.00007728   -0.00018342    0.00001788
     atom   14 type  2   force =     0.00000980   -0.00001710   -0.00021517
     atom   15 type  2   force =     0.00001447    0.00001208    0.00021510
     atom   16 type  1   force =     0.00014013   -0.00018424   -0.00000001
     atom   17 type  2   force =    -0.00002977   -0.00006879   -0.00018534
     atom   18 type  2   force =    -0.00001847   -0.00003180    0.00011829
     atom   19 type  1   force =    -0.00023552    0.00014401    0.00002500
     atom   20 type  2   force =    -0.00007798   -0.00000331    0.00008254
     atom   21 type  1   force =    -0.00010119    0.00019218    0.00014484
     atom   22 type  2   force =    -0.00001442    0.00004076   -0.00020488
     atom   23 type  2   force =    -0.00003067    0.00001044    0.00021411
     atom   24 type  1   force =    -0.00004326   -0.00008080   -0.00003608
     atom   25 type  2   force =    -0.00002687   -0.00009267   -0.00028890
     atom   26 type  2   force =     0.00001697   -0.00002516    0.00020761
     atom   27 type  1   force =    -0.00021141    0.00005067    0.00005388
     atom   28 type  2   force =    -0.00002365    0.00004385   -0.00010291
     atom   29 type  2   force =    -0.00007067    0.00002466    0.00021805
     atom   30 type  1   force =     0.00006633   -0.00005797    0.00008395
     atom   31 type  2   force =    -0.00004351    0.00004864   -0.00026978
     atom   32 type  2   force =    -0.00001028    0.00001655    0.00021342
     atom   33 type  1   force =    -0.00002659    0.00002579    0.00008792
     atom   34 type  2   force =    -0.00002702    0.00011135   -0.00023919
     atom   35 type  2   force =     0.00005494    0.00002063    0.00020727
     atom   36 type  3   force =    -0.00002882    0.00000078   -0.00007537

     Total force =     0.079890     Total SCF correction =     0.001229
     Energy error            =      1.8E-02 Ry
     Gradient error          =      3.3E-02 Ry/Bohr

     number of scf cycles    =   2
     number of bfgs steps    =   1

     energy             old  =   -2205.5408366889 Ry
     energy             new  =   -2205.5591821100 Ry

     CASE: energy            _new < energy            _old

     new trust radius        =       0.0532125343 bohr
     new conv_thr            =       0.0000000327 Ry


ATOMIC_POSITIONS (angstrom)
Mo            6.5875558973        1.7662462416        2.8254644205
S             8.1590502028        0.8232789593        4.4361510866
S             8.1772082182        0.8211785471        1.2691761894
Mo            8.0773531304        4.5118501132        2.7045914818
S             6.4913801670        3.7177794063        4.3334718893
S             6.5597047290        3.5192537858        1.1239402644
Mo            6.4893072356        7.2246433751        2.6655527177
S             8.0804365062        6.3467714212        4.2641844675
S             8.0937828676        6.3053341507        1.0935865078
Mo            8.1494381221        9.9129647133        2.8199000977
S             6.4982943486        8.9406487951        4.3764744621
S             6.6162393142        9.0504869461        1.1437224722
Mo            3.4269186981        1.7539419493        2.7697124896
S             4.9847860191        0.8173576792        4.3632704309
S             5.0454152592        0.8476386976        1.2153429874
Mo            4.9817723152        4.5160363179        2.6365128023
S             3.4314495765        3.6736149131        4.2803799781
S             3.4311867244        3.5433493895        1.0743547670
Mo            3.4665944053        7.2126001744        2.6298628527
S             4.9872887724        6.3199335989        1.0370790653
Mo            5.0073274175        9.9075805064        2.7437772469
S             3.4693442845        8.9418493998        4.3237914820
S             3.4080010511        9.0663214583        1.1047844457
Mo            0.2927481860        1.7305407813        2.8291042081
S             1.8693720474        0.8126207613        4.4056711506
S             1.8477983846        0.8533588510        1.2019410542
Mo            1.8664343491        4.4983076569        2.6562805211
S             0.2670861281        3.6319715587        4.2843769652
S             0.2330875536        3.5303641660        1.1672328134
Mo            0.2673733403        7.2210207159        2.7003039035
S             1.9030379442        6.3148162120        4.2401034141
S             1.8489477945        6.3161792748        1.0517531250
Mo            1.8566658063        9.9356423558        2.7673428852
S             0.2986700422        9.0404998872        4.3978896086
S             0.2676501597        9.0540735916        1.1659924638
H             1.0843911247        3.6438567255        5.4172631540



     Writing config-only to output data dir ./MoS2-V-O.save/
     NEW-OLD atomic charge density approx. for the potential

     negative rho (up, down):  1.430E-04 0.000E+00

     total cpu time spent up to now is      202.2 secs

     Self-consistent Calculation

     iteration #  1     ecut=    80.00 Ry     beta= 0.70
     Davidson diagonalization with overlap
     ethr =  1.00E-06,  avg # of iterations =  7.0

     negative rho (up, down):  1.267E-04 0.000E+00

     total cpu time spent up to now is      216.9 secs

     total energy              =   -2205.56611100 Ry
     estimated scf accuracy    <       0.00067898 Ry

     iteration #  2     ecut=    80.00 Ry     beta= 0.70
     Davidson diagonalization with overlap
     ethr =  2.21E-07,  avg # of iterations =  5.0

     negative rho (up, down):  1.288E-04 0.000E+00

     total cpu time spent up to now is      230.6 secs

     total energy              =   -2205.56614160 Ry
     estimated scf accuracy    <       0.00015211 Ry

     iteration #  3     ecut=    80.00 Ry     beta= 0.70
     Davidson diagonalization with overlap
     ethr =  4.95E-08,  avg # of iterations =  6.0

     negative rho (up, down):  1.260E-04 0.000E+00

     total cpu time spent up to now is      242.7 secs

     total energy              =   -2205.56615796 Ry
     estimated scf accuracy    <       0.00006957 Ry

     iteration #  4     ecut=    80.00 Ry     beta= 0.70
     Davidson diagonalization with overlap
     ethr =  2.27E-08,  avg # of iterations =  2.0

     negative rho (up, down):  1.269E-04 0.000E+00

     total cpu time spent up to now is      254.7 secs

     total energy              =   -2205.56616652 Ry
     estimated scf accuracy    <       0.00000227 Ry

     iteration #  5     ecut=    80.00 Ry     beta= 0.70
     Davidson diagonalization with overlap
     ethr =  7.41E-10,  avg # of iterations =  6.0

     negative rho (up, down):  1.279E-04 0.000E+00

     total cpu time spent up to now is      269.9 secs

     total energy              =   -2205.56616904 Ry
     estimated scf accuracy    <       0.00000133 Ry

     iteration #  6     ecut=    80.00 Ry     beta= 0.70
     Davidson diagonalization with overlap
     ethr =  4.34E-10,  avg # of iterations =  2.0

     negative rho (up, down):  1.299E-04 0.000E+00

     total cpu time spent up to now is      280.3 secs

     total energy              =   -2205.56616904 Ry
     estimated scf accuracy    <       0.00000027 Ry

     iteration #  7     ecut=    80.00 Ry     beta= 0.70
     Davidson diagonalization with overlap
     ethr =  8.91E-11,  avg # of iterations =  4.0

     negative rho (up, down):  1.307E-04 0.000E+00

     total cpu time spent up to now is      295.0 secs

     total energy              =   -2205.56616909 Ry
     estimated scf accuracy    <       0.00000008 Ry

     iteration #  8     ecut=    80.00 Ry     beta= 0.70
     Davidson diagonalization with overlap
     ethr =  2.63E-11,  avg # of iterations =  6.0

     negative rho (up, down):  1.369E-04 0.000E+00

     total cpu time spent up to now is      297.0 secs

     End of self-consistent calculation

          k = 0.0000 0.0000 0.0000 (105382 PWs)   bands (ev):

   -62.8689 -62.8555 -62.8486 -62.7899 -62.7758 -62.7668 -62.7611 -62.7503
   -62.7327 -62.6236 -62.5976 -62.5770 -37.1855 -37.1380 -37.1220 -37.0998
   -37.0788 -37.0679 -37.0538 -37.0439 -37.0350 -37.0204 -37.0079 -36.9899
   -36.9827 -36.9682 -36.9634 -36.9506 -36.9495 -36.9457 -36.9431 -36.9302
   -36.9012 -36.8905 -36.8745 -36.8382 -36.8270 -36.8138 -36.8071 -36.8007
   -36.7804 -36.7686 -36.7627 -36.7513 -36.7452 -36.7205 -36.5828 -36.5588
   -16.3437 -15.6931 -15.0666 -15.0181 -14.9017 -14.7702 -14.6691 -14.4482
   -14.4170 -14.3599 -14.3343 -14.2937 -14.2612 -14.2229 -14.1497 -14.0737
   -14.0665 -14.0465 -13.9562 -13.8832 -13.7885 -13.7573 -13.7165  -9.0469
    -7.6485  -7.4034  -7.3051  -7.2257  -7.2087  -7.1556  -7.0855  -7.0385
    -6.8146  -6.7649  -6.7131  -6.6437  -6.5708  -6.4918  -6.4157  -6.3552
    -6.3166  -6.2128  -6.1764  -5.9459  -5.8959  -5.8675  -5.7793  -5.7335
    -5.6898  -5.6650  -5.6137  -5.6104  -5.6021  -5.5673  -5.5076  -5.3883
    -5.3853  -5.3130  -5.1080  -5.0631  -5.0265  -4.9913  -4.9595  -4.8999
    -4.8750  -4.7887  -4.5942  -4.5077  -4.4243  -4.3011  -4.2419  -4.2023
    -4.1830  -4.1090  -3.9795  -3.8432  -3.7567  -3.7285  -3.7115  -3.6537
    -3.6104  -3.5431  -3.5224  -3.4859  -3.4484  -3.4159  -3.3987  -3.3473
    -3.2859  -3.1919  -3.0916  -2.8502  -2.8218  -2.7547  -2.7152  -2.6820
    -2.6355  -2.6324  -2.5974  -2.5382  -2.4968  -2.2425  -1.9585  -1.9480
    -1.8452  -0.7443  -0.6151  -0.5570  -0.1424  -0.0680  -0.0311   0.0262
     0.0577   0.1454   0.2461   0.3107   0.3466   0.3766   0.4005   0.4762
     0.5389   0.6036   0.6216   0.6672   0.6959   0.7201   0.7658   0.8111
     0.8492   0.8897   0.9296   0.9561   0.9739   1.0412   1.0819   1.3663
     1.4438

     the Fermi energy is    -0.7632 ev

!    total energy              =   -2205.56616907 Ry
     estimated scf accuracy    <       0.00000002 Ry
     smearing contrib. (-TS)   =      -0.00782541 Ry
     internal energy E=F+TS    =   -2205.55834366 Ry

     The total energy is F=E-TS. E is the sum of the following terms:
     one-electron contribution =  -18056.09738714 Ry
     hartree contribution      =    9015.33985422 Ry
     xc contribution           =    -385.37871431 Ry
     ewald contribution        =    7220.57790357 Ry

     convergence has been achieved in   8 iterations

     negative rho (up, down):  1.369E-04 0.000E+00

     Forces acting on atoms (cartesian axes, Ry/au):

     atom    1 type  1   force =    -0.00308775   -0.00259224   -0.00406600
     atom    2 type  2   force =    -0.00501678    0.00284715   -0.00093440
     atom    3 type  2   force =    -0.00885593    0.00421976   -0.01235583
     atom    4 type  1   force =     0.00028950    0.00495812    0.00174076
     atom    5 type  2   force =    -0.00191395   -0.00330943   -0.00737448
     atom    6 type  2   force =     0.00059633    0.00075131   -0.00016333
     atom    7 type  1   force =     0.00273904    0.00122533    0.00057690
     atom    8 type  2   force =    -0.00209417    0.00090725    0.00875061
     atom    9 type  2   force =     0.00519003    0.00488072    0.00063504
     atom   10 type  1   force =    -0.00232768    0.00514301    0.00053005
     atom   11 type  2   force =     0.00129995    0.00092818   -0.00555459
     atom   12 type  2   force =    -0.00374765    0.00228513   -0.00253925
     atom   13 type  1   force =     0.00175079    0.00132685   -0.00036590
     atom   14 type  2   force =     0.00396697    0.00041187    0.00425524
     atom   15 type  2   force =    -0.00503783    0.00068261   -0.00540527
     atom   16 type  1   force =    -0.00212440    0.00125871    0.00028881
     atom   17 type  2   force =     0.00059495    0.00232940    0.00104745
     atom   18 type  2   force =    -0.00131317   -0.00141057    0.00502428
     atom   19 type  1   force =     0.00314015   -0.00348164    0.00317124
     atom   20 type  2   force =     0.00335834   -0.00352353   -0.00258645
     atom   21 type  1   force =    -0.00171307    0.00234635    0.00180541
     atom   22 type  2   force =     0.00062551   -0.00108872   -0.00054364
     atom   23 type  2   force =     0.00094389   -0.00077626    0.00227632
     atom   24 type  1   force =    -0.00193022   -0.00896644   -0.00462459
     atom   25 type  2   force =     0.00796468    0.00808432   -0.00150103
     atom   26 type  2   force =    -0.00241793   -0.00252800   -0.00608019
     atom   27 type  1   force =     0.00223334    0.00257721    0.00222151
     atom   28 type  2   force =     0.02830482   -0.00823998    0.01237227
     atom   29 type  2   force =    -0.00080472    0.00290245   -0.00322380
     atom   30 type  1   force =    -0.00219957   -0.00471493    0.00507956
     atom   31 type  2   force =     0.00148227   -0.00048112    0.00533656
     atom   32 type  2   force =    -0.00498000    0.00494509    0.00349198
     atom   33 type  1   force =     0.00185234    0.00128325    0.00384454
     atom   34 type  2   force =    -0.00119364   -0.02009312   -0.01376381
     atom   35 type  2   force =    -0.00361697    0.00609700    0.00438259
     atom   36 type  3   force =    -0.01195747   -0.00118507    0.00425147
     The non-local contrib.  to forces
     atom    1 type  1   force =    -0.00226902    0.02483390   -0.01286615
     atom    2 type  2   force =    -0.00016360   -0.00171323   -0.26560819
     atom    3 type  2   force =    -0.00916587   -0.00933339    0.26265166
     atom    4 type  1   force =    -0.01029623    0.00349974   -0.00919144
     atom    5 type  2   force =     0.00592978   -0.03331604   -0.24504573
     atom    6 type  2   force =    -0.00388489    0.01110999    0.26260014
     atom    7 type  1   force =    -0.02640759   -0.01057542   -0.01503687
     atom    8 type  2   force =     0.00003341    0.00257675   -0.25315489
     atom    9 type  2   force =     0.00805801   -0.01171688    0.27149940
     atom   10 type  1   force =    -0.00002179   -0.00332162   -0.00047531
     atom   11 type  2   force =     0.01168289    0.00975464   -0.25950046
     atom   12 type  2   force =    -0.01170582   -0.01239425    0.25660995
     atom   13 type  1   force =     0.00213146    0.02100073   -0.00808592
     atom   14 type  2   force =     0.00818845   -0.00473654   -0.26371707
     atom   15 type  2   force =    -0.00755705   -0.00341188    0.26286087
     atom   16 type  1   force =    -0.00337007    0.04820165   -0.02136409
     atom   17 type  2   force =    -0.00105061   -0.02846685   -0.22842417
     atom   18 type  2   force =    -0.00090102   -0.00034826    0.26778770
     atom   19 type  1   force =     0.02855415   -0.00658994   -0.01224978
     atom   20 type  2   force =     0.00049052   -0.01871373    0.26207558
     atom   21 type  1   force =     0.00342055    0.01680313    0.00385304
     atom   22 type  2   force =    -0.00604971    0.00269514   -0.26045938
     atom   23 type  2   force =     0.00825430   -0.01517178    0.26333867
     atom   24 type  1   force =     0.00033537    0.00862278   -0.01750141
     atom   25 type  2   force =     0.00014963    0.00511472   -0.25744379
     atom   26 type  2   force =     0.00163926   -0.01187154    0.26586482
     atom   27 type  1   force =     0.00801816    0.01829886    0.00739849
     atom   28 type  2   force =     0.18660454   -0.01148309    0.13346554
     atom   29 type  2   force =     0.00561779    0.00014656    0.27384314
     atom   30 type  1   force =     0.00158855    0.02056243    0.00788416
     atom   31 type  2   force =    -0.00578368   -0.00540821   -0.25146920
     atom   32 type  2   force =     0.00141467   -0.01816419    0.27242126
     atom   33 type  1   force =     0.00005495    0.00043900    0.00362032
     atom   34 type  2   force =    -0.00453381   -0.02022901   -0.27742413
     atom   35 type  2   force =     0.00058294   -0.01420218    0.26658514
     atom   36 type  3   force =    -0.03382563   -0.00069867   -0.04518064
     The ionic contribution  to forces
     atom    1 type  1   force =    -0.04882694    0.64650561    5.75870278
     atom    2 type  2   force =    -0.41527900    0.12208445   39.45369081
     atom    3 type  2   force =    -0.12508251    0.04458031  -36.38028100
     atom    4 type  1   force =     0.17377239    0.47646260    0.17037270
     atom    5 type  2   force =    -0.90760593    1.43812496   38.62517079
     atom    6 type  2   force =     0.20460228   -0.64332458  -37.96912175
     atom    7 type  1   force =    -2.52858140   -2.73266388    2.42560837
     atom    8 type  2   force =    -1.05862464    0.06469189   37.63309080
     atom    9 type  2   force =     0.32479144    0.06890573  -38.00830293
     atom   10 type  1   force =    -0.64700474   -0.44546491    5.17863155
     atom   11 type  2   force =    -0.49115995   -1.56848023   39.15872804
     atom   12 type  2   force =     0.32554419    0.62574367  -37.89840080
[...]
     atom   27 type  1   force =     0.02089123    0.01644417   -0.00631259
     atom   28 type  2   force =     0.01053939   -0.02609446    0.26831687
     atom   29 type  2   force =     0.00100984   -0.01670088    0.28254024
     atom   30 type  1   force =     0.00006200    0.01915548    0.00424422
     atom   31 type  2   force =    -0.00951159   -0.00743543   -0.25600626
     atom   32 type  2   force =     0.00457554   -0.01990106    0.26938577
     atom   33 type  1   force =     0.00287986   -0.00423851    0.00341587
     atom   34 type  2   force =    -0.00024468   -0.01130242   -0.27137476
     atom   35 type  2   force =     0.00048302   -0.01500197    0.26788010
     atom   36 type  3   force =    -0.00359854    0.00326984   -0.06384737
     The ionic contribution  to forces
     atom    1 type  1   force =     0.05601157    0.82498240    1.54738195
     atom    2 type  2   force =    -0.29943521    0.19580399   39.00063243
     atom    3 type  2   force =     0.13261012    0.01603830  -37.77645189
     atom    4 type  1   force =     0.37163899    0.82820039    1.63414681
     atom    5 type  2   force =    -0.91750437    1.18582857   38.38331128
     atom    6 type  2   force =     0.43732066   -0.13639418  -38.38961524
     atom    7 type  1   force =    -1.99841180   -3.06346581    3.85552176
     atom    8 type  2   force =    -1.18523203    0.08832858   38.34833009
     atom    9 type  2   force =     0.39753912    0.04969740  -37.33671535
     atom   10 type  1   force =    -0.21308118   -0.91830866    3.37608989
     atom   11 type  2   force =    -0.34270111   -1.34609030   38.94926143
     atom   12 type  2   force =     0.40481629    0.10222867  -38.10461974
     atom   13 type  1   force =    -0.07901220    0.78857521    0.94415348
     atom   14 type  2   force =    -0.02026287    0.12838538   38.33975414
     atom   15 type  2   force =     0.03316399   -0.02052276  -37.99025509
     atom   16 type  1   force =    -0.09159407    4.30588937   -0.52037681
     atom   17 type  2   force =     0.90604692    1.21834373   38.23681731
     atom   18 type  2   force =    -0.40410787   -0.08853760  -38.46006946
     atom   19 type  1   force =     1.98709305   -3.16478600    3.48306769
     atom   20 type  2   force =    -0.00389014   -0.19123122  -38.32507385
     atom   21 type  1   force =     0.03974579   -0.05766493    0.02331734
     atom   22 type  2   force =     0.32295645   -1.36652699   38.90833174
     atom   23 type  2   force =    -0.37533086    0.11032844  -38.19337116
     atom   24 type  1   force =    -0.04811009    1.22453070    1.84490383
     atom   25 type  2   force =     0.35031293    0.18694821   38.92488157
     atom   26 type  2   force =    -0.14189680    0.01971320  -37.89424322
     atom   27 type  1   force =    -0.25275721    0.93177166    1.19001633
     atom   28 type  2   force =    -0.10091779    0.64826610   35.07878748
     atom   29 type  2   force =    -0.01830399    0.13635818  -36.70756095
     atom   30 type  1   force =     0.00830051   -1.19353432    3.24053416
     atom   31 type  2   force =     1.22801197    0.06738606   38.26187103
     atom   32 type  2   force =    -0.41070630    0.02936739  -37.38190415
     atom   33 type  1   force =     0.15186464   -0.89834442    3.05282090
     atom   34 type  2   force =     0.02385406   -0.52279161   38.93967431
     atom   35 type  2   force =    -0.01646354   -0.13726109  -37.17655798
     atom   36 type  3   force =     0.06843236    0.01848797    8.69320792
     The local contribution  to forces
     atom    1 type  1   force =    -0.05364394   -0.84848462   -1.54378706
     atom    2 type  2   force =     0.29093597   -0.19121429  -38.76554326
     atom    3 type  2   force =    -0.13080233   -0.00418372   37.52911265
     atom    4 type  1   force =    -0.34795139   -0.84706209   -1.62351570
     atom    5 type  2   force =     0.90178796   -1.16355726  -38.15756804
     atom    6 type  2   force =    -0.43180681    0.14073229   38.14996242
     atom    7 type  1   force =     2.03443963    3.07652656   -3.83924383
     atom    8 type  2   force =     1.17744314   -0.08240285  -38.11262945
     atom    9 type  2   force =    -0.39358250   -0.03091699   37.08820606
     atom   10 type  1   force =     0.21653437    0.92361211   -3.37842542
     atom   11 type  2   force =     0.33325596    1.34672533  -38.70921083
     atom   12 type  2   force =    -0.39548914   -0.09730406   37.86594553
     atom   13 type  1   force =     0.07533342   -0.81431971   -0.93898841
     atom   14 type  2   force =     0.01958376   -0.12258133  -38.09765667
     atom   15 type  2   force =    -0.03265488    0.02398659   37.74911720
     atom   16 type  1   force =     0.09149657   -4.35892170    0.52305660
     atom   17 type  2   force =    -0.89133433   -1.19614506  -38.01165516
     atom   18 type  2   force =     0.39834688    0.09343134   38.21981082
     atom   19 type  1   force =    -2.02239723    3.17701072   -3.46885269
     atom   20 type  2   force =     0.00433799    0.20800483   38.08307501
     atom   21 type  1   force =    -0.03891053    0.04313017   -0.02633396
     atom   22 type  2   force =    -0.31340852    1.36643360  -38.66812245
     atom   23 type  2   force =     0.36698780   -0.10553177   37.95490947
     atom   24 type  1   force =     0.04909899   -1.21623439   -1.83070958
     atom   25 type  2   force =    -0.34129288   -0.18234348  -38.69037659
     atom   26 type  2   force =     0.14012400   -0.00863562   37.64717781
     atom   27 type  1   force =     0.23068912   -0.94882054   -1.18386662
     atom   28 type  2   force =     0.09158108   -0.62300791  -35.33859508
     atom   29 type  2   force =     0.01750010   -0.12055316   36.44603211
     atom   30 type  1   force =    -0.00802449    1.17385037   -3.24626803
     atom   31 type  2   force =    -1.21978181   -0.06112316  -38.02655273
     atom   32 type  2   force =     0.40602857   -0.01099418   37.13313376
     atom   33 type  1   force =    -0.15495445    0.90266950   -3.05586579
     atom   34 type  2   force =    -0.02351231    0.53265795  -38.69007498
     atom   35 type  2   force =     0.01614262    0.15170963   36.92907056
     atom   36 type  3   force =    -0.06707131   -0.01939783   -8.62807008
     The core correction contribution to forces
     atom    1 type  1   force =     0.00000000    0.00000000    0.00000000
     atom    2 type  2   force =    -0.00076068   -0.00002466    0.02020267
     atom    3 type  2   force =     0.00000837    0.00037254   -0.02102457
     atom    4 type  1   force =     0.00000000    0.00000000    0.00000000
     atom    5 type  2   force =    -0.00139647    0.00096465    0.01996469
     atom    6 type  2   force =     0.00053578   -0.00017527   -0.02074383
     atom    7 type  1   force =     0.00000000    0.00000000    0.00000000
     atom    8 type  2   force =    -0.00068662    0.00079521    0.02009886
     atom    9 type  2   force =     0.00022613    0.00127468   -0.02083010
     atom   10 type  1   force =     0.00000000    0.00000000    0.00000000
     atom   11 type  2   force =    -0.00044196   -0.00013570    0.02063480
     atom   12 type  2   force =     0.00081490    0.00047393   -0.02067342
     atom   13 type  1   force =     0.00000000    0.00000000    0.00000000
     atom   14 type  2   force =    -0.00005860   -0.00003130    0.02058922
     atom   15 type  2   force =     0.00009519    0.00020338   -0.02064363
     atom   16 type  1   force =     0.00000000    0.00000000    0.00000000
     atom   17 type  2   force =     0.00147850    0.00090019    0.01987913
     atom   18 type  2   force =    -0.00051181   -0.00013315   -0.02076400
     atom   19 type  1   force =     0.00000000    0.00000000    0.00000000
     atom   20 type  2   force =    -0.00002334    0.00069379   -0.02102630
     atom   21 type  1   force =     0.00000000    0.00000000    0.00000000
     atom   22 type  2   force =     0.00041704   -0.00014741    0.02062349
     atom   23 type  2   force =    -0.00079478    0.00053892   -0.02068403
     atom   24 type  1   force =     0.00000000    0.00000000    0.00000000
     atom   25 type  2   force =     0.00081951    0.00000735    0.02018465
     atom   26 type  2   force =    -0.00004901    0.00039706   -0.02106585
     atom   27 type  1   force =     0.00000000    0.00000000    0.00000000
     atom   28 type  2   force =    -0.00079765    0.00166135   -0.01111586
     atom   29 type  2   force =    -0.00005209    0.00069265   -0.02129251
     atom   30 type  1   force =     0.00000000    0.00000000    0.00000000
     atom   31 type  2   force =     0.00073313    0.00082667    0.02005018
     atom   32 type  2   force =    -0.00032018    0.00126053   -0.02083374
     atom   33 type  1   force =     0.00000000    0.00000000    0.00000000
     atom   34 type  2   force =     0.00004726    0.00054554    0.02099612
     atom   35 type  2   force =    -0.00002602    0.00080525   -0.02095238
     atom   36 type  3   force =     0.00000000    0.00000000    0.00000000
     The Hubbard contrib.    to forces
     atom    1 type  1   force =     0.00000000    0.00000000    0.00000000
     atom    2 type  2   force =     0.00000000    0.00000000    0.00000000
     atom    3 type  2   force =     0.00000000    0.00000000    0.00000000
     atom    4 type  1   force =     0.00000000    0.00000000    0.00000000
     atom    5 type  2   force =     0.00000000    0.00000000    0.00000000
     atom    6 type  2   force =     0.00000000    0.00000000    0.00000000
     atom    7 type  1   force =     0.00000000    0.00000000    0.00000000
     atom    8 type  2   force =     0.00000000    0.00000000    0.00000000
     atom    9 type  2   force =     0.00000000    0.00000000    0.00000000
     atom   10 type  1   force =     0.00000000    0.00000000    0.00000000
     atom   11 type  2   force =     0.00000000    0.00000000    0.00000000
     atom   12 type  2   force =     0.00000000    0.00000000    0.00000000
     atom   13 type  1   force =     0.00000000    0.00000000    0.00000000
     atom   14 type  2   force =     0.00000000    0.00000000    0.00000000
     atom   15 type  2   force =     0.00000000    0.00000000    0.00000000
     atom   16 type  1   force =     0.00000000    0.00000000    0.00000000
     atom   17 type  2   force =     0.00000000    0.00000000    0.00000000
     atom   18 type  2   force =     0.00000000    0.00000000    0.00000000
     atom   19 type  1   force =     0.00000000    0.00000000    0.00000000
     atom   20 type  2   force =     0.00000000    0.00000000    0.00000000
     atom   21 type  1   force =     0.00000000    0.00000000    0.00000000
     atom   22 type  2   force =     0.00000000    0.00000000    0.00000000
     atom   23 type  2   force =     0.00000000    0.00000000    0.00000000
     atom   24 type  1   force =     0.00000000    0.00000000    0.00000000
     atom   25 type  2   force =     0.00000000    0.00000000    0.00000000
     atom   26 type  2   force =     0.00000000    0.00000000    0.00000000
     atom   27 type  1   force =     0.00000000    0.00000000    0.00000000
     atom   28 type  2   force =     0.00000000    0.00000000    0.00000000
     atom   29 type  2   force =     0.00000000    0.00000000    0.00000000
     atom   30 type  1   force =     0.00000000    0.00000000    0.00000000
     atom   31 type  2   force =     0.00000000    0.00000000    0.00000000
     atom   32 type  2   force =     0.00000000    0.00000000    0.00000000
     atom   33 type  1   force =     0.00000000    0.00000000    0.00000000
     atom   34 type  2   force =     0.00000000    0.00000000    0.00000000
     atom   35 type  2   force =     0.00000000    0.00000000    0.00000000
     atom   36 type  3   force =     0.00000000    0.00000000    0.00000000
     The SCF correction term to forces
     atom    1 type  1   force =    -0.00004323    0.00001860   -0.00001001
     atom    2 type  2   force =    -0.00001171    0.00002094    0.00002071
     atom    3 type  2   force =    -0.00000531    0.00001496   -0.00001312
     atom    4 type  1   force =     0.00006387    0.00000788    0.00008285
     atom    5 type  2   force =     0.00000741   -0.00002576    0.00002082
     atom    6 type  2   force =    -0.00001703   -0.00004674   -0.00000914
     atom    7 type  1   force =     0.00001577    0.00007524    0.00005104
     atom    8 type  2   force =     0.00001327    0.00002010    0.00000514
     atom    9 type  2   force =     0.00002213    0.00002766    0.00002011
     atom   10 type  1   force =    -0.00003560   -0.00005129   -0.00001310
     atom   11 type  2   force =     0.00000319   -0.00002441    0.00001631
     atom   12 type  2   force =    -0.00000429   -0.00001284    0.00000121
     atom   13 type  1   force =     0.00000165   -0.00003083   -0.00002676
     atom   14 type  2   force =     0.00000661    0.00001570    0.00001128
     atom   15 type  2   force =     0.00001600    0.00002908   -0.00000180
     atom   16 type  1   force =     0.00001048   -0.00006191   -0.00002387
     atom   17 type  2   force =     0.00000631   -0.00001650   -0.00000285
     atom   18 type  2   force =     0.00002545   -0.00001457    0.00000916
     atom   19 type  1   force =     0.00000625    0.00005590    0.00003690
     atom   20 type  2   force =    -0.00001401    0.00001720    0.00000044
     atom   21 type  1   force =    -0.00001259   -0.00001746   -0.00004591
     atom   22 type  2   force =     0.00000606   -0.00001688    0.00001334
     atom   23 type  2   force =     0.00000829   -0.00001598   -0.00000357
     atom   24 type  1   force =    -0.00002055    0.00005002   -0.00000352
     atom   25 type  2   force =     0.00002224    0.00001331    0.00000716
     atom   26 type  2   force =     0.00000799    0.00000887   -0.00001156
     atom   27 type  1   force =    -0.00003371    0.00002240    0.00004075
     atom   28 type  2   force =    -0.00003974    0.00001388   -0.00003031
     atom   29 type  2   force =    -0.00000135   -0.00001132    0.00002615
     atom   30 type  1   force =    -0.00002239    0.00000263    0.00003972
     atom   31 type  2   force =    -0.00002118    0.00002312   -0.00000442
     atom   32 type  2   force =    -0.00001873    0.00002788    0.00001871
     atom   33 type  1   force =    -0.00000273   -0.00004892   -0.00000179
     atom   34 type  2   force =    -0.00000418   -0.00003470    0.00001799
     atom   35 type  2   force =     0.00000360   -0.00002735   -0.00000488
     atom   36 type  3   force =    -0.00000463    0.00000169    0.00000318

     Total force =     0.009334     Total SCF correction =     0.000268
     Energy error            =      8.6E-05 Ry
     Gradient error          =      2.6E-03 Ry/Bohr

     bfgs converged in  24 scf cycles and  23 bfgs steps
     (criteria: energy <  1.0E-04 Ry, force <  1.0E-02 Ry/Bohr)

     End of BFGS Geometry Optimization

     Final energy             =   -2205.5896606341 Ry

     File ./MoS2-V-O.bfgs deleted, as requested
Begin final coordinates

ATOMIC_POSITIONS (angstrom)
Mo            6.5963449631        1.7556327463        2.7386053453
S             8.1439951748        0.8369612857        4.3730939584
S             8.1680438896        0.8188408095        1.1637837465
Mo            8.1068930865        4.5158234799        2.7377941816
S             6.5253654487        3.6554175928        4.3031328678
S             6.6161619727        3.5589079065        1.0954690575
Mo            6.4969888061        7.2308461192        2.6963378841
S             8.0677316673        6.3332511955        4.3322137358
S             8.1424889157        6.3333034435        1.1463361765
Mo            8.1489211252        9.9328183973        2.7787932956
S             6.5117904160        8.9862041054        4.3465941743
S             6.6103516980        9.0349231118        1.1251941946
Mo            3.4381220526        1.7570826724        2.7274335962
S             5.0129981596        0.8391489581        4.3147712750
S             5.0208014967        0.8518463450        1.1330010159
Mo            5.0217668211        4.4885731685        2.6200983976
S             3.5154720205        3.6516640166        4.2924525767
S             3.4239707248        3.5611430691        1.0880943312
Mo            3.5247441891        7.2395591796        2.6891689466
S             5.0111840733        6.3192634486        1.0586010702
Mo            5.0122723108        9.9340593470        2.7125994527
S             3.5070398416        8.9946926825        4.3411892676
S             3.4122890362        9.0440917195        1.1197092046
Mo            0.2868887072        1.6917945490        2.7649469026
S             1.8880510545        0.8415896017        4.3674513375
S             1.8563116927        0.8262449186        1.1537330653
Mo            1.9294056653        4.5145324565        2.7302443976
S             0.3001638931        3.5959011179        4.2196773045
S             0.2860971117        3.5739366568        1.1926939674
Mo            0.2845849591        7.2070794460        2.7674437181
S             1.9626069159        6.3338825178        4.3263078737
S             1.8797123574        6.3365736019        1.1415965522
Mo            1.8747429820        9.9384857398        2.7726397233
S             0.2862325036        9.0278311988        4.3730863717
S             0.2814267307        9.0310476267        1.1951627044
H             0.3711356598        3.5309588452        5.5808882013
End final coordinates



     Writing all to output data dir ./MoS2-V-O.save/
 
     init_run     :      2.49s CPU      2.67s WALL (       1 calls)
     electrons    :   2307.50s CPU   2526.53s WALL (      24 calls)
     update_pot   :     32.47s CPU     33.79s WALL (      23 calls)
     forces       :     33.32s CPU     35.66s WALL (      24 calls)

     Called by init_run:
     wfcinit      :      0.39s CPU      0.44s WALL (       1 calls)
     potinit      :      1.37s CPU      1.45s WALL (       1 calls)
     hinit0       :      0.17s CPU      0.19s WALL (       1 calls)

     Called by electrons:
     c_bands      :    264.75s CPU    267.50s WALL (     212 calls)
     sum_band     :     69.94s CPU     76.10s WALL (     212 calls)
     v_of_rho     :     91.80s CPU    105.45s WALL (     228 calls)
     newd         :     38.00s CPU     42.60s WALL (     228 calls)
     mix_rho      :   1853.82s CPU   2044.32s WALL (     212 calls)

     Called by c_bands:
     init_us_2    :      4.68s CPU      4.86s WALL (     425 calls)
     init_us_2:cp :      4.68s CPU      4.86s WALL (     425 calls)
     regterg      :    249.19s CPU    251.75s WALL (     212 calls)

     Called by *egterg:
     rdiaghg      :     20.17s CPU     20.34s WALL (    1176 calls)
     h_psi        :    142.25s CPU    143.44s WALL (    1208 calls)
     s_psi        :     18.92s CPU     18.99s WALL (    1208 calls)
     g_psi        :      0.94s CPU      0.95s WALL (     995 calls)

     Called by h_psi:
     h_psi:calbec :     20.51s CPU     20.59s WALL (    1208 calls)
     vloc_psi     :    100.60s CPU    101.61s WALL (    1208 calls)
     add_vuspsi   :     18.82s CPU     18.92s WALL (    1208 calls)

     General routines
     calbec       :     29.61s CPU     29.76s WALL (    1516 calls)
     fft          :     63.53s CPU     73.56s WALL (   15307 calls)
     ffts         :    831.84s CPU   1015.84s WALL (  450718 calls)
     fftw         :     84.35s CPU     85.11s WALL (  128524 calls)
     interpolate  :      1.64s CPU      1.89s WALL (     228 calls)
 
     Parallel routines
 
     PWSCF        :  39m40.78s CPU  43m25.48s WALL

 
   This run was terminated on:   0:52:19   4Nov2023            

=------------------------------------------------------------------------------=
   JOB DONE.
=------------------------------------------------------------------------------=
