
     Program PWSCF v.7.2 starts on  4Nov2023 at  0:24:29 

     This program is part of the open-source Quantum ESPRESSO suite
     for quantum simulation of materials; please cite
         "P. Giannozzi et al., J. Phys.:Condens. Matter 21 395502 (2009);
         "P. Giannozzi et al., J. Phys.:Condens. Matter 29 465901 (2017);
         "P. Giannozzi et al., J. Chem. Phys. 152 154105 (2020);
          URL http://www.quantum-espresso.org", 
     in publications or presentations arising from this work. More details at
     http://www.quantum-espresso.org/quote

     Parallel version (MPI & OpenMP), running on      48 processor cores
     Number of MPI processes:                48
     Threads/MPI process:                     1

     MPI processes distributed on     1 nodes
     65447 MiB available memory on the printing compute node when the environment starts
 
     Waiting for input...
     Reading input from standard input
Warning: card &CELL ignored
Warning: card CELL_DYNAMICS = 'BFGS', ignored
Warning: card CELL_DOFREE = '2DXY' ignored
Warning: card / ignored

     Current dimensions of program PWSCF are:
     Max number of different atomic species (ntypx) = 10
     Max number of k-points (npk) =  40000
     Max angular momentum in pseudopotentials (lmaxx) =  4

     IMPORTANT: XC functional enforced from input :
     Exchange-correlation= RVV10
                           (   1   4  13   4  26   0   0)
     Any further DFT definition will be discarded
     Please, verify this is what you really want


     gamma-point specific algorithms are used
     signal trapping enabled: kill the code with -SIGUSR1 to stop cleanly the simulation 
 
     R & G space division:  proc/nbgrp/npool/nimage =      48
     Subspace diagonalization in iterative solution of the eigenvalue problem:
     one sub-group per band group will be used
     scalapack distributed-memory algorithm (size of sub-group:  2*  2 procs)

 
     Parallelization info
     --------------------
     sticks:   dense  smooth     PW     G-vecs:    dense   smooth      PW
     Min         243     194     47                49060    35090    4376
     Max         246     196     50                49086    35128    4410
     Sum       11735    9389   2349              2355467  1685513  210763
 
     Using Slab Decomposition
 


     bravais-lattice index     =            0
     lattice parameter (alat)  =      17.8707  a.u.
     unit-cell volume          =   17436.2743 (a.u.)^3
     number of atoms/cell      =           36
     number of atomic types    =            3
     number of electrons       =       307.00
     number of Kohn-Sham states=          185
     kinetic-energy cutoff     =      80.0000  Ry
     charge density cutoff     =     400.0000  Ry
     scf convergence threshold =      1.0E-06
     mixing beta               =       0.7000
     number of iterations used =            8  local-TF  mixing
     energy convergence thresh.=      1.0E-04
     force convergence thresh. =      1.0E-02
     Exchange-correlation= RVV10
                           (   1   4  13   4  26   0   0)
     nstep                     =          200


     celldm(1)=  17.870686  celldm(2)=   0.000000  celldm(3)=   0.000000
     celldm(4)=   0.000000  celldm(5)=   0.000000  celldm(6)=   0.000000

     crystal axes: (cart. coord. in units of alat)
               a(1) = (   1.000000   0.000000   0.000000 )  
               a(2) = (   0.000000   1.155671   0.000000 )  
               a(3) = (   0.000000   0.000000   2.643601 )  

     reciprocal axes: (cart. coord. in units 2 pi/alat)
               b(1) = (  1.000000  0.000000  0.000000 )  
               b(2) = (  0.000000  0.865298  0.000000 )  
               b(3) = (  0.000000  0.000000  0.378272 )  


     PseudoPot. # 1 for Mo read from file:
     ../pseudo/Mo_ONCV_PBE-1.0.oncvpsp.upf
     MD5 check sum: 1b5d28e075c9ccadda658a603575cd1f
     Pseudo is Norm-conserving, Zval = 14.0
     Generated using ONCVPSP code by D. R. Hamann
     Using radial grid of 1526 points,  6 beta functions with: 
                l(1) =   0
                l(2) =   0
                l(3) =   1
                l(4) =   1
                l(5) =   2
                l(6) =   2

     PseudoPot. # 2 for S  read from file:
     ../pseudo/s_pbe_v1.4.uspp.F.UPF
     MD5 check sum: 88d86576ff6df21479756cfb9bdac1df
     Pseudo is Ultrasoft + core correction, Zval =  6.0
     Generated by new atomic code, or converted to UPF format
     Using radial grid of  907 points,  6 beta functions with: 
                l(1) =   0
                l(2) =   0
                l(3) =   1
                l(4) =   1
                l(5) =   2
                l(6) =   2
     Q(r) pseudized with  8 coefficients,  rinner =    1.300   1.300   1.300
                                                       1.300   1.300

     PseudoPot. # 3 for H  read from file:
     ../pseudo/H_ONCV_PBE-1.0.oncvpsp.upf
     MD5 check sum: 1790becc920ee074925cf490c71280fe
     Pseudo is Norm-conserving, Zval =  1.0
     Generated using ONCVPSP code by D. R. Hamann
     Using radial grid of 1166 points,  2 beta functions with: 
                l(1) =   0
                l(2) =   0

     atomic species   valence    mass     pseudopotential
        Mo            14.00    95.94000     Mo( 1.00)
        S              6.00    32.06500     S ( 1.00)
        H              1.00     1.00794     H ( 1.00)

     No symmetry found



   Cartesian axes

     site n.     atom                  positions (alat units)
         1           Mo  tau(   1) = (   0.6952221   0.1890506   0.2985846  )
         2           S   tau(   2) = (   0.8646417   0.0856217   0.4689279  )
         3           S   tau(   3) = (   0.8663890   0.0857843   0.1351291  )
         4           Mo  tau(   4) = (   0.8560186   0.4753274   0.2873942  )
         5           S   tau(   5) = (   0.6873294   0.3936244   0.4596353  )
         6           S   tau(   6) = (   0.6929804   0.3713468   0.1185692  )
         7           Mo  tau(   7) = (   0.6862796   0.7633098   0.2825370  )
         8           S   tau(   8) = (   0.8545980   0.6708292   0.4486168  )
         9           S   tau(   9) = (   0.8545123   0.6666874   0.1146125  )
        10           Mo  tau(  10) = (   0.8629403   1.0471007   0.3006803  )
        11           S   tau(  11) = (   0.6868280   0.9456650   0.4634891  )
        12           S   tau(  12) = (   0.6998113   0.9568511   0.1205389  )
        13           Mo  tau(  13) = (   0.3618216   0.1847309   0.2935964  )
        14           S   tau(  14) = (   0.5260962   0.0863870   0.4600448  )
        15           S   tau(  15) = (   0.5348379   0.0894875   0.1297123  )
        16           Mo  tau(  16) = (   0.5265817   0.4772436   0.2784130  )
        17           S   tau(  17) = (   0.3624753   0.3882513   0.4525556  )
        18           S   tau(  18) = (   0.3635411   0.3752055   0.1119148  )
        19           Mo  tau(  19) = (   0.3652268   0.7630864   0.2781795  )
        20           S   tau(  20) = (   0.5269494   0.6690381   0.1096838  )
        21           Mo  tau(  21) = (   0.5300192   1.0470394   0.2900995  )
        22           S   tau(  22) = (   0.3670346   0.9457522   0.4574073  )
        23           S   tau(  23) = (   0.3604225   0.9585725   0.1159032  )
        24           Mo  tau(  24) = (   0.0313099   0.1847895   0.3013130  )
        25           S   tau(  25) = (   0.1956761   0.0838230   0.4650863  )
        26           S   tau(  26) = (   0.1967693   0.0903508   0.1278874  )
        27           Mo  tau(  27) = (   0.1967578   0.4753919   0.2813011  )
        28           S   tau(  28) = (   0.0287851   0.3864324   0.4586755  )
        29           S   tau(  29) = (   0.0244514   0.3729871   0.1239344  )
        30           Mo  tau(  30) = (   0.0286728   0.7631204   0.2856894  )
        31           S   tau(  31) = (   0.2011512   0.6675435   0.4465001  )
        32           S   tau(  32) = (   0.1969214   0.6672839   0.1104564  )
        33           Mo  tau(  33) = (   0.1950294   1.0511147   0.2932237  )
        34           S   tau(  34) = (   0.0312912   0.9612169   0.4667423  )
        35           S   tau(  35) = (   0.0292670   0.9563028   0.1216485  )
        36           H   tau(  36) = (   0.3333333   0.3852236   0.5650415  )

     number of k points=     1  Gaussian smearing, width (Ry)=  0.0100
                       cart. coord. in units 2pi/alat
        k(    1) = (   0.0000000   0.0000000   0.0000000), wk =   2.0000000

     Dense  grid:  1177734 G-vectors     FFT dimensions: ( 120, 135, 320)

     Smooth grid:   842757 G-vectors     FFT dimensions: ( 108, 120, 270)

     Estimated max dynamical RAM per process >     146.59 MB

     Estimated total dynamical RAM >       6.87 GB

     Initial potential from superposition of free atoms

     starting charge     306.9873, renormalised to     307.0000

     negative rho (up, down):  1.407E-04 0.000E+00


---------------------------------------------------------------------------------
Carrying out rVV10 run using the following parameters:
Nqs =      20    Nr_points =    1024   r_max =   100.000
b_value =  6.30000    beta =  0.00901
     q_mesh =  0.00010000  0.00030000  0.00058939  0.00100810
               0.00161396  0.00249058  0.00375900  0.00559430
               0.00824984  0.01209221  0.01765183  0.02569619
               0.03733578  0.05417739  0.07854596  0.11380545
               0.16482331  0.23864234  0.34545298  0.50000000

Gradients computed in Reciprocal space

---------------------------------------------------------------------------------


     Starting wfcs are  213 randomized atomic wfcs

     total cpu time spent up to now is        2.8 secs

     Self-consistent Calculation

     iteration #  1     ecut=    80.00 Ry     beta= 0.70
     Davidson diagonalization with overlap
     ethr =  1.00E-02,  avg # of iterations =  2.0

     Threshold (ethr) on eigenvalues was too large:
     Diagonalizing with lowered threshold

     Davidson diagonalization with overlap
     ethr =  3.77E-04,  avg # of iterations =  4.0

     negative rho (up, down):  1.366E-08 0.000E+00

     total cpu time spent up to now is       21.8 secs

     total energy              =   -2205.55704544 Ry
     estimated scf accuracy    <       1.43961887 Ry

     iteration #  2     ecut=    80.00 Ry     beta= 0.70
     Davidson diagonalization with overlap
     ethr =  4.69E-04,  avg # of iterations =  1.0

     total cpu time spent up to now is       24.1 secs

     total energy              =   -2205.36754614 Ry
     estimated scf accuracy    <       0.60799513 Ry

     iteration #  3     ecut=    80.00 Ry     beta= 0.70
     Davidson diagonalization with overlap
     ethr =  1.98E-04,  avg # of iterations =  2.0

     total cpu time spent up to now is       26.6 secs

     total energy              =   -2205.47147358 Ry
     estimated scf accuracy    <       0.06493063 Ry

     iteration #  4     ecut=    80.00 Ry     beta= 0.70
     Davidson diagonalization with overlap
     c_bands:  1 eigenvalues not converged
     ethr =  2.12E-05,  avg # of iterations = 20.0

     total cpu time spent up to now is       30.1 secs

     total energy              =   -2205.47350484 Ry
     estimated scf accuracy    <       0.03313506 Ry

     iteration #  5     ecut=    80.00 Ry     beta= 0.70
     Davidson diagonalization with overlap
     ethr =  1.08E-05,  avg # of iterations =  2.0

     total cpu time spent up to now is       32.6 secs

     total energy              =   -2205.47257772 Ry
     estimated scf accuracy    <       0.02036545 Ry

     iteration #  6     ecut=    80.00 Ry     beta= 0.70
     Davidson diagonalization with overlap
     ethr =  6.63E-06,  avg # of iterations =  2.0

     total cpu time spent up to now is       35.0 secs

     total energy              =   -2205.47197496 Ry
     estimated scf accuracy    <       0.01451345 Ry

     iteration #  7     ecut=    80.00 Ry     beta= 0.70
     Davidson diagonalization with overlap
     ethr =  4.73E-06,  avg # of iterations =  1.0

     total cpu time spent up to now is       37.4 secs

     total energy              =   -2205.46985227 Ry
     estimated scf accuracy    <       0.00983836 Ry

     iteration #  8     ecut=    80.00 Ry     beta= 0.70
     Davidson diagonalization with overlap
     ethr =  3.20E-06,  avg # of iterations = 18.0

     negative rho (up, down):  7.878E-03 0.000E+00

     total cpu time spent up to now is       42.1 secs

     total energy              =   -2205.46937856 Ry
     estimated scf accuracy    <       0.00491990 Ry

     iteration #  9     ecut=    80.00 Ry     beta= 0.70
     Davidson diagonalization with overlap
     ethr =  1.60E-06,  avg # of iterations =  2.0

     negative rho (up, down):  3.004E-02 0.000E+00

     total cpu time spent up to now is       46.1 secs

     total energy              =   -2205.46890954 Ry
     estimated scf accuracy    <       0.00314136 Ry

     iteration # 10     ecut=    80.00 Ry     beta= 0.70
     Davidson diagonalization with overlap
     ethr =  1.02E-06,  avg # of iterations =  2.0

     negative rho (up, down):  3.009E-02 0.000E+00

     total cpu time spent up to now is       51.9 secs

     total energy              =   -2205.46892469 Ry
     estimated scf accuracy    <       0.00123975 Ry

     iteration # 11     ecut=    80.00 Ry     beta= 0.70
     Davidson diagonalization with overlap
     ethr =  4.04E-07,  avg # of iterations =  5.0

     negative rho (up, down):  1.742E-02 0.000E+00

     total cpu time spent up to now is       58.8 secs

     total energy              =   -2205.46894889 Ry
     estimated scf accuracy    <       0.00046715 Ry

     iteration # 12     ecut=    80.00 Ry     beta= 0.70
     Davidson diagonalization with overlap
     ethr =  1.52E-07,  avg # of iterations =  2.0

     negative rho (up, down):  3.274E-03 0.000E+00

     total cpu time spent up to now is       65.5 secs

     total energy              =   -2205.46900819 Ry
     estimated scf accuracy    <       0.00010814 Ry

     iteration # 13     ecut=    80.00 Ry     beta= 0.70
     Davidson diagonalization with overlap
     ethr =  3.52E-08,  avg # of iterations =  6.0

     negative rho (up, down):  1.417E-03 0.000E+00

     total cpu time spent up to now is       73.4 secs

     total energy              =   -2205.46903140 Ry
     estimated scf accuracy    <       0.00001215 Ry

     iteration # 14     ecut=    80.00 Ry     beta= 0.70
     Davidson diagonalization with overlap
     ethr =  3.96E-09,  avg # of iterations =  5.0

     negative rho (up, down):  4.957E-04 0.000E+00

     total cpu time spent up to now is       83.3 secs

     total energy              =   -2205.46903895 Ry
     estimated scf accuracy    <       0.00000560 Ry

     iteration # 15     ecut=    80.00 Ry     beta= 0.70
     Davidson diagonalization with overlap
     ethr =  1.82E-09,  avg # of iterations =  2.0

     negative rho (up, down):  4.256E-04 0.000E+00

     total cpu time spent up to now is       92.5 secs

     total energy              =   -2205.46904222 Ry
     estimated scf accuracy    <       0.00000222 Ry

     iteration # 16     ecut=    80.00 Ry     beta= 0.70
     Davidson diagonalization with overlap
     ethr =  7.24E-10,  avg # of iterations =  5.0

     negative rho (up, down):  1.371E-04 0.000E+00

     total cpu time spent up to now is       94.9 secs

     End of self-consistent calculation

          k = 0.0000 0.0000 0.0000 (105382 PWs)   bands (ev):

   -62.8672 -62.8364 -62.7926 -62.7807 -62.7680 -62.7565 -62.7353 -62.7094
   -62.6956 -62.5819 -62.5208 -62.4778 -37.1745 -37.1094 -37.0886 -37.0743
   -37.0649 -37.0366 -37.0314 -37.0063 -36.9895 -36.9850 -36.9792 -36.9620
   -36.9588 -36.9541 -36.9495 -36.9372 -36.9293 -36.9221 -36.9033 -36.8971
   -36.8671 -36.8550 -36.8476 -36.8085 -36.8055 -36.7952 -36.7699 -36.7677
   -36.7423 -36.7363 -36.7116 -36.6850 -36.6536 -36.6328 -36.5009 -36.4698
   -17.4290 -15.7934 -15.0383 -15.0118 -14.8431 -14.7732 -14.6660 -14.4052
   -14.3634 -14.3124 -14.3003 -14.2561 -14.2276 -14.2098 -14.1232 -14.0491
   -14.0272 -13.9975 -13.9249 -13.8223 -13.7360 -13.7195 -13.6905 -10.0639
    -7.6121  -7.3689  -7.3056  -7.2558  -7.1794  -7.1134  -7.0865  -7.0679
    -6.8067  -6.7274  -6.6653  -6.6181  -6.5202  -6.4660  -6.4114  -6.3501
    -6.3067  -6.2160  -6.1393  -5.9400  -5.8906  -5.8253  -5.7813  -5.7127
    -5.6533  -5.6364  -5.6114  -5.5665  -5.5432  -5.4782  -5.4448  -5.4023
    -5.3418  -5.2896  -5.1069  -5.0656  -4.9878  -4.9311  -4.9095  -4.8768
    -4.8318  -4.7534  -4.6359  -4.5430  -4.4033  -4.2798  -4.2153  -4.1598
    -4.1097  -3.9365  -3.9256  -3.7881  -3.7537  -3.7395  -3.6636  -3.6211
    -3.5685  -3.5338  -3.4619  -3.4479  -3.4015  -3.3624  -3.3460  -3.2925
    -3.2676  -3.1270  -3.0969  -2.8159  -2.7938  -2.7327  -2.6783  -2.6663
    -2.6328  -2.5717  -2.5630  -2.5101  -2.4876  -2.1778  -1.9543  -1.8987
    -1.7761  -0.7260  -0.6032  -0.1844  -0.1074  -0.0544   0.0185   0.0430
     0.0987   0.2247   0.2624   0.3075   0.3387   0.3503   0.4504   0.5569
     0.5628   0.6378   0.6446   0.6983   0.7199   0.7702   0.7908   0.8386
     0.8694   0.8933   0.9609   1.0049   1.0406   1.0610   1.1320   1.2865
     1.4284

     the Fermi energy is    -0.7435 ev

!    total energy              =   -2205.46904261 Ry
     estimated scf accuracy    <       0.00000061 Ry
     smearing contrib. (-TS)   =      -0.00749649 Ry
     internal energy E=F+TS    =   -2205.46154612 Ry

     The total energy is F=E-TS. E is the sum of the following terms:
     one-electron contribution =  -18050.12427960 Ry
     hartree contribution      =    9012.64460921 Ry
     xc contribution           =    -385.53721439 Ry
     ewald contribution        =    7217.55533867 Ry

     convergence has been achieved in  16 iterations

     negative rho (up, down):  1.371E-04 0.000E+00

     Forces acting on atoms (cartesian axes, Ry/au):

     atom    1 type  1   force =     0.01108179   -0.02449666    0.00410071
     atom    2 type  2   force =    -0.01507884    0.01734773    0.00126488
     atom    3 type  2   force =    -0.01214206    0.00893262   -0.00302567
     atom    4 type  1   force =     0.01590042   -0.00350138    0.00633417
     atom    5 type  2   force =     0.00510605   -0.00571518   -0.01190191
     atom    6 type  2   force =     0.00397947    0.01152008    0.00100702
     atom    7 type  1   force =     0.00147797    0.01165431   -0.01007170
     atom    8 type  2   force =     0.00110036   -0.00381333    0.01815506
     atom    9 type  2   force =     0.01367540    0.00284992    0.01055085
     atom   10 type  1   force =    -0.01179464    0.00952475   -0.02812789
     atom   11 type  2   force =     0.00317864   -0.00362042   -0.00482499
     atom   12 type  2   force =    -0.00044428    0.00082906    0.00656288
     atom   13 type  1   force =     0.00183216   -0.00132359    0.00196956
     atom   14 type  2   force =     0.01042640   -0.00305033    0.01106055
     atom   15 type  2   force =    -0.01149187    0.00211378   -0.00962438
     atom   16 type  1   force =    -0.00288555    0.01200998    0.00306515
     atom   17 type  2   force =     0.12077409    0.00858944   -0.49304075
     atom   18 type  2   force =    -0.00454158   -0.00655654    0.01678321
     atom   19 type  1   force =     0.01432415   -0.01009608   -0.00216416
     atom   20 type  2   force =     0.00518886   -0.00866445    0.00267859
     atom   21 type  1   force =    -0.00247496    0.00651410    0.00090452
     atom   22 type  2   force =    -0.00267698   -0.00219282   -0.00116501
     atom   23 type  2   force =    -0.00106865    0.00360213    0.00799499
     atom   24 type  1   force =    -0.00767837   -0.00113881   -0.02258013
     atom   25 type  2   force =     0.01487103    0.01571585    0.00772523
     atom   26 type  2   force =    -0.00984148   -0.00049083   -0.00546574
     atom   27 type  1   force =    -0.01621104   -0.00386516    0.00965709
     atom   28 type  2   force =    -0.00251956   -0.00063638   -0.00868648
     atom   29 type  2   force =     0.00454547    0.00198795   -0.00417554
     atom   30 type  1   force =    -0.00406705    0.00837023   -0.00524253
     atom   31 type  2   force =     0.00063449    0.00432381    0.01860483
     atom   32 type  2   force =    -0.01148960    0.00417452    0.00600162
     atom   33 type  1   force =     0.01444039   -0.00451024   -0.00748331
     atom   34 type  2   force =     0.00270385   -0.04410031   -0.01151477
     atom   35 type  2   force =    -0.00818229    0.00707102    0.01623825
     atom   36 type  3   force =    -0.12065220   -0.00935878    0.47843582
     The non-local contrib.  to forces
     atom    1 type  1   force =     0.00188069    0.03117312   -0.01328273
     atom    2 type  2   force =    -0.01123100    0.00637549   -0.26816325
     atom    3 type  2   force =    -0.01520757   -0.00121737    0.27178964
     atom    4 type  1   force =    -0.00515547    0.01656656    0.00674514
     atom    5 type  2   force =     0.00764530   -0.02721115   -0.24704081
     atom    6 type  2   force =    -0.00165862    0.01519431    0.26099239
     atom    7 type  1   force =    -0.02715148   -0.01135392   -0.00883416
     atom    8 type  2   force =     0.00631857   -0.00538339   -0.25350071
     atom    9 type  2   force =     0.01204914   -0.01332535    0.27750157
     atom   10 type  1   force =     0.00258874   -0.00206012   -0.00031164
     atom   11 type  2   force =     0.01325427    0.00671733   -0.25955277
     atom   12 type  2   force =    -0.01085124   -0.01513682    0.26086950
     atom   13 type  1   force =     0.00450927    0.00913457   -0.01337618
     atom   14 type  2   force =     0.00700191   -0.00613925   -0.25606397
     atom   15 type  2   force =    -0.01572991   -0.00527833    0.26159404
     atom   16 type  1   force =     0.00355141    0.05135099   -0.01423516
     atom   17 type  2   force =     0.01441133   -0.01617116   -0.16477343
     atom   18 type  2   force =    -0.00474159   -0.00592604    0.28163342
     atom   19 type  1   force =     0.02892655   -0.00589520   -0.01054739
     atom   20 type  2   force =    -0.00082221   -0.02624551    0.26526133
     atom   21 type  1   force =     0.00574374    0.01288540    0.00295874
     atom   22 type  2   force =    -0.00771621    0.00317143   -0.25810736
     atom   23 type  2   force =     0.00660645   -0.01382198    0.26748493
     atom   24 type  1   force =     0.00185248    0.01211108   -0.01151094
     atom   25 type  2   force =     0.01488090    0.01211770   -0.25236044
     atom   26 type  2   force =     0.00111294   -0.01457888    0.26691994
     atom   27 type  1   force =    -0.00038803    0.02108531   -0.00141058
     atom   28 type  2   force =     0.00213984   -0.01955279   -0.26713400
     atom   29 type  2   force =     0.00934351    0.00594321    0.26436079
     atom   30 type  1   force =    -0.00497903    0.02102162    0.01237002
     atom   31 type  2   force =    -0.00610747   -0.00333471   -0.24342104
     atom   32 type  2   force =    -0.00795717   -0.01999783    0.27262193
     atom   33 type  1   force =    -0.00864321   -0.00063210    0.00433485
     atom   34 type  2   force =     0.00116698   -0.03925505   -0.27408474
     atom   35 type  2   force =    -0.00236810   -0.01215037    0.27222501
     atom   36 type  3   force =     0.03180911    0.00361997   -0.11971410
     The ionic contribution  to forces
     atom    1 type  1   force =     0.52603443    0.09558590    5.59390240
     atom    2 type  2   force =    -0.67860439    0.33929159   39.27837364
     atom    3 type  2   force =    -0.16828332   -0.01014731  -36.08875429
     atom    4 type  1   force =     0.06340862    0.63629713    0.58221672
     atom    5 type  2   force =    -0.78008094    1.50249717   38.69161957
     atom    6 type  2   force =     0.37409239   -0.50301537  -38.06157096
     atom    7 type  1   force =    -2.55229531   -2.66952363    2.54381750
     atom    8 type  2   force =    -0.99589136    0.09365030   37.38232771
     atom    9 type  2   force =     0.33896404   -0.01140211  -38.00784132
     atom   10 type  1   force =    -1.10898820   -0.35597240    5.68343053
     atom   11 type  2   force =    -0.53974437   -1.59825951   39.14618536
     atom   12 type  2   force =     0.45062482    0.69448059  -37.84249394
     atom   13 type  1   force =     0.53640244    0.57423354    2.36726890
     atom   14 type  2   force =     0.17558645   -0.19841099   38.46807792
     atom   15 type  2   force =     0.18146666   -0.10558611  -36.83503390
     atom   16 type  1   force =     0.28118013    4.11078405    0.05776906
     atom   17 type  2   force =     1.50398735    1.57189436   35.27320088
     atom   18 type  2   force =    -0.15209541   -0.64929891  -38.67833959
     atom   19 type  1   force =     2.73856322   -2.22761888    0.53363863
     atom   20 type  2   force =     0.25088425   -0.15801332  -38.50883837
     atom   21 type  1   force =     0.09289657   -0.01986345    1.14772225
     atom   22 type  2   force =     0.46477008   -1.70141092   38.42711721
     atom   23 type  2   force =    -0.08456335    0.66758715  -38.29094252
     atom   24 type  1   force =    -0.74085423    0.96642123    5.68827214
     atom   25 type  2   force =     0.55020329    0.04094878   39.20566196
     atom   26 type  2   force =    -0.30820663    0.01792283  -37.37158592
     atom   27 type  1   force =    -0.27023670    0.61497124   -2.83307061
     atom   28 type  2   force =    -0.22778482    1.00760720   38.11292690
     atom   29 type  2   force =    -0.30315241   -0.43034875  -37.31435088
     atom   30 type  1   force =    -0.42032031   -0.77567071   -0.07155935
     atom   31 type  2   force =     1.11011074    0.20268466   37.23713840
     atom   32 type  2   force =    -0.49908812    0.03757797  -38.67337775
     atom   33 type  1   force =     0.74791323   -0.93943744    2.03763290
     atom   34 type  2   force =     0.21056785   -1.43932796   39.35945756
     atom   35 type  2   force =    -0.31105008    0.47980604  -37.80597206
     atom   36 type  3   force =    -0.45641661    0.13906602    9.56597332
     The local contribution  to forces
     atom    1 type  1   force =    -0.51682904   -0.15126604   -5.57562842
     atom    2 type  2   force =     0.67445405   -0.32795727  -39.02914749
     atom    3 type  2   force =     0.17065950    0.02034644   35.83526131
     atom    4 type  1   force =    -0.04246071   -0.65627425   -0.58174160
     atom    5 type  2   force =     0.77794151   -1.48262414  -38.47604427
     atom    6 type  2   force =    -0.36863827    0.50057583   37.82271772
     atom    7 type  1   force =     2.58097271    2.69253868   -2.54408977
     atom    8 type  2   force =     0.99086101   -0.09265149  -37.13060097
     atom    9 type  2   force =    -0.33696851    0.02677566   37.76227961
     atom   10 type  1   force =     1.09456442    0.36748396   -5.71037183
     atom   11 type  2   force =     0.53032469    1.58855219  -38.91165615
     atom   12 type  2   force =    -0.44125895   -0.67978490   37.60928212
     atom   13 type  1   force =    -0.53905357   -0.58459726   -2.35093506
     atom   14 type  2   force =    -0.17186072    0.20189597  -38.22072782
     atom   15 type  2   force =    -0.17808272    0.11264703   36.58475312
     atom   16 type  1   force =    -0.28761331   -4.15011627   -0.03940845
     atom   17 type  2   force =    -1.39792057   -1.54816700  -35.61324082
     atom   18 type  2   force =     0.15209065    0.64895729   38.43531833
     atom   19 type  1   force =    -2.75299118    2.22336908   -0.52433292
     atom   20 type  2   force =    -0.24492362    0.17447784   38.26779078
     atom   21 type  1   force =    -0.10097211    0.01345935   -1.14889480
     atom   22 type  2   force =    -0.45999189    1.69665294  -38.19016680
     atom   23 type  2   force =     0.07740506   -0.65118343   38.05260322
     atom   24 type  1   force =     0.73128490   -0.97973335   -5.69844832
     atom   25 type  2   force =    -0.54974271   -0.03639892  -38.96529641
     atom   26 type  2   force =     0.29759875   -0.00464814   37.12056940
     atom   27 type  1   force =     0.25449429   -0.64005673    2.84514868
     atom   28 type  2   force =     0.22353006   -0.99026219  -37.87447267
     atom   29 type  2   force =     0.29910700    0.42714226   37.06681207
     atom   30 type  1   force =     0.42102401    0.76310903    0.05485833
     atom   31 type  2   force =    -1.10365530   -0.19568890  -36.99446029
     atom   32 type  2   force =     0.49533290   -0.01463175   38.42802638
     atom   33 type  1   force =    -0.72492402    0.93562611   -2.04857364
     atom   34 type  2   force =    -0.20930619    1.43329521  -39.11764236
     atom   35 type  2   force =     0.30532465   -0.46155421   37.57151126
     atom   36 type  3   force =     0.30396292   -0.15204900   -8.96776629
     The core correction contribution to forces
     atom    1 type  1   force =     0.00000000    0.00000000    0.00000000
     atom    2 type  2   force =     0.00028210   -0.00040671    0.02059292
     atom    3 type  2   force =     0.00067269   -0.00008860   -0.02096210
     atom    4 type  1   force =     0.00000000    0.00000000    0.00000000
     atom    5 type  2   force =    -0.00046396    0.00162090    0.01993873
     atom    6 type  2   force =     0.00017147   -0.00125660   -0.02076469
     atom    7 type  1   force =     0.00000000    0.00000000    0.00000000
     atom    8 type  2   force =    -0.00028425    0.00062520    0.02029276
     atom    9 type  2   force =    -0.00044730    0.00084288   -0.02099766
     atom   10 type  1   force =     0.00000000    0.00000000    0.00000000
     atom   11 type  2   force =    -0.00062929   -0.00068563    0.02053389
     atom   12 type  2   force =     0.00106105    0.00122948   -0.02067520
     atom   13 type  1   force =     0.00000000    0.00000000    0.00000000
     atom   14 type  2   force =    -0.00027735   -0.00039419    0.02020003
     atom   15 type  2   force =     0.00088718    0.00030127   -0.02061506
     atom   16 type  1   force =     0.00000000    0.00000000    0.00000000
     atom   17 type  2   force =     0.00034625    0.00105378    0.01212282
     atom   18 type  2   force =     0.00020606   -0.00029188   -0.02146579
     atom   19 type  1   force =     0.00000000    0.00000000    0.00000000
     atom   20 type  2   force =     0.00018041    0.00109400   -0.02115851
     atom   21 type  1   force =     0.00000000    0.00000000    0.00000000
     atom   22 type  2   force =     0.00026004   -0.00050506    0.02042655
     atom   23 type  2   force =    -0.00052163    0.00114700   -0.02085415
     atom   24 type  1   force =     0.00000000    0.00000000    0.00000000
     atom   25 type  2   force =    -0.00047107   -0.00099083    0.02013740
     atom   26 type  2   force =    -0.00037388    0.00074639   -0.02103731
     atom   27 type  1   force =     0.00000000    0.00000000    0.00000000
     atom   28 type  2   force =    -0.00035983    0.00156309    0.02039616
     atom   29 type  2   force =    -0.00074143   -0.00076947   -0.02065456
     atom   30 type  1   force =     0.00000000    0.00000000    0.00000000
     atom   31 type  2   force =     0.00024617    0.00056932    0.01981861
     atom   32 type  2   force =     0.00015632    0.00116121   -0.02098815
     atom   33 type  1   force =     0.00000000    0.00000000    0.00000000
     atom   34 type  2   force =     0.00025956    0.00122532    0.02113647
     atom   35 type  2   force =    -0.00010429    0.00103513   -0.02114923
     atom   36 type  3   force =     0.00000000    0.00000000    0.00000000
     The Hubbard contrib.    to forces
     atom    1 type  1   force =     0.00000000    0.00000000    0.00000000
     atom    2 type  2   force =     0.00000000    0.00000000    0.00000000
     atom    3 type  2   force =     0.00000000    0.00000000    0.00000000
     atom    4 type  1   force =     0.00000000    0.00000000    0.00000000
     atom    5 type  2   force =     0.00000000    0.00000000    0.00000000
     atom    6 type  2   force =     0.00000000    0.00000000    0.00000000
     atom    7 type  1   force =     0.00000000    0.00000000    0.00000000
     atom    8 type  2   force =     0.00000000    0.00000000    0.00000000
     atom    9 type  2   force =     0.00000000    0.00000000    0.00000000
     atom   10 type  1   force =     0.00000000    0.00000000    0.00000000
     atom   11 type  2   force =     0.00000000    0.00000000    0.00000000
     atom   12 type  2   force =     0.00000000    0.00000000    0.00000000
     atom   13 type  1   force =     0.00000000    0.00000000    0.00000000
     atom   14 type  2   force =     0.00000000    0.00000000    0.00000000
     atom   15 type  2   force =     0.00000000    0.00000000    0.00000000
     atom   16 type  1   force =     0.00000000    0.00000000    0.00000000
     atom   17 type  2   force =     0.00000000    0.00000000    0.00000000
     atom   18 type  2   force =     0.00000000    0.00000000    0.00000000
     atom   19 type  1   force =     0.00000000    0.00000000    0.00000000
     atom   20 type  2   force =     0.00000000    0.00000000    0.00000000
     atom   21 type  1   force =     0.00000000    0.00000000    0.00000000
     atom   22 type  2   force =     0.00000000    0.00000000    0.00000000
     atom   23 type  2   force =     0.00000000    0.00000000    0.00000000
     atom   24 type  1   force =     0.00000000    0.00000000    0.00000000
     atom   25 type  2   force =     0.00000000    0.00000000    0.00000000
     atom   26 type  2   force =     0.00000000    0.00000000    0.00000000
     atom   27 type  1   force =     0.00000000    0.00000000    0.00000000
     atom   28 type  2   force =     0.00000000    0.00000000    0.00000000
     atom   29 type  2   force =     0.00000000    0.00000000    0.00000000
     atom   30 type  1   force =     0.00000000    0.00000000    0.00000000
     atom   31 type  2   force =     0.00000000    0.00000000    0.00000000
     atom   32 type  2   force =     0.00000000    0.00000000    0.00000000
     atom   33 type  1   force =     0.00000000    0.00000000    0.00000000
     atom   34 type  2   force =     0.00000000    0.00000000    0.00000000
     atom   35 type  2   force =     0.00000000    0.00000000    0.00000000
     atom   36 type  3   force =     0.00000000    0.00000000    0.00000000
     The SCF correction term to forces
     atom    1 type  1   force =    -0.00000527    0.00000670   -0.00086068
     atom    2 type  2   force =     0.00001942    0.00004098   -0.00036108
     atom    3 type  2   force =     0.00001566    0.00003581   -0.00033038
     atom    4 type  1   force =     0.00010699   -0.00009447   -0.00085623
     atom    5 type  2   force =     0.00006316   -0.00000161   -0.00034528
     atom    6 type  2   force =     0.00001151    0.00001825   -0.00033759
     atom    7 type  1   force =    -0.00004894   -0.00001048   -0.00093543
     atom    8 type  2   force =     0.00009541   -0.00005762   -0.00033388
     atom    9 type  2   force =     0.00007704   -0.00004482   -0.00036151
     atom   10 type  1   force =     0.00003942    0.00006966   -0.00084510
     atom   11 type  2   force =    -0.00002766    0.00005156   -0.00030546
     atom   12 type  2   force =    -0.00002093    0.00003706   -0.00038975
     atom   13 type  1   force =    -0.00002697   -0.00009809   -0.00095824
     atom   14 type  2   force =    -0.00002488   -0.00000553   -0.00039576
     atom   15 type  2   force =    -0.00003406    0.00002627   -0.00029272
     atom   16 type  1   force =    -0.00000476   -0.00001244   -0.00103044
     atom   17 type  2   force =    -0.00005126   -0.00002420   -0.00032035
     atom   18 type  2   force =    -0.00000227   -0.00000065   -0.00033330
     atom   19 type  1   force =    -0.00017542    0.00004526   -0.00089263
     atom   20 type  2   force =    -0.00013095    0.00001889   -0.00034679
     atom   21 type  1   force =    -0.00014415    0.00002914   -0.00085182
     atom   22 type  2   force =     0.00000001   -0.00010486   -0.00040476
     atom   23 type  2   force =     0.00000383   -0.00013027   -0.00026663
     atom   24 type  1   force =     0.00003750    0.00005858   -0.00086314
     atom   25 type  2   force =    -0.00000037    0.00003547   -0.00038743
     atom   26 type  2   force =     0.00002636    0.00006333   -0.00030200
     atom   27 type  1   force =    -0.00008158    0.00013136   -0.00098054
     atom   28 type  2   force =    -0.00004579    0.00000464   -0.00037301
     atom   29 type  2   force =    -0.00001218    0.00001706   -0.00031311
     atom   30 type  1   force =     0.00020729   -0.00009335   -0.00088168
     atom   31 type  2   force =     0.00003938    0.00008978   -0.00044100
     atom   32 type  2   force =     0.00006549    0.00006127   -0.00025094
     atom   33 type  1   force =     0.00009340   -0.00007046   -0.00084757
     atom   34 type  2   force =     0.00001466   -0.00004149   -0.00035185
     atom   35 type  2   force =     0.00001455   -0.00006923   -0.00034688
     atom   36 type  3   force =    -0.00000860    0.00000058   -0.00002726

     Total force =     0.715640     Total SCF correction =     0.003581

     BFGS Geometry Optimization
     Energy error            =      0.0E+00 Ry
     Gradient error          =      4.9E-01 Ry/Bohr

     number of scf cycles    =   1
     number of bfgs steps    =   0

     energy             new  =   -2205.4690426053 Ry

     new trust radius        =       0.5000000000 bohr
     new conv_thr            =       0.0000010000 Ry


ATOMIC_POSITIONS (angstrom)
Mo            6.5803238108        1.7750395118        2.8257801665
S             8.1688508263        0.8187449948        4.4351975616
S             8.1869051118        0.8158970812        1.2763065608
Mo            8.1034492500        4.4932321612        2.7211195202
S             6.5025703312        3.7194329538        4.3404578301
S             6.5554237442        3.5177413767        1.1218050468
Mo            6.4907519568        7.2245110647        2.6666354997
S             8.0823011926        6.3418836296        4.2519232815
S             8.0880447421        6.3061875867        1.0893616950
Mo            8.1544721380        9.9071443479        2.8288025864
S             6.4968241784        8.9410399933        4.3805909369
S             6.6177156597        9.0491432869        1.1433276208
Mo            3.4226145126        1.7462660479        2.7774976215
S             4.9805993300        0.8153514926        4.3562974248
S             5.0518446323        0.8473637315        1.2216426024
Mo            4.9782528459        4.5194371446        2.6344819888
S             3.4907844706        3.6760761698        4.0227557042
S             3.4355536831        3.5448116818        1.0670984465
Mo            3.4613269353        7.2110628499        2.6295489842
S             4.9859384296        6.3224167097        1.0386497100
Mo            5.0109740646        9.9049949477        2.7438723630
S             3.4695629770        8.9426084541        4.3249841526
S             3.4078722286        9.0668672751        1.1002349788
Mo            0.2920888178        1.7469160269        2.8376768133
S             1.8582124208        0.8008845040        4.4022355323
S             1.8556710355        0.8541701176        1.2065523209
Mo            1.8522427410        4.4936523902        2.6652302854
S             0.2709007536        3.6540671693        4.3330570394
S             0.2336001318        3.5282852711        1.1698417508
Mo            0.2690325625        7.2210083367        2.6989642205
S             1.9025689218        6.3150522359        4.2321402409
S             1.8562502768        6.3125194118        1.0476870953
Mo            1.8518724365        9.9377885901        2.7690462392
S             0.2973220416        9.0670144396        4.4078684110
S             0.2725071058        9.0472108581        1.1588635315
H             3.0893740485        3.6380892323        5.5928041084



     Writing config-only to output data dir ./MoS2-V-O.save/
     NEW-OLD atomic charge density approx. for the potential

     negative rho (up, down):  1.518E-04 0.000E+00

     total cpu time spent up to now is       98.4 secs

     Self-consistent Calculation

     iteration #  1     ecut=    80.00 Ry     beta= 0.70
     Davidson diagonalization with overlap
     c_bands:  1 eigenvalues not converged
     ethr =  1.00E-06,  avg # of iterations = 20.0

     negative rho (up, down):  1.649E-03 0.000E+00

     total cpu time spent up to now is      112.2 secs

     total energy              =   -2205.52713475 Ry
     estimated scf accuracy    <       0.06908205 Ry

     iteration #  2     ecut=    80.00 Ry     beta= 0.70
     Davidson diagonalization with overlap
     ethr =  2.25E-05,  avg # of iterations =  2.0

     negative rho (up, down):  3.677E-03 0.000E+00

     total cpu time spent up to now is      126.6 secs

     total energy              =   -2205.52966377 Ry
     estimated scf accuracy    <       0.01063910 Ry

     iteration #  3     ecut=    80.00 Ry     beta= 0.70
     Davidson diagonalization with overlap
     ethr =  3.47E-06,  avg # of iterations =  3.0

     negative rho (up, down):  4.940E-03 0.000E+00

     total cpu time spent up to now is      147.0 secs

     total energy              =   -2205.53041623 Ry
     estimated scf accuracy    <       0.00186196 Ry

     iteration #  4     ecut=    80.00 Ry     beta= 0.70
     Davidson diagonalization with overlap
     ethr =  6.07E-07,  avg # of iterations =  4.0

     negative rho (up, down):  5.148E-03 0.000E+00

     total cpu time spent up to now is      158.5 secs

     total energy              =   -2205.53060920 Ry
     estimated scf accuracy    <       0.00035346 Ry

     iteration #  5     ecut=    80.00 Ry     beta= 0.70
     Davidson diagonalization with overlap
     ethr =  1.15E-07,  avg # of iterations =  5.0

     negative rho (up, down):  4.843E-03 0.000E+00

     total cpu time spent up to now is      169.4 secs

     total energy              =   -2205.53061515 Ry
     estimated scf accuracy    <       0.00011468 Ry

     iteration #  6     ecut=    80.00 Ry     beta= 0.70
     Davidson diagonalization with overlap
     ethr =  3.74E-08,  avg # of iterations =  5.0

     negative rho (up, down):  3.856E-03 0.000E+00

     total cpu time spent up to now is      180.4 secs

     total energy              =   -2205.53062008 Ry
     estimated scf accuracy    <       0.00002518 Ry

     iteration #  7     ecut=    80.00 Ry     beta= 0.70
     Davidson diagonalization with overlap
     ethr =  8.20E-09,  avg # of iterations =  5.0

     negative rho (up, down):  2.930E-03 0.000E+00

     total cpu time spent up to now is      192.3 secs

     total energy              =   -2205.53061579 Ry
     estimated scf accuracy    <       0.00001062 Ry

     iteration #  8     ecut=    80.00 Ry     beta= 0.70
     Davidson diagonalization with overlap
     ethr =  3.46E-09,  avg # of iterations =  2.0

     negative rho (up, down):  1.844E-03 0.000E+00

     total cpu time spent up to now is      202.2 secs

     total energy              =   -2205.53060765 Ry
     estimated scf accuracy    <       0.00000476 Ry

     iteration #  9     ecut=    80.00 Ry     beta= 0.70
     Davidson diagonalization with overlap
     ethr =  1.55E-09,  avg # of iterations =  2.0

     negative rho (up, down):  1.075E-03 0.000E+00

     total cpu time spent up to now is      212.4 secs

     total energy              =   -2205.53060333 Ry
     estimated scf accuracy    <       0.00000154 Ry

     iteration # 10     ecut=    80.00 Ry     beta= 0.70
     Davidson diagonalization with overlap
     ethr =  5.01E-10,  avg # of iterations =  2.0

     negative rho (up, down):  1.361E-04 0.000E+00

     total cpu time spent up to now is      214.6 secs

     End of self-consistent calculation

          k = 0.0000 0.0000 0.0000 (105382 PWs)   bands (ev):

   -62.8551 -62.8416 -62.8392 -62.8295 -62.8261 -62.8213 -62.7926 -62.7700
   -62.7603 -62.7060 -62.5693 -62.5557 -37.2183 -37.1577 -37.1203 -37.1167
   -37.0953 -37.0778 -37.0751 -37.0568 -37.0405 -37.0308 -37.0191 -37.0151
   -37.0125 -37.0080 -37.0039 -36.9942 -36.9847 -36.9796 -36.9675 -36.9544
   -36.9303 -36.9148 -36.9118 -36.8873 -36.8786 -36.8623 -36.8452 -36.8365
   -36.8257 -36.8044 -36.7950 -36.7603 -36.7399 -36.7180 -36.5891 -36.5555
   -16.3097 -15.6929 -15.0809 -15.0417 -14.8848 -14.8075 -14.7106 -14.4423
   -14.4149 -14.3729 -14.3610 -14.3026 -14.2899 -14.2688 -14.1758 -14.1015
   -14.0796 -14.0601 -13.9864 -13.8527 -13.7980 -13.7917 -13.7592  -8.5904
    -7.7256  -7.5377  -7.4116  -7.3229  -7.2415  -7.1592  -7.1511  -7.0851
    -6.8626  -6.7969  -6.7250  -6.6798  -6.5626  -6.4959  -6.4564  -6.3961
    -6.2990  -6.2686  -6.1871  -6.0504  -5.9768  -5.8586  -5.8307  -5.7635
    -5.7443  -5.7179  -5.6747  -5.6548  -5.6169  -5.5335  -5.4957  -5.4607
    -5.3924  -5.3422  -5.1670  -5.1276  -5.0316  -5.0076  -4.9637  -4.9415
    -4.8853  -4.8107  -4.6992  -4.5435  -4.4526  -4.4224  -4.2672  -4.2078
    -4.1679  -4.0286  -3.9694  -3.8493  -3.7931  -3.7704  -3.7128  -3.6612
    -3.6107  -3.5881  -3.5663  -3.5120  -3.4711  -3.4323  -3.4102  -3.3528
    -3.3299  -3.1651  -3.1403  -2.9003  -2.8579  -2.7668  -2.7439  -2.7227
    -2.6880  -2.6491  -2.6356  -2.5832  -2.5756  -2.2462  -2.0232  -1.9723
    -1.8780  -0.9341  -0.6643  -0.3237  -0.1507  -0.1051  -0.0513   0.0335
     0.0854   0.1754   0.2461   0.2791   0.3146   0.3510   0.4381   0.4932
     0.5149   0.5588   0.6024   0.6398   0.6559   0.7367   0.7484   0.7842
     0.8258   0.8599   0.9215   0.9601   0.9693   1.0526   1.0755   1.1962
     1.4164

     the Fermi energy is    -0.9347 ev

!    total energy              =   -2205.53060121 Ry
     estimated scf accuracy    <       0.00000054 Ry
     smearing contrib. (-TS)   =      -0.00575034 Ry
     internal energy E=F+TS    =   -2205.52485086 Ry

     The total energy is F=E-TS. E is the sum of the following terms:
     one-electron contribution =  -18077.32757885 Ry
     hartree contribution      =    9025.66515721 Ry
     xc contribution           =    -385.43495179 Ry
     ewald contribution        =    7231.57252257 Ry

     convergence has been achieved in  10 iterations

     negative rho (up, down):  1.361E-04 0.000E+00

     Forces acting on atoms (cartesian axes, Ry/au):

     atom    1 type  1   force =     0.00441104   -0.01427222   -0.00240118
     atom    2 type  2   force =    -0.00964916    0.01083389   -0.00147313
     atom    3 type  2   force =    -0.01126353    0.00768216   -0.00832578
     atom    4 type  1   force =     0.01132395    0.00157688   -0.00000221
     atom    5 type  2   force =     0.00353670   -0.00674149   -0.00689576
     atom    6 type  2   force =     0.00931493    0.00421243    0.00170203
     atom    7 type  1   force =     0.00213513    0.00686947   -0.00418346
     atom    8 type  2   force =     0.00056706   -0.00257936    0.01237716
     atom    9 type  2   force =     0.01121364    0.00204741    0.00865329
     atom   10 type  1   force =    -0.00513215    0.00774724   -0.00981643
     atom   11 type  2   force =     0.00295951   -0.00110192   -0.00550395
     atom   12 type  2   force =    -0.00217107    0.00202831   -0.00008479
     atom   13 type  1   force =     0.00859707   -0.03517373   -0.03288178
     atom   14 type  2   force =     0.00634473   -0.00104380    0.01214502
     atom   15 type  2   force =    -0.00697458    0.00105641   -0.00773831
     atom   16 type  1   force =     0.04411577    0.03015871   -0.05067081
     atom   17 type  2   force =    -0.05921754   -0.00808848    0.19796852
     atom   18 type  2   force =    -0.00469423   -0.00578564   -0.00465885
     atom   19 type  1   force =     0.00934974   -0.00582225    0.00410135
     atom   20 type  2   force =     0.00445116   -0.00232145   -0.00382361
     atom   21 type  1   force =    -0.00125548    0.00282018    0.00239547
     atom   22 type  2   force =    -0.00120415   -0.00186858   -0.00264665
     atom   23 type  2   force =     0.00013409   -0.00019487    0.00512242
     atom   24 type  1   force =    -0.00640835   -0.00180344   -0.01086650
     atom   25 type  2   force =     0.01220814    0.01684040    0.00407248
     atom   26 type  2   force =    -0.00955874   -0.00241012   -0.00607252
     atom   27 type  1   force =    -0.03231639    0.01680230   -0.03027608
     atom   28 type  2   force =     0.00451586   -0.00322729   -0.00170241
     atom   29 type  2   force =    -0.00027773    0.00066733   -0.00450623
     atom   30 type  1   force =    -0.00106714    0.00119568    0.00231884
     atom   31 type  2   force =     0.00143919   -0.00164450    0.01489353
     atom   32 type  2   force =    -0.00803892    0.00564541    0.00519671
     atom   33 type  1   force =     0.00547362   -0.00227361   -0.00017262
     atom   34 type  2   force =     0.00001407   -0.03195288   -0.01467591
     atom   35 type  2   force =    -0.00574909    0.00734129    0.00926050
     atom   36 type  3   force =     0.02287287    0.00278013   -0.07082836
     The non-local contrib.  to forces
     atom    1 type  1   force =     0.00541792    0.02812816   -0.01379668
     atom    2 type  2   force =    -0.00880733    0.00174637   -0.27078095
     atom    3 type  2   force =    -0.01348885   -0.00353612    0.26696124
     atom    4 type  1   force =     0.00249043    0.01145535    0.00337969
     atom    5 type  2   force =     0.00396014   -0.02785589   -0.24722508
     atom    6 type  2   force =     0.00050381    0.00656253    0.26250169
     atom    7 type  1   force =    -0.02275753   -0.01067341   -0.01077501
     atom    8 type  2   force =     0.00539789   -0.00424253   -0.25819153
     atom    9 type  2   force =     0.00877548   -0.01189796    0.27739206
     atom   10 type  1   force =     0.00180193   -0.00037509   -0.00075816
     atom   11 type  2   force =     0.01233594    0.00853460   -0.26000057
     atom   12 type  2   force =    -0.01136181   -0.01327126    0.25709731
     atom   13 type  1   force =     0.00044460    0.01584429   -0.00360961
     atom   14 type  2   force =     0.00510252   -0.00498179   -0.26086892
     atom   15 type  2   force =    -0.01225387   -0.00536324    0.26220564
     atom   16 type  1   force =    -0.00968222    0.04069003   -0.00313670
     atom   17 type  2   force =    -0.11141189   -0.03435997    0.35029677
     atom   18 type  2   force =    -0.00072022   -0.00434429    0.27472621
     atom   19 type  1   force =     0.02381725   -0.00743745   -0.01437858
     atom   20 type  2   force =    -0.00300740   -0.01982027    0.26065954
     atom   21 type  1   force =     0.00509999    0.01620731    0.00310147
     atom   22 type  2   force =    -0.00476843    0.00185984   -0.26018780
     atom   23 type  2   force =     0.00863397   -0.01701658    0.26779223
     atom   24 type  1   force =     0.00082693    0.01364336   -0.01055339
     atom   25 type  2   force =     0.01024800    0.01033153   -0.25696134
     atom   26 type  2   force =    -0.00183482   -0.01416439    0.26470615
     atom   27 type  1   force =     0.00116053    0.01411719    0.01368446
     atom   28 type  2   force =     0.00284249   -0.02306948   -0.26644430
     atom   29 type  2   force =     0.00526313   -0.00086972    0.26091138
     atom   30 type  1   force =    -0.00485568    0.02178128    0.00998345
     atom   31 type  2   force =    -0.00514701   -0.00596531   -0.25102225
     atom   32 type  2   force =    -0.00244515   -0.01890361    0.27335399
     atom   33 type  1   force =    -0.00661012   -0.00034986    0.00393123
     atom   34 type  2   force =    -0.00191224   -0.02843089   -0.27772821
     atom   35 type  2   force =    -0.00089370   -0.01115187    0.26847394
     atom   36 type  3   force =     0.00826260    0.00074054   -0.03075068
     The ionic contribution  to forces
     atom    1 type  1   force =     0.42707909    0.33764973    5.78029727
     atom    2 type  2   force =    -0.46687158    0.21996405   39.41919797
     atom    3 type  2   force =    -0.13743670    0.00641988  -36.19278128
     atom    4 type  1   force =    -0.14430906    0.74426462    0.89062122
     atom    5 type  2   force =    -0.78808288    1.49934635   38.76189967
     atom    6 type  2   force =     0.40502596   -0.51679174  -37.97638537
     atom    7 type  1   force =    -2.40175684   -2.79513567    2.47454262
     atom    8 type  2   force =    -1.03825499    0.10915034   37.51745808
     atom    9 type  2   force =     0.29623372   -0.05660172  -37.93112793
     atom   10 type  1   force =    -0.77478310   -0.36259287    5.44202294
     atom   11 type  2   force =    -0.48856477   -1.59388393   39.21360450
     atom   12 type  2   force =     0.38308205    0.66868910  -37.87783267
     atom   13 type  1   force =     0.33086038   -0.55611941    2.58448408
     atom   14 type  2   force =     0.08247272   -0.15109473   38.71643376
     atom   15 type  2   force =     0.20143174   -0.10105392  -36.91051724
     atom   16 type  1   force =     1.69851776    4.75814647   -0.32984706
     atom   17 type  2   force =     0.67679455    1.39830714   34.72999732
     atom   18 type  2   force =    -0.16707846   -0.62891966  -38.87356007
     atom   19 type  1   force =     2.52628856   -2.05263876    0.67451105
     atom   20 type  2   force =     0.28288946   -0.10805172  -38.58423687
     atom   21 type  1   force =     0.01138772   -0.09234597    1.37826126
     atom   22 type  2   force =     0.43774065   -1.71160769   38.50277187
     atom   23 type  2   force =    -0.08516619    0.60433795  -38.25686695
     atom   24 type  1   force =    -0.59198256    0.71657421    5.54935471
     atom   25 type  2   force =     0.42997834    0.06348940   39.33674266
     atom   26 type  2   force =    -0.29366867   -0.04340858  -37.36555423
     atom   27 type  1   force =    -1.09954177    1.15347075   -2.37925076
     atom   28 type  2   force =    -0.07702596    0.90429463   38.30870255
     atom   29 type  2   force =    -0.34720677   -0.39390057  -37.40632031
     atom   30 type  1   force =    -0.33344965   -0.83256472    0.00385046
     atom   31 type  2   force =     1.14404500    0.14352977   37.46097803
     atom   32 type  2   force =    -0.47636606    0.07759004  -38.61446422
     atom   33 type  1   force =     0.52531270   -0.82305588    2.23646966
     atom   34 type  2   force =     0.16604608   -1.22890936   39.30165431
     atom   35 type  2   force =    -0.23655267    0.48019149  -37.71181132
     atom   36 type  3   force =    -0.07708779    0.16326100    8.12670029
     The local contribution  to forces
     atom    1 type  1   force =    -0.42774658   -0.38059445   -5.76904615
     atom    2 type  2   force =     0.46567732   -0.21066817  -39.17062418
     atom    3 type  2   force =     0.13906292    0.00465719   35.93824560
     atom    4 type  1   force =     0.15367507   -0.75427020   -0.89420016
     atom    5 type  2   force =     0.78807716   -1.47993964  -38.54143115
     atom    6 type  2   force =    -0.39617886    0.51520837   37.73599292
     atom    7 type  1   force =     2.42668791    2.81320740   -2.46825532
     atom    8 type  2   force =     1.03383390   -0.10795160  -37.26715355
     atom    9 type  2   force =    -0.29337856    0.06994086   37.68312337
     atom   10 type  1   force =     0.76775050    0.37071545   -5.45140387
     atom   11 type  2   force =     0.47975570    1.58509834  -38.97951980
     atom   12 type  2   force =    -0.37484465   -0.65446672   37.64103392
     atom   13 type  1   force =    -0.32286425    0.50506339   -2.61388106
     atom   14 type  2   force =    -0.08090131    0.15525155  -38.46384341
     atom   15 type  2   force =    -0.19681855    0.10698576   36.66097944
     atom   16 type  1   force =    -1.64521342   -4.76865593    0.28215559
     atom   17 type  2   force =    -0.63068950   -1.37380639  -34.87173142
     atom   18 type  2   force =     0.16305058    0.62779921   38.61494282
     atom   19 type  1   force =    -2.54092713    2.05439619   -0.65631984
     atom   20 type  2   force =    -0.27586329    0.12489678   38.34048404
     atom   21 type  1   force =    -0.01757173    0.07894557   -1.37917689
     atom   22 type  2   force =    -0.43430148    1.70833284  -38.26570272
     atom   23 type  2   force =     0.07721866   -0.58881801   38.01493217
     atom   24 type  1   force =     0.58463634   -0.73202098   -5.54992474
     atom   25 type  2   force =    -0.42773322   -0.05618858  -39.09602143
     atom   26 type  2   force =     0.28603945    0.05436370   37.11547685
     atom   27 type  1   force =     1.06598387   -1.15081809    2.33527699
     atom   28 type  2   force =     0.07895682   -0.88606705  -38.06453454
     atom   29 type  2   force =     0.34219235    0.39579040   37.16131667
     atom   30 type  1   force =     0.33734109    0.81223127   -0.01170307
     atom   31 type  2   force =    -1.13772762   -0.13976024  -37.21517781
     atom   32 type  2   force =     0.47087754   -0.05397445   38.36708562
     atom   33 type  1   force =    -0.51332240    0.82093419   -2.24089518
     atom   34 type  2   force =    -0.16447612    1.22447366  -39.05972309
     atom   35 type  2   force =     0.23180397   -0.46268332   37.47345492
     atom   36 type  3   force =     0.09167560   -0.16122139   -8.16672425
     The core correction contribution to forces
     atom    1 type  1   force =     0.00000000    0.00000000    0.00000000
     atom    2 type  2   force =     0.00031060   -0.00027910    0.02078366
     atom    3 type  2   force =     0.00060808    0.00005671   -0.02087481
     atom    4 type  1   force =     0.00000000    0.00000000    0.00000000
     atom    5 type  2   force =    -0.00031307    0.00163001    0.01997704
     atom    6 type  2   force =     0.00005096   -0.00085486   -0.02073340
     atom    7 type  1   force =     0.00000000    0.00000000    0.00000000
     atom    8 type  2   force =    -0.00026171    0.00057854    0.02045690
     atom    9 type  2   force =    -0.00030292    0.00069532   -0.02102784
     atom   10 type  1   force =     0.00000000    0.00000000    0.00000000
     atom   11 type  2   force =    -0.00052616   -0.00075295    0.02057957
     atom   12 type  2   force =     0.00100699    0.00116424   -0.02059284
     atom   13 type  1   force =     0.00000000    0.00000000    0.00000000
     atom   14 type  2   force =    -0.00025507   -0.00038949    0.02050119
     atom   15 type  2   force =     0.00070435    0.00036037   -0.02064050
     atom   16 type  1   force =     0.00000000    0.00000000    0.00000000
     atom   17 type  2   force =     0.00598115    0.00178011   -0.01081818
     atom   18 type  2   force =    -0.00002713   -0.00033253   -0.02102483
     atom   19 type  1   force =     0.00000000    0.00000000    0.00000000
     atom   20 type  2   force =     0.00031439    0.00077480   -0.02102748
     atom   21 type  1   force =     0.00000000    0.00000000    0.00000000
     atom   22 type  2   force =     0.00010225   -0.00046438    0.02057191
     atom   23 type  2   force =    -0.00058834    0.00128479   -0.02093022
     atom   24 type  1   force =     0.00000000    0.00000000    0.00000000
     atom   25 type  2   force =    -0.00032781   -0.00085219    0.02037819
     atom   26 type  2   force =    -0.00016613    0.00073858   -0.02091985
     atom   27 type  1   force =     0.00000000    0.00000000    0.00000000
     atom   28 type  2   force =    -0.00023827    0.00161795    0.02058429
     atom   29 type  2   force =    -0.00052229   -0.00040549   -0.02056345
     atom   30 type  1   force =     0.00000000    0.00000000    0.00000000
     atom   31 type  2   force =     0.00021319    0.00062016    0.02018849
     atom   32 type  2   force =    -0.00010825    0.00102330   -0.02099537
     atom   33 type  1   force =     0.00000000    0.00000000    0.00000000
     atom   34 type  2   force =     0.00034197    0.00084950    0.02126164
     atom   35 type  2   force =    -0.00013027    0.00100207   -0.02103993
     atom   36 type  3   force =     0.00000000    0.00000000    0.00000000
     The Hubbard contrib.    to forces
     atom    1 type  1   force =     0.00000000    0.00000000    0.00000000
     atom    2 type  2   force =     0.00000000    0.00000000    0.00000000
     atom    3 type  2   force =     0.00000000    0.00000000    0.00000000
     atom    4 type  1   force =     0.00000000    0.00000000    0.00000000
     atom    5 type  2   force =     0.00000000    0.00000000    0.00000000
     atom    6 type  2   force =     0.00000000    0.00000000    0.00000000
     atom    7 type  1   force =     0.00000000    0.00000000    0.00000000
     atom    8 type  2   force =     0.00000000    0.00000000    0.00000000
     atom    9 type  2   force =     0.00000000    0.00000000    0.00000000
     atom   10 type  1   force =     0.00000000    0.00000000    0.00000000
     atom   11 type  2   force =     0.00000000    0.00000000    0.00000000
     atom   12 type  2   force =     0.00000000    0.00000000    0.00000000
     atom   13 type  1   force =     0.00000000    0.00000000    0.00000000
     atom   14 type  2   force =     0.00000000    0.00000000    0.00000000
     atom   15 type  2   force =     0.00000000    0.00000000    0.00000000
     atom   16 type  1   force =     0.00000000    0.00000000    0.00000000
     atom   17 type  2   force =     0.00000000    0.00000000    0.00000000
     atom   18 type  2   force =     0.00000000    0.00000000    0.00000000
     atom   19 type  1   force =     0.00000000    0.00000000    0.00000000
     atom   20 type  2   force =     0.00000000    0.00000000    0.00000000
     atom   21 type  1   force =     0.00000000    0.00000000    0.00000000
     atom   22 type  2   force =     0.00000000    0.00000000    0.00000000
     atom   23 type  2   force =     0.00000000    0.00000000    0.00000000
     atom   24 type  1   force =     0.00000000    0.00000000    0.00000000
     atom   25 type  2   force =     0.00000000    0.00000000    0.00000000
     atom   26 type  2   force =     0.00000000    0.00000000    0.00000000
     atom   27 type  1   force =     0.00000000    0.00000000    0.00000000
     atom   28 type  2   force =     0.00000000    0.00000000    0.00000000
     atom   29 type  2   force =     0.00000000    0.00000000    0.00000000
     atom   30 type  1   force =     0.00000000    0.00000000    0.00000000
     atom   31 type  2   force =     0.00000000    0.00000000    0.00000000
     atom   32 type  2   force =     0.00000000    0.00000000    0.00000000
     atom   33 type  1   force =     0.00000000    0.00000000    0.00000000
     atom   34 type  2   force =     0.00000000    0.00000000    0.00000000
     atom   35 type  2   force =     0.00000000    0.00000000    0.00000000
     atom   36 type  3   force =     0.00000000    0.00000000    0.00000000
     The SCF correction term to forces
     atom    1 type  1   force =    -0.00034075    0.00054115    0.00015705
     atom    2 type  2   force =     0.00004048    0.00006755   -0.00003695
     atom    3 type  2   force =    -0.00001033    0.00008132    0.00013614
     atom    4 type  1   force =    -0.00053384    0.00012393    0.00020971
     atom    5 type  2   force =    -0.00010600    0.00007448   -0.00010357
     atom    6 type  2   force =    -0.00008830    0.00008494    0.00033886
     atom    7 type  1   force =    -0.00003976   -0.00053204    0.00031691
     atom    8 type  2   force =    -0.00014939   -0.00011730   -0.00018007
     atom    9 type  2   force =    -0.00011543   -0.00009229    0.00030630
     atom   10 type  1   force =     0.00009717   -0.00000344    0.00033533
     atom   11 type  2   force =    -0.00004256   -0.00010117   -0.00015498
     atom   12 type  2   force =    -0.00005500   -0.00009024    0.00022216
     atom   13 type  1   force =     0.00015499    0.00003481    0.00013750
     atom   14 type  2   force =    -0.00007548    0.00016748   -0.00006492
     atom   15 type  2   force =    -0.00003960    0.00012424    0.00024702
     atom   16 type  1   force =     0.00049229   -0.00002506    0.00017004
     atom   17 type  2   force =     0.00010679   -0.00001256    0.00023670
     atom   18 type  2   force =     0.00007965    0.00000844    0.00026968
     atom   19 type  1   force =     0.00016971   -0.00014542    0.00030138
     atom   20 type  2   force =     0.00011665   -0.00012423    0.00030985
     atom   21 type  1   force =    -0.00017282    0.00001008    0.00022229
     atom   22 type  2   force =     0.00002151    0.00000763   -0.00008725
     atom   23 type  2   force =     0.00003464    0.00001377    0.00020787
     atom   24 type  1   force =     0.00010960   -0.00000322    0.00026959
     atom   25 type  2   force =     0.00004146    0.00005704   -0.00005292
     atom   26 type  2   force =     0.00007007    0.00005737    0.00023123
     atom   27 type  1   force =     0.00007962    0.00002925    0.00002590
     atom   28 type  2   force =    -0.00002057   -0.00000654    0.00000225
     atom   29 type  2   force =    -0.00000550    0.00004952    0.00016215
     atom   30 type  1   force =    -0.00010424   -0.00025534    0.00020067
     atom   31 type  2   force =     0.00005428   -0.00007206   -0.00006026
     atom   32 type  2   force =     0.00000166   -0.00009306    0.00022936
     atom   33 type  1   force =     0.00009209    0.00019474    0.00033434
     atom   34 type  2   force =     0.00001304    0.00006103   -0.00012789
     atom   35 type  2   force =     0.00002223   -0.00002028    0.00019557
     atom   36 type  3   force =     0.00002111   -0.00000321   -0.00004105

     Total force =     0.251568     Total SCF correction =     0.001826
     Energy error            =      6.2E-02 Ry
     Gradient error          =      2.0E-01 Ry/Bohr

     number of scf cycles    =   2
     number of bfgs steps    =   1

     energy             old  =   -2205.4690426053 Ry
     energy             new  =   -2205.5306012064 Ry

     CASE: energy            _new < energy            _old

     new trust radius        =       0.1448780691 bohr
     new conv_thr            =       0.0000001980 Ry


ATOMIC_POSITIONS (angstrom)
Mo            6.5823886694        1.7685813820        2.8248549541
S             8.1645137054        0.8236228209        4.4346053985
S             8.1819494781        0.8192897928        1.2727601818
Mo            8.1085039273        4.4938238960        2.7212428687
S             6.5041517579        3.7164973392        4.3373362244
S             6.5594031145        3.5197316547        1.1225376531
Mo            6.4916751929        7.2276168033        2.6646857741
S             8.0825602776        6.3407285193        4.2574632992
S             8.0930095665        6.3071010007        1.0931928851
Mo            8.1520912766        9.9105759339        2.8241393953
S             6.4981260482        8.9405074554        4.3781910982
S             6.6167976508        9.0500090534        1.1434208677
Mo            3.4262511005        1.7315085525        2.7637646571
S             4.9834612049        0.8148544820        4.3616010271
S             5.0486980597        0.8478476498        1.2182128015
Mo            4.9966728793        4.5323039038        2.6133200849
S             3.4683524032        3.6728570592        4.0959960052
S             3.4334985347        3.5422598937        1.0654764985
Mo            3.4655238443        7.2084262820        2.6312242574
S             4.9879044758        6.3212744419        1.0371008524
Mo            5.0103996834        9.9063039052        2.7448933838
S             3.4690061313        8.9417828309        4.3238528211
S             3.4079074202        9.0668563295        1.1025372177
Mo            0.2892542154        1.7461383656        2.8326826746
S             1.8636172190        0.8082459705        4.4040927423
S             1.8514745389        0.8531510750        1.2039017816
Mo            1.8383898765        4.5006137264        2.6527394701
S             0.2727426602        3.6527030231        4.3321736059
S             0.2335729925        3.5286037678        1.1678725205
Mo            0.2685058277        7.2216733329        2.6998325461
S             1.9031841342        6.3144483159        4.2387429935
S             1.8526579812        6.3149657357        1.0499813399
Mo            1.8544482224        9.9367478619        2.7688271218
S             0.2973809834        9.0527666460        4.4014959035
S             0.2699387289        9.0504242798        1.1630606198
H             3.0965865624        3.6390699944        5.5725263451



     Writing config-only to output data dir ./MoS2-V-O.save/
     NEW-OLD atomic charge density approx. for the potential

     negative rho (up, down):  1.503E-04 0.000E+00

     total cpu time spent up to now is      218.2 secs

     Self-consistent Calculation

     iteration #  1     ecut=    80.00 Ry     beta= 0.70
     Davidson diagonalization with overlap
     ethr =  1.00E-06,  avg # of iterations = 13.0

     negative rho (up, down):  4.052E-05 0.000E+00

     total cpu time spent up to now is      232.2 secs

     total energy              =   -2205.56483059 Ry
     estimated scf accuracy    <       0.01085126 Ry

     iteration #  2     ecut=    80.00 Ry     beta= 0.70
     Davidson diagonalization with overlap
     ethr =  3.53E-06,  avg # of iterations =  2.0

     negative rho (up, down):  3.023E-05 0.000E+00

     total cpu time spent up to now is      246.4 secs

     total energy              =   -2205.56512547 Ry
     estimated scf accuracy    <       0.00196977 Ry

     iteration #  3     ecut=    80.00 Ry     beta= 0.70
     Davidson diagonalization with overlap
     ethr =  6.42E-07,  avg # of iterations =  5.0

     negative rho (up, down):  2.935E-05 0.000E+00

     total cpu time spent up to now is      263.6 secs

     total energy              =   -2205.56515611 Ry
     estimated scf accuracy    <       0.00063174 Ry

     iteration #  4     ecut=    80.00 Ry     beta= 0.70
     Davidson diagonalization with overlap
     ethr =  2.06E-07,  avg # of iterations =  3.0

     negative rho (up, down):  2.889E-05 0.000E+00

     total cpu time spent up to now is      281.2 secs

     total energy              =   -2205.56521727 Ry
     estimated scf accuracy    <       0.00008054 Ry

     iteration #  5     ecut=    80.00 Ry     beta= 0.70
     Davidson diagonalization with overlap
     ethr =  2.62E-08,  avg # of iterations =  6.0

     negative rho (up, down):  2.570E-05 0.000E+00

     total cpu time spent up to now is      293.4 secs

     total energy              =   -2205.56523567 Ry
     estimated scf accuracy    <       0.00002665 Ry

     iteration #  6     ecut=    80.00 Ry     beta= 0.70
     Davidson diagonalization with overlap
     ethr =  8.68E-09,  avg # of iterations =  2.0

     negative rho (up, down):  2.143E-05 0.000E+00

     total cpu time spent up to now is      307.3 secs

     total energy              =   -2205.56524145 Ry
     estimated scf accuracy    <       0.00000877 Ry

     iteration #  7     ecut=    80.00 Ry     beta= 0.70
     Davidson diagonalization with overlap
     ethr =  2.86E-09,  avg # of iterations =  4.0

     negative rho (up, down):  1.877E-05 0.000E+00

     total cpu time spent up to now is      320.6 secs

     total energy              =   -2205.56524434 Ry
     estimated scf accuracy    <       0.00000415 Ry

     iteration #  8     ecut=    80.00 Ry     beta= 0.70
     Davidson diagonalization with overlap
     ethr =  1.35E-09,  avg # of iterations =  3.0

     negative rho (up, down):  1.811E-05 0.000E+00

     total cpu time spent up to now is      330.2 secs

     total energy              =   -2205.56524727 Ry
     estimated scf accuracy    <       0.00000190 Ry

     iteration #  9     ecut=    80.00 Ry     beta= 0.70
     Davidson diagonalization with overlap
     ethr =  6.19E-10,  avg # of iterations =  3.0

     negative rho (up, down):  4.025E-05 0.000E+00

     total cpu time spent up to now is      337.6 secs

     total energy              =   -2205.56524792 Ry
     estimated scf accuracy    <       0.00000041 Ry

     iteration # 10     ecut=    80.00 Ry     beta= 0.70
     Davidson diagonalization with overlap
     ethr =  1.35E-10,  avg # of iterations =  6.0

     negative rho (up, down):  1.367E-04 0.000E+00

     total cpu time spent up to now is      340.1 secs

     End of self-consistent calculation

          k = 0.0000 0.0000 0.0000 (105382 PWs)   bands (ev):

   -62.8584 -62.8385 -62.8228 -62.8093 -62.8025 -62.7958 -62.7687 -62.7406
   -62.7301 -62.6607 -62.5488 -62.5199 -37.1933 -37.1352 -37.1038 -37.1001
   -37.0801 -37.0586 -37.0520 -37.0446 -37.0212 -37.0137 -37.0050 -36.9930
   -36.9889 -36.9838 -36.9789 -36.9735 -36.9639 -36.9553 -36.9407 -36.9251
   -36.9033 -36.8878 -36.8866 -36.8537 -36.8500 -36.8284 -36.8243 -36.8053
   -36.7952 -36.7721 -36.7658 -36.7310 -36.7042 -36.6768 -36.5556 -36.5178
   -16.3221 -15.6955 -15.0621 -15.0310 -14.8639 -14.7882 -14.6879 -14.4216
   -14.3852 -14.3552 -14.3419 -14.2864 -14.2689 -14.2481 -14.1544 -14.0852
   -14.0573 -14.0430 -13.9659 -13.8366 -13.7866 -13.7667 -13.7329  -8.8236
    -7.6650  -7.4526  -7.3604  -7.2963  -7.2244  -7.1411  -7.1343  -7.0851
    -6.8347  -6.7719  -6.7002  -6.6497  -6.5331  -6.4930  -6.4334  -6.3739
    -6.3099  -6.2566  -6.1708  -5.9933  -5.9455  -5.8445  -5.8083  -5.7408
    -5.7026  -5.7020  -5.6525  -5.6303  -5.5988  -5.5173  -5.4800  -5.4385
    -5.3661  -5.3117  -5.1263  -5.0917  -5.0036  -4.9826  -4.9503  -4.9150
    -4.8791  -4.7885  -4.6726  -4.5403  -4.4478  -4.3702  -4.2414  -4.1981
    -4.1488  -4.0079  -3.9667  -3.8223  -3.7869  -3.7600  -3.6920  -3.6411
    -3.6029  -3.5588  -3.5462  -3.4900  -3.4467  -3.4123  -3.3816  -3.3361
    -3.3126  -3.1566  -3.1279  -2.8658  -2.8333  -2.7417  -2.7219  -2.6873
    -2.6522  -2.6280  -2.6157  -2.5551  -2.5359  -2.2140  -1.9968  -1.9415
    -1.8510  -0.8476  -0.6390  -0.2733  -0.1329  -0.0891  -0.0181   0.0523
     0.1050   0.1936   0.2722   0.3200   0.3381   0.3565   0.4406   0.5207
     0.5337   0.5873   0.6278   0.6697   0.6793   0.7471   0.7725   0.7955
     0.8358   0.8789   0.9305   0.9739   1.0015   1.0575   1.1032   1.2154
     1.4357

     the Fermi energy is    -0.8510 ev

!    total energy              =   -2205.56524780 Ry
     estimated scf accuracy    <       0.00000015 Ry
     smearing contrib. (-TS)   =      -0.00613653 Ry
     internal energy E=F+TS    =   -2205.55911127 Ry

     The total energy is F=E-TS. E is the sum of the following terms:
     one-electron contribution =  -18068.05084199 Ry
     hartree contribution      =    9021.32375744 Ry
     xc contribution           =    -385.40827032 Ry
     ewald contribution        =    7226.57624359 Ry

     convergence has been achieved in  10 iterations

     negative rho (up, down):  1.367E-04 0.000E+00

     Forces acting on atoms (cartesian axes, Ry/au):

     atom    1 type  1   force =    -0.00084178   -0.00760120   -0.00220001
     atom    2 type  2   force =    -0.00681654    0.00808455   -0.00198748
     atom    3 type  2   force =    -0.00964082    0.00601595   -0.01000088
     atom    4 type  1   force =     0.00933500   -0.00100789    0.00327395
     atom    5 type  2   force =     0.00325505   -0.00461269   -0.01053857
     atom    6 type  2   force =     0.01032547    0.00338670   -0.00135295
     atom    7 type  1   force =     0.00160472    0.00543814   -0.00220625
     atom    8 type  2   force =     0.00018153   -0.00217163    0.00981165
     atom    9 type  2   force =     0.01041693    0.00252245    0.00614991
     atom   10 type  1   force =    -0.00307621    0.00641945   -0.00531780
     atom   11 type  2   force =     0.00263033   -0.00049474   -0.00503753
     atom   12 type  2   force =    -0.00237057    0.00272767   -0.00170840
     atom   13 type  1   force =     0.00466415   -0.00861582   -0.00655165
     atom   14 type  2   force =     0.00527102   -0.00210440    0.00719598
     atom   15 type  2   force =    -0.00362570   -0.00181629   -0.00996474
     atom   16 type  1   force =     0.00455396    0.00400418   -0.00643654
     atom   17 type  2   force =    -0.03328010   -0.00157465    0.11535737
     atom   18 type  2   force =    -0.00355585   -0.00353066    0.00238985
     atom   19 type  1   force =     0.00905091   -0.00498483    0.00422254
     atom   20 type  2   force =     0.00623119    0.00200958   -0.00877549
     atom   21 type  1   force =    -0.00035257    0.00290977    0.00246258
     atom   22 type  2   force =    -0.00024796   -0.00198765   -0.00146368
     atom   23 type  2   force =     0.00049917   -0.00105562    0.00414304
     atom   24 type  1   force =    -0.00322096   -0.00007559   -0.00614238
     atom   25 type  2   force =     0.00932781    0.01170387   -0.00075185
     atom   26 type  2   force =    -0.00832848   -0.00426813   -0.00825532
     atom   27 type  1   force =    -0.01008683    0.00397121   -0.00288388
     atom   28 type  2   force =     0.00235183   -0.00244960   -0.00463820
     atom   29 type  2   force =    -0.00175055    0.00026803   -0.00906528
     atom   30 type  1   force =    -0.00064335    0.00061800    0.00404062
     atom   31 type  2   force =     0.00048080   -0.00112124    0.00910633
     atom   32 type  2   force =    -0.00761155    0.00690933    0.00208151
     atom   33 type  1   force =     0.00193003   -0.00081351    0.00224671
     atom   34 type  2   force =    -0.00086245   -0.02552737   -0.01415802
     atom   35 type  2   force =    -0.00457237    0.00649660    0.00698453
     atom   36 type  3   force =     0.01877474    0.00232801   -0.06002969
     The non-local contrib.  to forces
     atom    1 type  1   force =     0.00457540    0.02737339   -0.01490308
     atom    2 type  2   force =    -0.00656839   -0.00003619   -0.26937287
     atom    3 type  2   force =    -0.01125838   -0.00485045    0.26495752
     atom    4 type  1   force =     0.00132839    0.01389399    0.00262657
     atom    5 type  2   force =     0.00563941   -0.02678026   -0.24887590
     atom    6 type  2   force =     0.00077354    0.00664738    0.26078236
     atom    7 type  1   force =    -0.02373402   -0.01158960   -0.01174912
     atom    8 type  2   force =     0.00544258   -0.00413919   -0.25940101
     atom    9 type  2   force =     0.00801208   -0.01245264    0.27575412
     atom   10 type  1   force =     0.00083368   -0.00082718   -0.00057875
     atom   11 type  2   force =     0.01149786    0.00948549   -0.25944351
     atom   12 type  2   force =    -0.01143475   -0.01211050    0.25631984
     atom   13 type  1   force =     0.00256187    0.00955279   -0.00811724
     atom   14 type  2   force =     0.00471131   -0.00600917   -0.26047381
     atom   15 type  2   force =    -0.00944360   -0.00742560    0.26005693
     atom   16 type  1   force =     0.00002265    0.05088270   -0.00937136
     atom   17 type  2   force =    -0.10086683   -0.02836761    0.31884429
     atom   18 type  2   force =    -0.00064602   -0.00262000    0.28066049
     atom   19 type  1   force =     0.02691880   -0.00963712   -0.01576906
     atom   20 type  2   force =    -0.00080969   -0.01648615    0.25753952
     atom   21 type  1   force =     0.00485969    0.01455881    0.00155272
     atom   22 type  2   force =    -0.00402598    0.00119415   -0.25933235
     atom   23 type  2   force =     0.00886083   -0.01744591    0.26690973
[...]
     atom   27 type  1   force =    -0.00582988    0.01711655   -0.00250557
     atom   28 type  2   force =     0.00544713   -0.01085724   -0.26097064
     atom   29 type  2   force =     0.00210855   -0.00757649    0.26614971
     atom   30 type  1   force =    -0.00422315    0.02470542    0.00743639
     atom   31 type  2   force =    -0.00639420   -0.00611622   -0.25714734
     atom   32 type  2   force =     0.00352442   -0.02470468    0.26913296
     atom   33 type  1   force =    -0.00525177   -0.00615273   -0.00001915
     atom   34 type  2   force =     0.00251355   -0.00869293   -0.27215814
     atom   35 type  2   force =     0.00036028   -0.01434891    0.26499673
     atom   36 type  3   force =     0.01385110    0.00014706   -0.05926782
     The ionic contribution  to forces
     atom    1 type  1   force =    -0.17018610    0.94585614    2.40705351
     atom    2 type  2   force =    -0.21439407    0.11963545   38.88961568
     atom    3 type  2   force =     0.06075796   -0.04520017  -37.44798463
     atom    4 type  1   force =    -0.95784557    0.74114466    0.67714088
     atom    5 type  2   force =    -0.84227194    1.36213866   37.95215432
     atom    6 type  2   force =     0.12533800   -0.25204160  -37.87602292
     atom    7 type  1   force =    -2.52781068   -2.90050357    1.51379227
     atom    8 type  2   force =    -1.41928958    0.04631788   38.03954439
     atom    9 type  2   force =     0.20879451   -0.04950022  -37.84034330
     atom   10 type  1   force =    -0.16128314   -0.34809552    3.37972886
     atom   11 type  2   force =    -0.43368190   -1.53482623   38.90846025
     atom   12 type  2   force =     0.15518121    0.39478674  -38.20266706
     atom   13 type  1   force =     0.36440663    0.52602081    3.16782530
     atom   14 type  2   force =     0.11282029   -0.02242888   38.74751231
     atom   15 type  2   force =    -0.06261290   -0.03785557  -37.45846287
     atom   16 type  1   force =     0.86537584    3.54605905    0.87096055
     atom   17 type  2   force =     1.37572184    1.23192237   36.10025111
     atom   18 type  2   force =    -0.11732583   -0.43100194  -37.98011248
     atom   19 type  1   force =     2.42425344   -1.65200462    2.89270487
     atom   20 type  2   force =     0.08496676   -0.04448585  -38.66439162
     atom   21 type  1   force =    -0.39831142   -0.38729782    1.58229356
     atom   22 type  2   force =     0.41492848   -1.48673214   38.52020758
     atom   23 type  2   force =    -0.28099964    0.24984941  -37.60061838
     atom   24 type  1   force =    -0.09430173    0.20070118    2.14074662
     atom   25 type  2   force =     0.05076277   -0.08614905   39.00843928
     atom   26 type  2   force =    -0.05227333   -0.13382979  -37.43624927
     atom   27 type  1   force =     0.20782796    0.76075446   -0.64888066
     atom   28 type  2   force =    -0.25843896    0.49661180   38.22878671
     atom   29 type  2   force =    -0.07859485   -0.20219476  -37.96301702
     atom   30 type  1   force =     0.17108905   -0.58086252    2.05650685
     atom   31 type  2   force =     1.12003549    0.33932913   38.05053511
     atom   32 type  2   force =    -0.19273910    0.21079390  -37.88876421
     atom   33 type  1   force =     0.62446270   -0.75208825    3.59673242
     atom   34 type  2   force =    -0.02068887   -0.54998831   38.99336982
     atom   35 type  2   force =     0.07618018    0.17650611  -37.34008165
     atom   36 type  3   force =    -0.15985351    0.14865907    8.62323383
     The local contribution  to forces
     atom    1 type  1   force =     0.16810875   -0.96837707   -2.39966352
     atom    2 type  2   force =     0.21606840   -0.11238252  -38.64545051
     atom    3 type  2   force =    -0.05848658    0.05132025   37.20050156
     atom    4 type  1   force =     0.95594839   -0.75416504   -0.68244460
     atom    5 type  2   force =     0.83784346   -1.34655032  -37.72946887
     atom    6 type  2   force =    -0.12309142    0.25229369   37.63053753
     atom    7 type  1   force =     2.54744353    2.90851775   -1.50792095
     atom    8 type  2   force =     1.40983247   -0.04345043  -37.79559576
     atom    9 type  2   force =    -0.20374726    0.06218312   37.59119536
     atom   10 type  1   force =     0.16226342    0.34521883   -3.38264545
     atom   11 type  2   force =     0.42689118    1.52795537  -38.67211512
     atom   12 type  2   force =    -0.14942896   -0.38345564   37.96433290
     atom   13 type  1   force =    -0.36835301   -0.53463656   -3.15408322
     atom   14 type  2   force =    -0.10665102    0.02573958  -38.50735358
     atom   15 type  2   force =     0.06369559    0.04584566   37.21577975
     atom   16 type  1   force =    -0.86751656   -3.59865401   -0.85354504
     atom   17 type  2   force =    -1.28654862   -1.21549474  -36.33844660
     atom   18 type  2   force =     0.11960420    0.43456389   37.72637588
     atom   19 type  1   force =    -2.46342875    1.65811307   -2.86723264
     atom   20 type  2   force =    -0.08421520    0.05913507   38.42444631
     atom   21 type  1   force =     0.39279756    0.37318555   -1.58193391
     atom   22 type  2   force =    -0.41092709    1.48890833  -38.28042430
     atom   23 type  2   force =     0.26994217   -0.23491495   37.35556496
     atom   24 type  1   force =     0.09697706   -0.21614455   -2.13873903
     atom   25 type  2   force =    -0.05694657    0.08883966  -38.77102069
     atom   26 type  2   force =     0.04898214    0.14369255   37.18704840
     atom   27 type  1   force =    -0.20262921   -0.77708430    0.65130338
     atom   28 type  2   force =     0.25296518   -0.48636002  -37.98833431
     atom   29 type  2   force =     0.07708166    0.20938291   37.71777746
     atom   30 type  1   force =    -0.16674148    0.55505532   -2.06446034
     atom   31 type  2   force =    -1.11452976   -0.33388883  -37.81250922
     atom   32 type  2   force =     0.18914103   -0.18744530   37.64154814
     atom   33 type  1   force =    -0.61886103    0.75888998   -3.59700933
     atom   34 type  2   force =     0.01899148    0.55683373  -38.74399765
     atom   35 type  2   force =    -0.07593693   -0.16273279   37.09542703
     atom   36 type  3   force =     0.14545021   -0.14870087   -8.56196784
     The core correction contribution to forces
     atom    1 type  1   force =     0.00000000    0.00000000    0.00000000
     atom    2 type  2   force =     0.00000751    0.00038168    0.02067924
     atom    3 type  2   force =     0.00009871    0.00020896   -0.02097635
     atom    4 type  1   force =     0.00000000    0.00000000    0.00000000
     atom    5 type  2   force =    -0.00026751    0.00089948    0.01970938
     atom    6 type  2   force =     0.00014457   -0.00034171   -0.02076613
     atom    7 type  1   force =     0.00000000    0.00000000    0.00000000
     atom    8 type  2   force =    -0.00073538    0.00040131    0.02064135
     atom    9 type  2   force =     0.00038708    0.00067607   -0.02092935
     atom   10 type  1   force =     0.00000000    0.00000000    0.00000000
     atom   11 type  2   force =    -0.00018956   -0.00069009    0.02050738
     atom   12 type  2   force =     0.00054569    0.00099530   -0.02066648
     atom   13 type  1   force =     0.00000000    0.00000000    0.00000000
     atom   14 type  2   force =     0.00049493   -0.00032283    0.02046855
     atom   15 type  2   force =     0.00002313    0.00033065   -0.02076904
     atom   16 type  1   force =     0.00000000    0.00000000    0.00000000
     atom   17 type  2   force =     0.00601118    0.00087690   -0.00950148
     atom   18 type  2   force =    -0.00001620   -0.00034923   -0.02126486
     atom   19 type  1   force =     0.00000000    0.00000000    0.00000000
     atom   20 type  2   force =     0.00028797    0.00074683   -0.02114615
     atom   21 type  1   force =     0.00000000    0.00000000    0.00000000
     atom   22 type  2   force =     0.00007659   -0.00028265    0.02044733
     atom   23 type  2   force =    -0.00084867    0.00098532   -0.02077287
     atom   24 type  1   force =     0.00000000    0.00000000    0.00000000
     atom   25 type  2   force =    -0.00059908   -0.00023202    0.02027142
     atom   26 type  2   force =    -0.00019371    0.00027925   -0.02107187
     atom   27 type  1   force =     0.00000000    0.00000000    0.00000000
     atom   28 type  2   force =    -0.00051945    0.00072979    0.02049176
     atom   29 type  2   force =    -0.00024725    0.00010435   -0.02085520
     atom   30 type  1   force =     0.00000000    0.00000000    0.00000000
     atom   31 type  2   force =     0.00022891    0.00083832    0.02015286
     atom   32 type  2   force =    -0.00034343    0.00139688   -0.02087974
     atom   33 type  1   force =     0.00000000    0.00000000    0.00000000
     atom   34 type  2   force =    -0.00024389    0.00027647    0.02110705
     atom   35 type  2   force =    -0.00008470    0.00088249   -0.02089858
     atom   36 type  3   force =     0.00000000    0.00000000    0.00000000
     The Hubbard contrib.    to forces
     atom    1 type  1   force =     0.00000000    0.00000000    0.00000000
     atom    2 type  2   force =     0.00000000    0.00000000    0.00000000
     atom    3 type  2   force =     0.00000000    0.00000000    0.00000000
     atom    4 type  1   force =     0.00000000    0.00000000    0.00000000
     atom    5 type  2   force =     0.00000000    0.00000000    0.00000000
     atom    6 type  2   force =     0.00000000    0.00000000    0.00000000
     atom    7 type  1   force =     0.00000000    0.00000000    0.00000000
     atom    8 type  2   force =     0.00000000    0.00000000    0.00000000
     atom    9 type  2   force =     0.00000000    0.00000000    0.00000000
     atom   10 type  1   force =     0.00000000    0.00000000    0.00000000
     atom   11 type  2   force =     0.00000000    0.00000000    0.00000000
     atom   12 type  2   force =     0.00000000    0.00000000    0.00000000
     atom   13 type  1   force =     0.00000000    0.00000000    0.00000000
     atom   14 type  2   force =     0.00000000    0.00000000    0.00000000
     atom   15 type  2   force =     0.00000000    0.00000000    0.00000000
     atom   16 type  1   force =     0.00000000    0.00000000    0.00000000
     atom   17 type  2   force =     0.00000000    0.00000000    0.00000000
     atom   18 type  2   force =     0.00000000    0.00000000    0.00000000
     atom   19 type  1   force =     0.00000000    0.00000000    0.00000000
     atom   20 type  2   force =     0.00000000    0.00000000    0.00000000
     atom   21 type  1   force =     0.00000000    0.00000000    0.00000000
     atom   22 type  2   force =     0.00000000    0.00000000    0.00000000
     atom   23 type  2   force =     0.00000000    0.00000000    0.00000000
     atom   24 type  1   force =     0.00000000    0.00000000    0.00000000
     atom   25 type  2   force =     0.00000000    0.00000000    0.00000000
     atom   26 type  2   force =     0.00000000    0.00000000    0.00000000
     atom   27 type  1   force =     0.00000000    0.00000000    0.00000000
     atom   28 type  2   force =     0.00000000    0.00000000    0.00000000
     atom   29 type  2   force =     0.00000000    0.00000000    0.00000000
     atom   30 type  1   force =     0.00000000    0.00000000    0.00000000
     atom   31 type  2   force =     0.00000000    0.00000000    0.00000000
     atom   32 type  2   force =     0.00000000    0.00000000    0.00000000
     atom   33 type  1   force =     0.00000000    0.00000000    0.00000000
     atom   34 type  2   force =     0.00000000    0.00000000    0.00000000
     atom   35 type  2   force =     0.00000000    0.00000000    0.00000000
     atom   36 type  3   force =     0.00000000    0.00000000    0.00000000
     The SCF correction term to forces
     atom    1 type  1   force =     0.00000261   -0.00001684    0.00001384
     atom    2 type  2   force =    -0.00000445   -0.00001625    0.00000193
     atom    3 type  2   force =    -0.00000937   -0.00000694    0.00000725
     atom    4 type  1   force =    -0.00003067    0.00000036   -0.00000838
     atom    5 type  2   force =     0.00000008   -0.00000705    0.00000051
     atom    6 type  2   force =    -0.00000447    0.00000941    0.00000462
     atom    7 type  1   force =    -0.00000894    0.00000171    0.00000910
     atom    8 type  2   force =    -0.00000976   -0.00000016    0.00001163
     atom    9 type  2   force =    -0.00000656   -0.00000042   -0.00000832
     atom   10 type  1   force =    -0.00000241    0.00000294    0.00001519
     atom   11 type  2   force =     0.00000298    0.00001595    0.00000911
     atom   12 type  2   force =    -0.00000215    0.00001161    0.00000580
     atom   13 type  1   force =     0.00000204   -0.00002561   -0.00000919
     atom   14 type  2   force =     0.00001003   -0.00000906    0.00000041
     atom   15 type  2   force =    -0.00000088   -0.00000677    0.00000636
     atom   16 type  1   force =     0.00002057    0.00001086   -0.00001961
     atom   17 type  2   force =     0.00000381   -0.00000330    0.00000292
     atom   18 type  2   force =    -0.00000387    0.00000727   -0.00000576
     atom   19 type  1   force =     0.00000028    0.00001046   -0.00000322
     atom   20 type  2   force =    -0.00000154   -0.00001209   -0.00000670
     atom   21 type  1   force =     0.00001784    0.00000067    0.00000884
     atom   22 type  2   force =     0.00000971    0.00001026    0.00000361
     atom   23 type  2   force =     0.00000214    0.00000226   -0.00000449
     atom   24 type  1   force =    -0.00000750   -0.00001669    0.00001679
     atom   25 type  2   force =    -0.00000477   -0.00001252    0.00000371
     atom   26 type  2   force =     0.00000779   -0.00000502   -0.00000081
     atom   27 type  1   force =     0.00000131    0.00000045   -0.00001638
     atom   28 type  2   force =    -0.00000411   -0.00000710   -0.00000002
     atom   29 type  2   force =     0.00000695    0.00000468   -0.00000140
     atom   30 type  1   force =    -0.00000639    0.00001741   -0.00000006
     atom   31 type  2   force =     0.00000487   -0.00000375    0.00000359
     atom   32 type  2   force =     0.00001132   -0.00000390   -0.00001685
     atom   33 type  1   force =     0.00000094    0.00001408    0.00000415
     atom   34 type  2   force =    -0.00001195    0.00001798    0.00001025
     atom   35 type  2   force =    -0.00000475    0.00001057    0.00000114
     atom   36 type  3   force =     0.00000050   -0.00000085    0.00000119

     Total force =     0.005903     Total SCF correction =     0.000097
     Energy error            =      7.6E-05 Ry
     Gradient error          =      2.0E-03 Ry/Bohr

     bfgs converged in  15 scf cycles and  14 bfgs steps
     (criteria: energy <  1.0E-04 Ry, force <  1.0E-02 Ry/Bohr)

     End of BFGS Geometry Optimization

     Final energy             =   -2205.5946259026 Ry

     File ./MoS2-V-O.bfgs deleted, as requested
Begin final coordinates

ATOMIC_POSITIONS (angstrom)
Mo            6.5573610021        1.7633214160        2.7579257652
S             8.1310050191        0.8663969424        4.3705999987
S             8.1412753999        0.8485946943        1.1798349288
Mo            8.1342267456        4.4961943667        2.7134301519
S             6.5181530200        3.6806884650        4.2870724170
S             6.5602028689        3.5696515128        1.1105058789
Mo            6.5350531320        7.2394430370        2.6489797525
S             8.0832695610        6.3198702478        4.2937779753
S             8.1574484325        6.3256950636        1.1088668201
Mo            8.1397166145        9.9484192936        2.7766689950
S             6.5276969375        8.9610148181        4.3440148055
S             6.6018594507        9.0671322904        1.1180054532
Mo            3.4189744213        1.7324094193        2.7793667265
S             5.0054654284        0.8109200003        4.3578933226
S             4.9904216970        0.8395992955        1.1745764217
Mo            4.9692839802        4.5400879103        2.6423819870
S             3.4340502653        3.6592521939        4.2517697439
S             3.4154278689        3.5409024328        1.1147307295
Mo            3.5071960717        7.1624982890        2.6754291274
S             5.0260897859        6.3147207658        1.0372469217
Mo            5.0075714662        9.9125737102        2.7410536778
S             3.4822593711        8.9300930665        4.3335232877
S             3.4084498607        9.0270567100        1.1410407944
Mo            0.2699564186        1.7459761116        2.7664155885
S             1.8430583521        0.8305133147        4.3843788881
S             1.8534153124        0.8231531874        1.1831407456
Mo            1.8339665150        4.4918493008        2.7001161181
S             0.2565653998        3.6108801314        4.3143434368
S             0.2557402202        3.5551110827        1.1307344132
Mo            0.2739852199        7.2194194213        2.7390820036
S             1.9165881301        6.3049722433        4.3000681189
S             1.8592656954        6.3275515357        1.1083937559
Mo            1.8540700868        9.9252174230        2.7844378153
S             0.2620730222        9.0239357699        4.3722496966
S             0.2695687087        9.0542168389        1.1849790869
H             3.1238888633        3.6545807754        5.5933045220
End final coordinates



     Writing all to output data dir ./MoS2-V-O.save/
 
     init_run     :      2.37s CPU      2.67s WALL (       1 calls)
     electrons    :   1268.17s CPU   1417.01s WALL (      15 calls)
     update_pot   :     20.12s CPU     21.30s WALL (      14 calls)
     forces       :     20.58s CPU     24.12s WALL (      15 calls)

     Called by init_run:
     wfcinit      :      0.38s CPU      0.44s WALL (       1 calls)
     potinit      :      1.31s CPU      1.45s WALL (       1 calls)
     hinit0       :      0.16s CPU      0.19s WALL (       1 calls)

     Called by electrons:
     c_bands      :    177.57s CPU    180.52s WALL (     135 calls)
     sum_band     :     39.82s CPU     52.57s WALL (     135 calls)
     v_of_rho     :     62.28s CPU     76.33s WALL (     139 calls)
     newd         :     18.49s CPU     30.01s WALL (     139 calls)
     mix_rho      :    976.63s CPU   1084.38s WALL (     135 calls)

     Called by c_bands:
     init_us_2    :      2.89s CPU      3.11s WALL (     271 calls)
     init_us_2:cp :      2.89s CPU      3.11s WALL (     271 calls)
     regterg      :    167.48s CPU    170.20s WALL (     135 calls)

     Called by *egterg:
     rdiaghg      :     12.69s CPU     12.83s WALL (     709 calls)
     h_psi        :     91.03s CPU     91.84s WALL (     735 calls)
     s_psi        :     10.94s CPU     10.98s WALL (     735 calls)
     g_psi        :      0.99s CPU      1.00s WALL (     599 calls)

     Called by h_psi:
     h_psi:calbec :     13.15s CPU     13.22s WALL (     735 calls)
     vloc_psi     :     64.78s CPU     65.43s WALL (     735 calls)
     add_vuspsi   :     10.93s CPU     10.99s WALL (     735 calls)

     General routines
     calbec       :     18.68s CPU     18.77s WALL (     930 calls)
     fft          :     39.87s CPU     46.66s WALL (    9359 calls)
     ffts         :    436.47s CPU    540.65s WALL (  237327 calls)
     fftw         :     55.26s CPU     55.74s WALL (   81439 calls)
     interpolate  :      1.03s CPU      1.21s WALL (     139 calls)
 
     Parallel routines
 
     PWSCF        :  21m53.97s CPU  24m30.06s WALL

 
   This run was terminated on:   0:49: 0   4Nov2023            

=------------------------------------------------------------------------------=
   JOB DONE.
=------------------------------------------------------------------------------=
