
     Program PWSCF v.7.2 starts on  4Nov2023 at  6:20:31 

     This program is part of the open-source Quantum ESPRESSO suite
     for quantum simulation of materials; please cite
         "P. Giannozzi et al., J. Phys.:Condens. Matter 21 395502 (2009);
         "P. Giannozzi et al., J. Phys.:Condens. Matter 29 465901 (2017);
         "P. Giannozzi et al., J. Chem. Phys. 152 154105 (2020);
          URL http://www.quantum-espresso.org", 
     in publications or presentations arising from this work. More details at
     http://www.quantum-espresso.org/quote

     Parallel version (MPI & OpenMP), running on      48 processor cores
     Number of MPI processes:                48
     Threads/MPI process:                     1

     MPI processes distributed on     1 nodes
     107478 MiB available memory on the printing compute node when the environment starts
 
     Waiting for input...
     Reading input from standard input
Warning: card &CELL ignored
Warning: card CELL_DYNAMICS = 'BFGS', ignored
Warning: card CELL_DOFREE = '2DXY' ignored
Warning: card / ignored

     Current dimensions of program PWSCF are:
     Max number of different atomic species (ntypx) = 10
     Max number of k-points (npk) =  40000
     Max angular momentum in pseudopotentials (lmaxx) =  4

     IMPORTANT: XC functional enforced from input :
     Exchange-correlation= RVV10
                           (   1   4  13   4  26   0   0)
     Any further DFT definition will be discarded
     Please, verify this is what you really want


     gamma-point specific algorithms are used
     signal trapping enabled: kill the code with -SIGUSR1 to stop cleanly the simulation 
 
     R & G space division:  proc/nbgrp/npool/nimage =      48
     Subspace diagonalization in iterative solution of the eigenvalue problem:
     one sub-group per band group will be used
     scalapack distributed-memory algorithm (size of sub-group:  2*  2 procs)

 
     Parallelization info
     --------------------
     sticks:   dense  smooth     PW     G-vecs:    dense   smooth      PW
     Min         243     194     47                49060    35090    4376
     Max         246     196     50                49086    35128    4410
     Sum       11735    9389   2349              2355467  1685513  210763
 
     Using Slab Decomposition
 


     bravais-lattice index     =            0
     lattice parameter (alat)  =      17.8707  a.u.
     unit-cell volume          =   17436.2743 (a.u.)^3
     number of atoms/cell      =           36
     number of atomic types    =            3
     number of electrons       =       307.00
     number of Kohn-Sham states=          185
     kinetic-energy cutoff     =      80.0000  Ry
     charge density cutoff     =     400.0000  Ry
     scf convergence threshold =      1.0E-06
     mixing beta               =       0.7000
     number of iterations used =            8  local-TF  mixing
     energy convergence thresh.=      1.0E-04
     force convergence thresh. =      1.0E-02
     Exchange-correlation= RVV10
                           (   1   4  13   4  26   0   0)
     nstep                     =          200


     celldm(1)=  17.870686  celldm(2)=   0.000000  celldm(3)=   0.000000
     celldm(4)=   0.000000  celldm(5)=   0.000000  celldm(6)=   0.000000

     crystal axes: (cart. coord. in units of alat)
               a(1) = (   1.000000   0.000000   0.000000 )  
               a(2) = (   0.000000   1.155671   0.000000 )  
               a(3) = (   0.000000   0.000000   2.643601 )  

     reciprocal axes: (cart. coord. in units 2 pi/alat)
               b(1) = (  1.000000  0.000000  0.000000 )  
               b(2) = (  0.000000  0.865298  0.000000 )  
               b(3) = (  0.000000  0.000000  0.378272 )  


     PseudoPot. # 1 for Mo read from file:
     ../pseudo/Mo_ONCV_PBE-1.0.oncvpsp.upf
     MD5 check sum: 1b5d28e075c9ccadda658a603575cd1f
     Pseudo is Norm-conserving, Zval = 14.0
     Generated using ONCVPSP code by D. R. Hamann
     Using radial grid of 1526 points,  6 beta functions with: 
                l(1) =   0
                l(2) =   0
                l(3) =   1
                l(4) =   1
                l(5) =   2
                l(6) =   2

     PseudoPot. # 2 for S  read from file:
     ../pseudo/s_pbe_v1.4.uspp.F.UPF
     MD5 check sum: 88d86576ff6df21479756cfb9bdac1df
     Pseudo is Ultrasoft + core correction, Zval =  6.0
     Generated by new atomic code, or converted to UPF format
     Using radial grid of  907 points,  6 beta functions with: 
                l(1) =   0
                l(2) =   0
                l(3) =   1
                l(4) =   1
                l(5) =   2
                l(6) =   2
     Q(r) pseudized with  8 coefficients,  rinner =    1.300   1.300   1.300
                                                       1.300   1.300

     PseudoPot. # 3 for H  read from file:
     ../pseudo/H_ONCV_PBE-1.0.oncvpsp.upf
     MD5 check sum: 1790becc920ee074925cf490c71280fe
     Pseudo is Norm-conserving, Zval =  1.0
     Generated using ONCVPSP code by D. R. Hamann
     Using radial grid of 1166 points,  2 beta functions with: 
                l(1) =   0
                l(2) =   0

     atomic species   valence    mass     pseudopotential
        Mo            14.00    95.94000     Mo( 1.00)
        S              6.00    32.06500     S ( 1.00)
        H              1.00     1.00794     H ( 1.00)

     No symmetry found



   Cartesian axes

     site n.     atom                  positions (alat units)
         1           Mo  tau(   1) = (   0.6952221   0.1890506   0.2985846  )
         2           S   tau(   2) = (   0.8646417   0.0856217   0.4689279  )
         3           S   tau(   3) = (   0.8663890   0.0857843   0.1351291  )
         4           Mo  tau(   4) = (   0.8560186   0.4753274   0.2873942  )
         5           S   tau(   5) = (   0.6873294   0.3936244   0.4596353  )
         6           S   tau(   6) = (   0.6929804   0.3713468   0.1185692  )
         7           Mo  tau(   7) = (   0.6862796   0.7633098   0.2825370  )
         8           S   tau(   8) = (   0.8545980   0.6708292   0.4486168  )
         9           S   tau(   9) = (   0.8545123   0.6666874   0.1146125  )
        10           Mo  tau(  10) = (   0.8629403   1.0471007   0.3006803  )
        11           S   tau(  11) = (   0.6868280   0.9456650   0.4634891  )
        12           S   tau(  12) = (   0.6998113   0.9568511   0.1205389  )
        13           Mo  tau(  13) = (   0.3618216   0.1847309   0.2935964  )
        14           S   tau(  14) = (   0.5260962   0.0863870   0.4600448  )
        15           S   tau(  15) = (   0.5348379   0.0894875   0.1297123  )
        16           Mo  tau(  16) = (   0.5265817   0.4772436   0.2784130  )
        17           S   tau(  17) = (   0.3624753   0.3882513   0.4525556  )
        18           S   tau(  18) = (   0.3635411   0.3752055   0.1119148  )
        19           Mo  tau(  19) = (   0.3652268   0.7630864   0.2781795  )
        20           S   tau(  20) = (   0.5269494   0.6690381   0.1096838  )
        21           Mo  tau(  21) = (   0.5300192   1.0470394   0.2900995  )
        22           S   tau(  22) = (   0.3670346   0.9457522   0.4574073  )
        23           S   tau(  23) = (   0.3604225   0.9585725   0.1159032  )
        24           Mo  tau(  24) = (   0.0313099   0.1847895   0.3013130  )
        25           S   tau(  25) = (   0.1956761   0.0838230   0.4650863  )
        26           S   tau(  26) = (   0.1967693   0.0903508   0.1278874  )
        27           Mo  tau(  27) = (   0.1967578   0.4753919   0.2813011  )
        28           S   tau(  28) = (   0.0287851   0.3864324   0.4586755  )
        29           S   tau(  29) = (   0.0244514   0.3729871   0.1239344  )
        30           Mo  tau(  30) = (   0.0286728   0.7631204   0.2856894  )
        31           S   tau(  31) = (   0.2011512   0.6675435   0.4465001  )
        32           S   tau(  32) = (   0.1969214   0.6672839   0.1104564  )
        33           Mo  tau(  33) = (   0.1950294   1.0511147   0.2932237  )
        34           S   tau(  34) = (   0.0312912   0.9612169   0.4667423  )
        35           S   tau(  35) = (   0.0292670   0.9563028   0.1216485  )
        36           H   tau(  36) = (   0.7777778   0.7704471   0.5656742  )

     number of k points=     1  Gaussian smearing, width (Ry)=  0.0100
                       cart. coord. in units 2pi/alat
        k(    1) = (   0.0000000   0.0000000   0.0000000), wk =   2.0000000

     Dense  grid:  1177734 G-vectors     FFT dimensions: ( 120, 135, 320)

     Smooth grid:   842757 G-vectors     FFT dimensions: ( 108, 120, 270)

     Estimated max dynamical RAM per process >     146.59 MB

     Estimated total dynamical RAM >       6.87 GB

     Initial potential from superposition of free atoms

     starting charge     306.9873, renormalised to     307.0000

     negative rho (up, down):  1.407E-04 0.000E+00


---------------------------------------------------------------------------------
Carrying out rVV10 run using the following parameters:
Nqs =      20    Nr_points =    1024   r_max =   100.000
b_value =  6.30000    beta =  0.00901
     q_mesh =  0.00010000  0.00030000  0.00058939  0.00100810
               0.00161396  0.00249058  0.00375900  0.00559430
               0.00824984  0.01209221  0.01765183  0.02569619
               0.03733578  0.05417739  0.07854596  0.11380545
               0.16482331  0.23864234  0.34545298  0.50000000

Gradients computed in Reciprocal space

---------------------------------------------------------------------------------


     Starting wfcs are  213 randomized atomic wfcs

     total cpu time spent up to now is        2.8 secs

     Self-consistent Calculation

     iteration #  1     ecut=    80.00 Ry     beta= 0.70
     Davidson diagonalization with overlap
     ethr =  1.00E-02,  avg # of iterations =  2.0

     Threshold (ethr) on eigenvalues was too large:
     Diagonalizing with lowered threshold

     Davidson diagonalization with overlap
     ethr =  3.79E-04,  avg # of iterations =  4.0

     negative rho (up, down):  1.487E-08 0.000E+00

     total cpu time spent up to now is       18.7 secs

     total energy              =   -2205.59508951 Ry
     estimated scf accuracy    <       1.45077529 Ry

     iteration #  2     ecut=    80.00 Ry     beta= 0.70
     Davidson diagonalization with overlap
     ethr =  4.73E-04,  avg # of iterations =  2.0

     total cpu time spent up to now is       21.2 secs

     total energy              =   -2205.44874218 Ry
     estimated scf accuracy    <       0.57722167 Ry

     iteration #  3     ecut=    80.00 Ry     beta= 0.70
     Davidson diagonalization with overlap
     ethr =  1.88E-04,  avg # of iterations =  5.0

     total cpu time spent up to now is       23.8 secs

     total energy              =   -2205.52414404 Ry
     estimated scf accuracy    <       0.07628000 Ry

     iteration #  4     ecut=    80.00 Ry     beta= 0.70
     Davidson diagonalization with overlap
     c_bands:  2 eigenvalues not converged
     ethr =  2.48E-05,  avg # of iterations = 20.0

     total cpu time spent up to now is       27.3 secs

     total energy              =   -2205.53043408 Ry
     estimated scf accuracy    <       0.02830573 Ry

     iteration #  5     ecut=    80.00 Ry     beta= 0.70
     Davidson diagonalization with overlap
     ethr =  9.22E-06,  avg # of iterations =  2.0

     total cpu time spent up to now is       29.6 secs

     total energy              =   -2205.53012012 Ry
     estimated scf accuracy    <       0.01838960 Ry

     iteration #  6     ecut=    80.00 Ry     beta= 0.70
     Davidson diagonalization with overlap
     ethr =  5.99E-06,  avg # of iterations =  2.0

     total cpu time spent up to now is       31.8 secs

     total energy              =   -2205.52907944 Ry
     estimated scf accuracy    <       0.01200054 Ry

     iteration #  7     ecut=    80.00 Ry     beta= 0.70
     Davidson diagonalization with overlap
     ethr =  3.91E-06,  avg # of iterations =  2.0

     negative rho (up, down):  1.752E-06 0.000E+00

     total cpu time spent up to now is       35.8 secs

     total energy              =   -2205.52750588 Ry
     estimated scf accuracy    <       0.00709256 Ry

     iteration #  8     ecut=    80.00 Ry     beta= 0.70
     Davidson diagonalization with overlap
     c_bands:  1 eigenvalues not converged
     ethr =  2.31E-06,  avg # of iterations = 20.0

     negative rho (up, down):  4.585E-03 0.000E+00

     total cpu time spent up to now is       41.0 secs

     total energy              =   -2205.52703325 Ry
     estimated scf accuracy    <       0.00366590 Ry

     iteration #  9     ecut=    80.00 Ry     beta= 0.70
     Davidson diagonalization with overlap
     ethr =  1.19E-06,  avg # of iterations = 12.0

     negative rho (up, down):  3.439E-02 0.000E+00

     total cpu time spent up to now is       45.5 secs

     total energy              =   -2205.52696727 Ry
     estimated scf accuracy    <       0.00227696 Ry

     iteration # 10     ecut=    80.00 Ry     beta= 0.70
     Davidson diagonalization with overlap
     ethr =  7.42E-07,  avg # of iterations =  2.0

     negative rho (up, down):  2.855E-02 0.000E+00

     total cpu time spent up to now is       50.2 secs

     total energy              =   -2205.52700614 Ry
     estimated scf accuracy    <       0.00074529 Ry

     iteration # 11     ecut=    80.00 Ry     beta= 0.70
     Davidson diagonalization with overlap
     ethr =  2.43E-07,  avg # of iterations =  2.0

     negative rho (up, down):  1.280E-02 0.000E+00

     total cpu time spent up to now is       55.8 secs

     total energy              =   -2205.52704753 Ry
     estimated scf accuracy    <       0.00016447 Ry

     iteration # 12     ecut=    80.00 Ry     beta= 0.70
     Davidson diagonalization with overlap
     ethr =  5.36E-08,  avg # of iterations =  5.0

     negative rho (up, down):  4.406E-03 0.000E+00

     total cpu time spent up to now is       62.3 secs

     total energy              =   -2205.52709612 Ry
     estimated scf accuracy    <       0.00004207 Ry

     iteration # 13     ecut=    80.00 Ry     beta= 0.70
     Davidson diagonalization with overlap
     ethr =  1.37E-08,  avg # of iterations =  4.0

     negative rho (up, down):  4.043E-04 0.000E+00

     total cpu time spent up to now is       74.9 secs

     total energy              =   -2205.52710288 Ry
     estimated scf accuracy    <       0.00000492 Ry

     iteration # 14     ecut=    80.00 Ry     beta= 0.70
     Davidson diagonalization with overlap
     ethr =  1.60E-09,  avg # of iterations =  5.0

     negative rho (up, down):  3.526E-04 0.000E+00

     total cpu time spent up to now is       86.0 secs

     total energy              =   -2205.52710704 Ry
     estimated scf accuracy    <       0.00000138 Ry

     iteration # 15     ecut=    80.00 Ry     beta= 0.70
     Davidson diagonalization with overlap
     ethr =  4.48E-10,  avg # of iterations =  2.0

     negative rho (up, down):  1.368E-04 0.000E+00

     total cpu time spent up to now is       88.1 secs

     End of self-consistent calculation

          k = 0.0000 0.0000 0.0000 (105382 PWs)   bands (ev):

   -62.8673 -62.8599 -62.8536 -62.8241 -62.8181 -62.8116 -62.8037 -62.8000
   -62.7752 -62.7671 -62.6910 -62.6084 -37.2076 -37.1400 -37.1285 -37.1211
   -37.1061 -37.0833 -37.0735 -37.0625 -37.0505 -37.0452 -37.0388 -37.0297
   -37.0154 -37.0105 -37.0035 -36.9957 -36.9890 -36.9874 -36.9794 -36.9674
   -36.9557 -36.9365 -36.9310 -36.9085 -36.8982 -36.8806 -36.8730 -36.8566
   -36.8469 -36.8418 -36.8240 -36.7922 -36.7753 -36.7498 -36.6870 -36.6530
   -16.0387 -15.4522 -15.1740 -15.0206 -14.8931 -14.8293 -14.6324 -14.4753
   -14.4436 -14.4156 -14.3706 -14.3185 -14.2939 -14.2584 -14.1533 -14.1294
   -14.0940 -14.0826 -14.0053 -13.8765 -13.8371 -13.8132 -13.7767  -8.4013
    -7.6019  -7.4464  -7.3107  -7.2293  -7.1772  -7.1675  -7.1146  -7.0268
    -6.8235  -6.7871  -6.7697  -6.6748  -6.6094  -6.5163  -6.4125  -6.3961
    -6.3151  -6.2381  -6.0933  -5.9150  -5.8968  -5.8782  -5.8211  -5.7640
    -5.7527  -5.6961  -5.6700  -5.6400  -5.6139  -5.5163  -5.5006  -5.4825
    -5.4467  -5.4050  -5.1458  -5.1360  -5.1013  -4.9910  -4.9668  -4.8978
    -4.8957  -4.8130  -4.6754  -4.5231  -4.3475  -4.3074  -4.2802  -4.2319
    -4.2041  -4.0299  -4.0088  -3.9267  -3.7916  -3.7575  -3.7200  -3.6912
    -3.6450  -3.5595  -3.5172  -3.4754  -3.4648  -3.4476  -3.4065  -3.3689
    -3.3506  -3.2229  -3.1233  -2.8700  -2.8601  -2.7780  -2.7604  -2.6990
    -2.6934  -2.6611  -2.6327  -2.6018  -2.5476  -2.2830  -1.9864  -1.9683
    -1.9127  -0.9709  -0.7488  -0.5964  -0.1668  -0.1294  -0.0978   0.0199
     0.0556   0.1502   0.2511   0.2553   0.2727   0.3264   0.3506   0.4540
     0.5018   0.5440   0.5829   0.6092   0.6324   0.6681   0.7215   0.7860
     0.7906   0.8152   0.8646   0.9144   0.9597   1.0094   1.0647   1.2598
     1.3872

     the Fermi energy is    -0.9733 ev

!    total energy              =   -2205.52710763 Ry
     estimated scf accuracy    <       0.00000026 Ry
     smearing contrib. (-TS)   =      -0.00601342 Ry
     internal energy E=F+TS    =   -2205.52109422 Ry

     The total energy is F=E-TS. E is the sum of the following terms:
     one-electron contribution =  -18046.52457356 Ry
     hartree contribution      =    9010.21035222 Ry
     xc contribution           =    -385.26251043 Ry
     ewald contribution        =    7216.05563756 Ry

     convergence has been achieved in  15 iterations

     negative rho (up, down):  1.368E-04 0.000E+00

     Forces acting on atoms (cartesian axes, Ry/au):

     atom    1 type  1   force =     0.01374038   -0.02641656    0.00441726
     atom    2 type  2   force =    -0.01519565    0.01648578    0.00073231
     atom    3 type  2   force =    -0.01190606    0.01091451   -0.00296595
     atom    4 type  1   force =    -0.00470556   -0.02077723   -0.02153269
     atom    5 type  2   force =    -0.00520777   -0.01166091   -0.00312361
     atom    6 type  2   force =     0.00571761    0.01242196    0.00300227
     atom    7 type  1   force =    -0.00633321    0.00673650   -0.03623046
     atom    8 type  2   force =    -0.01975806    0.04790359    0.07275904
     atom    9 type  2   force =     0.01240211    0.00323237    0.01144109
     atom   10 type  1   force =    -0.01100437    0.00855504   -0.02699598
     atom   11 type  2   force =     0.01075404   -0.01211673    0.00404611
     atom   12 type  2   force =    -0.00118162    0.00067019    0.00522582
     atom   13 type  1   force =     0.00538989    0.00664824   -0.00667775
     atom   14 type  2   force =     0.00704769    0.00062638    0.01201494
     atom   15 type  2   force =    -0.01141584    0.00313659   -0.00830961
     atom   16 type  1   force =     0.00235142    0.00535641   -0.00162050
     atom   17 type  2   force =     0.00502689    0.00057953    0.00224160
     atom   18 type  2   force =    -0.00340508   -0.00628327    0.01368053
     atom   19 type  1   force =     0.00783574   -0.01355138   -0.00066453
     atom   20 type  2   force =     0.00359690   -0.00552946   -0.00054365
     atom   21 type  1   force =    -0.01124724    0.00322744   -0.00814782
     atom   22 type  2   force =    -0.00459551   -0.00092462   -0.00292473
     atom   23 type  2   force =    -0.00007985    0.00243886    0.00991080
     atom   24 type  1   force =    -0.00780283   -0.00442576   -0.02234214
     atom   25 type  2   force =     0.01660349    0.01890168    0.00823272
     atom   26 type  2   force =    -0.01164644   -0.00122534   -0.00416490
     atom   27 type  1   force =    -0.00343855    0.00221294    0.00923568
     atom   28 type  2   force =     0.00355838   -0.00240522   -0.00448379
     atom   29 type  2   force =    -0.00057592   -0.00086485   -0.00192833
     atom   30 type  1   force =    -0.00517747    0.01586761    0.00060012
     atom   31 type  2   force =     0.00423692   -0.00092424    0.01619056
     atom   32 type  2   force =    -0.00849279    0.00638613    0.00669412
     atom   33 type  1   force =     0.01308181   -0.00263785   -0.00776450
     atom   34 type  2   force =     0.00412956   -0.04194257   -0.00958806
     atom   35 type  2   force =    -0.00955195    0.00618905    0.01370254
     atom   36 type  3   force =     0.03724896   -0.02680479   -0.02411848
     The non-local contrib.  to forces
     atom    1 type  1   force =    -0.00093467    0.03256042   -0.01347543
     atom    2 type  2   force =    -0.01027764    0.00216960   -0.27004446
     atom    3 type  2   force =    -0.01469506   -0.00316549    0.27188309
     atom    4 type  1   force =    -0.00240912    0.00714868   -0.01224561
     atom    5 type  2   force =     0.00305277   -0.03570530   -0.25040650
     atom    6 type  2   force =     0.00560105    0.01426558    0.26357219
     atom    7 type  1   force =    -0.02647074   -0.00704561   -0.00152972
     atom    8 type  2   force =    -0.10901963    0.18905709    0.03205573
     atom    9 type  2   force =     0.00873582   -0.00675310    0.28268607
     atom   10 type  1   force =     0.00493336    0.00100836    0.00108839
     atom   11 type  2   force =     0.03340676   -0.01381680   -0.18990261
     atom   12 type  2   force =    -0.01135528   -0.01807059    0.26373324
     atom   13 type  1   force =    -0.00036836    0.01911373   -0.00513843
     atom   14 type  2   force =     0.01028361   -0.01022056   -0.26204986
     atom   15 type  2   force =    -0.01367109   -0.00613171    0.26073174
     atom   16 type  1   force =     0.00309645    0.03266558   -0.02500508
     atom   17 type  2   force =     0.00119720   -0.02853070   -0.24691453
     atom   18 type  2   force =    -0.00358468   -0.00291752    0.27299203
     atom   19 type  1   force =     0.01947888   -0.00188169   -0.01564635
     atom   20 type  2   force =    -0.00263888   -0.02165471    0.26506526
     atom   21 type  1   force =     0.00830195    0.02940350    0.00420090
     atom   22 type  2   force =    -0.01220823    0.00058014   -0.25645970
     atom   23 type  2   force =     0.00860723   -0.01279107    0.26775594
     atom   24 type  1   force =     0.00555795    0.01462891   -0.01166221
     atom   25 type  2   force =     0.00994130    0.00574986   -0.25737297
     atom   26 type  2   force =    -0.00322194   -0.01326786    0.26388555
     atom   27 type  1   force =     0.00005870    0.00498214    0.01193020
     atom   28 type  2   force =     0.00216264   -0.02736043   -0.27125960
     atom   29 type  2   force =     0.00342798    0.00208505    0.26516893
     atom   30 type  1   force =    -0.00224878    0.01652852    0.00480444
     atom   31 type  2   force =    -0.00642912    0.00026196   -0.25264882
     atom   32 type  2   force =    -0.00134842   -0.01105225    0.27098535
     atom   33 type  1   force =    -0.00423529    0.01076205    0.00587543
     atom   34 type  2   force =    -0.00402586   -0.04206034   -0.27204024
     atom   35 type  2   force =    -0.00398806   -0.01430855    0.27167979
     atom   36 type  3   force =     0.01246638   -0.01326989   -0.01991796
     The ionic contribution  to forces
     atom    1 type  1   force =     0.36217452    0.22938862    5.67455510
     atom    2 type  2   force =    -0.64067601    0.48578113   39.27231040
     atom    3 type  2   force =    -0.15620301    0.03853473  -36.09273036
     atom    4 type  1   force =     0.16878664    0.28358685    0.44416698
     atom    5 type  2   force =    -1.00997026    1.32577581   38.71274682
     atom    6 type  2   force =     0.33710275   -0.53493005  -38.04296629
     atom    7 type  1   force =    -2.88849075   -2.79587546    1.75757166
     atom    8 type  2   force =    -0.42913058   -0.69760588   36.55380376
     atom    9 type  2   force =     0.36144224   -0.06522463  -38.09967930
     atom   10 type  1   force =    -0.99917861    0.02357921    5.40373436
     atom   11 type  2   force =    -0.85944148   -1.02286215   38.81933064
     atom   12 type  2   force =     0.42543199    0.73990341  -37.92948376
     atom   13 type  1   force =     0.45739482    0.98695691    2.86999248
     atom   14 type  2   force =     0.02126021    0.04515173   38.51645480
     atom   15 type  2   force =     0.14454213   -0.04691555  -36.80354950
     atom   16 type  1   force =    -0.14980375    3.77156295    0.36929258
     atom   17 type  2   force =     0.78552477    1.44378828   37.93217348
     atom   18 type  2   force =    -0.16839750   -0.66547995  -38.56149767
     atom   19 type  1   force =     2.60658406   -2.44483117    0.53335798
     atom   20 type  2   force =     0.19361696   -0.21605963  -38.53145809
     atom   21 type  1   force =    -0.10738755    0.24866736    1.03627053
     atom   22 type  2   force =     0.38406917   -1.64565210   38.40900009
     atom   23 type  2   force =    -0.10023496    0.68868133  -38.30560492
     atom   24 type  1   force =    -0.50153075    1.14185526    5.83816228
     atom   25 type  2   force =     0.67440396    0.31474867   39.27462057
     atom   26 type  2   force =    -0.28269191    0.07675259  -37.32324198
     atom   27 type  1   force =     0.07689734    0.29958747   -2.29134684
     atom   28 type  2   force =     0.11266495    0.90740950   38.19349567
     atom   29 type  2   force =    -0.24947057   -0.45550581  -37.27271250
     atom   30 type  1   force =    -0.02085897   -0.90755763   -0.37937976
     atom   31 type  2   force =     1.30232491   -0.09812695   37.29687076
     atom   32 type  2   force =    -0.46555352   -0.01847303  -38.65767617
     atom   33 type  1   force =     0.85266639   -0.73981217    2.02613307
     atom   34 type  2   force =     0.45444114   -1.25838293   39.27907870
     atom   35 type  2   force =    -0.26833882    0.51164854  -37.85724308
     atom   36 type  3   force =    -0.42396993    0.04993473    7.93544750
     The local contribution  to forces
     atom    1 type  1   force =    -0.34753040   -0.28833070   -5.65603404
     atom    2 type  2   force =     0.63550308   -0.47135219  -39.02192202
     atom    3 type  2   force =     0.15833557   -0.02446770   35.83898788
     atom    4 type  1   force =    -0.17105708   -0.31169335   -0.45301774
     atom    5 type  2   force =     1.00223023   -1.30367003  -38.48534380
     atom    6 type  2   force =    -0.33690235    0.53431947   37.80334999
     atom    7 type  1   force =     2.90861319    2.80970141   -1.79171362
     atom    8 type  2   force =     0.51149678    0.56724851  -36.51666913
     atom    9 type  2   force =    -0.35745921    0.07471784   37.84976541
     atom   10 type  1   force =     0.98330313   -0.01601796   -5.43112607
     atom   11 type  2   force =     0.83868809    1.02362258  -38.64184523
     atom   12 type  2   force =    -0.41632922   -0.72254280   37.69187644
     atom   13 type  1   force =    -0.45160284   -0.99937374   -2.87091026
     atom   14 type  2   force =    -0.02394596   -0.03435285  -38.26264113
     atom   15 type  2   force =    -0.14303951    0.05585478   36.55516890
     atom   16 type  1   force =     0.14901647   -3.79900618   -0.34544262
     atom   17 type  2   force =    -0.78177369   -1.41623324  -37.70278089
     atom   18 type  2   force =     0.16850238    0.66260110   38.32326217
     atom   19 type  1   force =    -2.61828525    2.43319084   -0.51785531
     atom   20 type  2   force =    -0.18770433    0.23135214   38.28706221
     atom   21 type  1   force =     0.08780445   -0.27479463   -1.04798395
     atom   22 type  2   force =    -0.37690113    1.64447258  -38.17554672
     atom   23 type  2   force =     0.09215122   -0.67465711   38.06877538
     atom   24 type  1   force =     0.48817525   -1.16086200   -5.84815818
     atom   25 type  2   force =    -0.66762997   -0.30116176  -39.02917518
     atom   26 type  2   force =     0.27440336   -0.06541574   37.07618037
     atom   27 type  1   force =    -0.08040956   -0.30238875    2.28909403
     atom   28 type  2   force =    -0.11127682   -0.88431936  -37.94715674
     atom   29 type  2   force =     0.24588754    0.45315672   37.02638538
     atom   30 type  1   force =     0.01802907    0.90696806    0.37566302
     atom   31 type  2   force =    -1.29212378    0.09687336  -37.04821747
     atom   32 type  2   force =     0.45862377    0.03528862   38.41441393
     atom   33 type  1   force =    -0.83538841    0.72636427   -2.03913388
     atom   34 type  2   force =    -0.44688469    1.25704149  -39.03731820
     atom   35 type  2   force =     0.26281142   -0.49234918   37.62049208
     atom   36 type  3   force =     0.44875959   -0.06346535   -7.93960718
     The core correction contribution to forces
     atom    1 type  1   force =     0.00000000    0.00000000    0.00000000
     atom    2 type  2   force =     0.00026958   -0.00012036    0.02071877
     atom    3 type  2   force =     0.00065852    0.00003048   -0.02096682
     atom    4 type  1   force =     0.00000000    0.00000000    0.00000000
     atom    5 type  2   force =    -0.00051162    0.00187811    0.02016114
     atom    6 type  2   force =    -0.00008850   -0.00124424   -0.02087859
     atom    7 type  1   force =     0.00000000    0.00000000    0.00000000
     atom    8 type  2   force =     0.00690372   -0.01076628    0.00395478
     atom    9 type  2   force =    -0.00028663    0.00047108   -0.02129871
     atom   10 type  1   force =     0.00000000    0.00000000    0.00000000
     atom   11 type  2   force =    -0.00187558    0.00096938    0.01682579
     atom   12 type  2   force =     0.00108674    0.00137656   -0.02082985
     atom   13 type  1   force =     0.00000000    0.00000000    0.00000000
     atom   14 type  2   force =    -0.00056608    0.00006366    0.02060533
     atom   15 type  2   force =     0.00073580    0.00037680   -0.02055369
     atom   16 type  1   force =     0.00000000    0.00000000    0.00000000
     atom   17 type  2   force =     0.00005577    0.00147710    0.02008240
     atom   18 type  2   force =     0.00007450   -0.00049685   -0.02099241
     atom   19 type  1   force =     0.00000000    0.00000000    0.00000000
     atom   20 type  2   force =     0.00027553    0.00081230   -0.02117326
     atom   21 type  1   force =     0.00000000    0.00000000    0.00000000
     atom   22 type  2   force =     0.00042335   -0.00031269    0.02038941
     atom   23 type  2   force =    -0.00062840    0.00116269   -0.02090097
     atom   24 type  1   force =     0.00000000    0.00000000    0.00000000
     atom   25 type  2   force =    -0.00011088   -0.00041678    0.02052296
     atom   26 type  2   force =    -0.00012130    0.00073855   -0.02086991
     atom   27 type  1   force =     0.00000000    0.00000000    0.00000000
     atom   28 type  2   force =     0.00002394    0.00180599    0.02075587
     atom   29 type  2   force =    -0.00041947   -0.00059530   -0.02067001
     atom   30 type  1   force =     0.00000000    0.00000000    0.00000000
     atom   31 type  2   force =     0.00046258    0.00009067    0.02045341
     atom   32 type  2   force =    -0.00019609    0.00063120   -0.02092088
     atom   33 type  1   force =     0.00000000    0.00000000    0.00000000
     atom   34 type  2   force =     0.00059911    0.00149166    0.02101888
     atom   35 type  2   force =    -0.00002302    0.00116275   -0.02112270
     atom   36 type  3   force =     0.00000000    0.00000000    0.00000000
     The Hubbard contrib.    to forces
     atom    1 type  1   force =     0.00000000    0.00000000    0.00000000
     atom    2 type  2   force =     0.00000000    0.00000000    0.00000000
     atom    3 type  2   force =     0.00000000    0.00000000    0.00000000
     atom    4 type  1   force =     0.00000000    0.00000000    0.00000000
     atom    5 type  2   force =     0.00000000    0.00000000    0.00000000
     atom    6 type  2   force =     0.00000000    0.00000000    0.00000000
     atom    7 type  1   force =     0.00000000    0.00000000    0.00000000
     atom    8 type  2   force =     0.00000000    0.00000000    0.00000000
     atom    9 type  2   force =     0.00000000    0.00000000    0.00000000
     atom   10 type  1   force =     0.00000000    0.00000000    0.00000000
     atom   11 type  2   force =     0.00000000    0.00000000    0.00000000
     atom   12 type  2   force =     0.00000000    0.00000000    0.00000000
     atom   13 type  1   force =     0.00000000    0.00000000    0.00000000
     atom   14 type  2   force =     0.00000000    0.00000000    0.00000000
     atom   15 type  2   force =     0.00000000    0.00000000    0.00000000
     atom   16 type  1   force =     0.00000000    0.00000000    0.00000000
     atom   17 type  2   force =     0.00000000    0.00000000    0.00000000
     atom   18 type  2   force =     0.00000000    0.00000000    0.00000000
     atom   19 type  1   force =     0.00000000    0.00000000    0.00000000
     atom   20 type  2   force =     0.00000000    0.00000000    0.00000000
     atom   21 type  1   force =     0.00000000    0.00000000    0.00000000
     atom   22 type  2   force =     0.00000000    0.00000000    0.00000000
     atom   23 type  2   force =     0.00000000    0.00000000    0.00000000
     atom   24 type  1   force =     0.00000000    0.00000000    0.00000000
     atom   25 type  2   force =     0.00000000    0.00000000    0.00000000
     atom   26 type  2   force =     0.00000000    0.00000000    0.00000000
     atom   27 type  1   force =     0.00000000    0.00000000    0.00000000
     atom   28 type  2   force =     0.00000000    0.00000000    0.00000000
     atom   29 type  2   force =     0.00000000    0.00000000    0.00000000
     atom   30 type  1   force =     0.00000000    0.00000000    0.00000000
     atom   31 type  2   force =     0.00000000    0.00000000    0.00000000
     atom   32 type  2   force =     0.00000000    0.00000000    0.00000000
     atom   33 type  1   force =     0.00000000    0.00000000    0.00000000
     atom   34 type  2   force =     0.00000000    0.00000000    0.00000000
     atom   35 type  2   force =     0.00000000    0.00000000    0.00000000
     atom   36 type  3   force =     0.00000000    0.00000000    0.00000000
     The SCF correction term to forces
     atom    1 type  1   force =     0.00003076   -0.00003791   -0.00061645
     atom    2 type  2   force =    -0.00001482    0.00000458   -0.00031847
     atom    3 type  2   force =    -0.00000226   -0.00002053   -0.00012782
     atom    4 type  1   force =    -0.00002616    0.00017757   -0.00042440
     atom    5 type  2   force =    -0.00000906    0.00005749   -0.00026934
     atom    6 type  2   force =     0.00000448    0.00000818   -0.00006311
     atom    7 type  1   force =     0.00001491   -0.00004685   -0.00054686
     atom    8 type  2   force =    -0.00000851   -0.00003287   -0.00037418
     atom    9 type  2   force =    -0.00003028    0.00001817   -0.00002046
     atom   10 type  1   force =    -0.00006243   -0.00001760   -0.00068075
     atom   11 type  2   force =    -0.00002392   -0.00003275   -0.00035056
     atom   12 type  2   force =    -0.00001602    0.00000060   -0.00005833
     atom   13 type  1   force =    -0.00003390   -0.00005167   -0.00060963
     atom   14 type  2   force =     0.00001574   -0.00001861   -0.00034228
     atom   15 type  2   force =     0.00001666   -0.00005074   -0.00009514
     atom   16 type  1   force =     0.00004208    0.00013105   -0.00045346
     atom   17 type  2   force =     0.00002267    0.00007508   -0.00030694
     atom   18 type  2   force =     0.00000005    0.00000694   -0.00007167
     atom   19 type  1   force =     0.00005788   -0.00003237   -0.00050893
     atom   20 type  2   force =     0.00004745    0.00001743   -0.00002785
     atom   21 type  1   force =     0.00003374   -0.00005180   -0.00062338
     atom   22 type  2   force =     0.00002116   -0.00001557   -0.00029589
     atom   23 type  2   force =     0.00002489    0.00004001   -0.00010271
     atom   24 type  1   force =    -0.00000544   -0.00005094   -0.00067211
     atom   25 type  2   force =    -0.00000110   -0.00002132   -0.00035074
     atom   26 type  2   force =    -0.00001482   -0.00003589   -0.00010701
     atom   27 type  1   force =     0.00001480    0.00002906   -0.00042979
     atom   28 type  2   force =    -0.00001650    0.00005606   -0.00030707
     atom   29 type  2   force =    -0.00000157   -0.00000852   -0.00008820
     atom   30 type  1   force =    -0.00009896   -0.00007436   -0.00047566
     atom   31 type  2   force =     0.00000215   -0.00002629   -0.00025541
     atom   32 type  2   force =    -0.00001870   -0.00001143   -0.00009619
     atom   33 type  1   force =     0.00003895    0.00004498   -0.00062720
     atom   34 type  2   force =    -0.00000030   -0.00003546   -0.00031528
     atom   35 type  2   force =    -0.00001364    0.00003248   -0.00009162
     atom   36 type  3   force =    -0.00000724   -0.00000729   -0.00002892

     Total force =     0.150773     Total SCF correction =     0.002266

     BFGS Geometry Optimization
     Energy error            =      0.0E+00 Ry
     Gradient error          =      7.3E-02 Ry/Bohr

     number of scf cycles    =   1
     number of bfgs steps    =   0

     energy             new  =   -2205.5271076315 Ry

     new trust radius        =       0.0893253177 bohr
     new conv_thr            =       0.0000010000 Ry


ATOMIC_POSITIONS (angstrom)
Mo            6.5818195052        1.7738271905        2.8259805443
S             8.1686681471        0.8184279211        4.4349258719
S             8.1869326682        0.8170174534        1.2763139107
Mo            8.0926724903        4.4840621070        2.7064237844
S             6.4971534248        3.7162408009        4.3450077056
S             6.5563754293        3.5183109723        1.1228689595
Mo            6.4866303049        7.2220020851        2.6527121498
S             8.0712722133        6.3692204790        4.2809639889
S             8.0874805591        6.3064128119        1.0899173614
Mo            8.1547957844        9.9067075428        2.8291761015
S             6.5008583875        8.9365149146        4.3852466431
S             6.6173219144        9.0490658633        1.1426726885
Mo            3.4245118674        1.7504739461        2.7729374489
S             4.9788949665        0.8172726749        4.3568911244
S             5.0517927497        0.8479219217        1.2222612043
Mo            4.9810009992        4.5160124934        2.6320270166
S             3.4305017773        3.6719063601        4.2808957809
S             3.4361186913        3.5449037370        1.0655911044
Mo            3.4580082340        7.2091534556        2.6303252078
S             4.9851375900        6.3240062212        1.0369660439
Mo            5.0063121371        9.9033079403        2.7390893193
S             3.4685262769        8.9432619789        4.3240436095
S             3.4083869119        9.0662805735        1.1013128666
Mo            0.2919614092        1.7451675218        2.8376217596
S             1.8592483988        0.8026963474        4.4025660079
S             1.8546370026        0.8537774955        1.2071968820
Mo            1.8588717083        4.4968377984        2.6650846922
S             0.2740968633        3.6531260361        4.3352113815
S             0.2309264465        3.5267915697        1.1709974575
Mo            0.2684123498        7.2250428713        2.7020139962
S             1.9044803302        6.3123097478        4.2310117951
S             1.8577440212        6.3137232055        1.0481016607
Mo            1.8512692564        9.9387432653        2.7688374564
S             0.2980981697        9.0678027725        4.4087956836
S             0.2717167233        9.0468008170        1.1576518527
H             7.3749690805        7.2717488509        5.3366817577



     Writing config-only to output data dir ./MoS2-V-O.save/
     NEW-OLD atomic charge density approx. for the potential

     negative rho (up, down):  1.465E-04 0.000E+00

     total cpu time spent up to now is       91.7 secs

     Self-consistent Calculation

     iteration #  1     ecut=    80.00 Ry     beta= 0.70
     Davidson diagonalization with overlap
     ethr =  1.00E-06,  avg # of iterations = 10.0

     negative rho (up, down):  7.586E-05 0.000E+00

     total cpu time spent up to now is      104.5 secs

     total energy              =   -2205.54577317 Ry
     estimated scf accuracy    <       0.00275975 Ry

     iteration #  2     ecut=    80.00 Ry     beta= 0.70
     Davidson diagonalization with overlap
     ethr =  8.99E-07,  avg # of iterations =  2.0

     negative rho (up, down):  6.285E-05 0.000E+00

     total cpu time spent up to now is      122.5 secs

     total energy              =   -2205.54585606 Ry
     estimated scf accuracy    <       0.00058533 Ry

     iteration #  3     ecut=    80.00 Ry     beta= 0.70
     Davidson diagonalization with overlap
     ethr =  1.91E-07,  avg # of iterations =  2.0

     negative rho (up, down):  5.643E-05 0.000E+00

     total cpu time spent up to now is      135.6 secs

     total energy              =   -2205.54587839 Ry
     estimated scf accuracy    <       0.00017733 Ry

     iteration #  4     ecut=    80.00 Ry     beta= 0.70
     Davidson diagonalization with overlap
     ethr =  5.78E-08,  avg # of iterations =  5.0

     negative rho (up, down):  5.382E-05 0.000E+00

     total cpu time spent up to now is      146.4 secs

     total energy              =   -2205.54590382 Ry
     estimated scf accuracy    <       0.00001705 Ry

     iteration #  5     ecut=    80.00 Ry     beta= 0.70
     Davidson diagonalization with overlap
     ethr =  5.55E-09,  avg # of iterations =  9.0

     negative rho (up, down):  5.071E-05 0.000E+00

     total cpu time spent up to now is      160.1 secs

     total energy              =   -2205.54590932 Ry
     estimated scf accuracy    <       0.00000703 Ry

     iteration #  6     ecut=    80.00 Ry     beta= 0.70
     Davidson diagonalization with overlap
     ethr =  2.29E-09,  avg # of iterations =  2.0

     negative rho (up, down):  4.732E-05 0.000E+00

     total cpu time spent up to now is      173.5 secs

     total energy              =   -2205.54591035 Ry
     estimated scf accuracy    <       0.00000192 Ry

     iteration #  7     ecut=    80.00 Ry     beta= 0.70
     Davidson diagonalization with overlap
     ethr =  6.26E-10,  avg # of iterations =  5.0

     negative rho (up, down):  1.373E-04 0.000E+00

     total cpu time spent up to now is      175.7 secs

     End of self-consistent calculation

          k = 0.0000 0.0000 0.0000 (105382 PWs)   bands (ev):

   -62.8613 -62.8531 -62.8477 -62.8213 -62.8131 -62.8034 -62.7975 -62.7920
   -62.7698 -62.7607 -62.6723 -62.5948 -37.1991 -37.1314 -37.1216 -37.1108
   -37.0976 -37.0756 -37.0632 -37.0519 -37.0429 -37.0372 -37.0340 -37.0207
   -37.0093 -37.0067 -36.9965 -36.9884 -36.9816 -36.9775 -36.9695 -36.9627
   -36.9504 -36.9312 -36.9238 -36.9016 -36.8897 -36.8760 -36.8663 -36.8466
   -36.8355 -36.8335 -36.8122 -36.7820 -36.7665 -36.7392 -36.6731 -36.6398
   -16.0449 -15.4904 -15.1647 -15.0171 -14.8769 -14.8329 -14.6306 -14.4666
   -14.4252 -14.4052 -14.3727 -14.3098 -14.2893 -14.2499 -14.1510 -14.1211
   -14.0915 -14.0740 -14.0011 -13.8656 -13.8250 -13.8062 -13.7896  -8.5166
    -7.5950  -7.4399  -7.2862  -7.2109  -7.1766  -7.1677  -7.1108  -7.0313
    -6.8124  -6.7753  -6.7517  -6.6696  -6.6051  -6.5033  -6.3992  -6.3846
    -6.3267  -6.2293  -6.0966  -5.9073  -5.8766  -5.8650  -5.8157  -5.7599
    -5.7450  -5.6906  -5.6690  -5.6320  -5.6152  -5.5112  -5.4893  -5.4731
    -5.4241  -5.3772  -5.1421  -5.1148  -5.0739  -4.9935  -4.9444  -4.9054
    -4.8852  -4.8096  -4.6748  -4.5112  -4.3680  -4.2945  -4.2777  -4.2235
    -4.1988  -4.0345  -4.0049  -3.9394  -3.7852  -3.7625  -3.7105  -3.6849
    -3.6391  -3.5468  -3.5109  -3.4861  -3.4616  -3.4403  -3.4004  -3.3622
    -3.3405  -3.2161  -3.1261  -2.8575  -2.8463  -2.7621  -2.7409  -2.6987
    -2.6896  -2.6590  -2.6337  -2.5886  -2.5397  -2.2583  -1.9734  -1.9680
    -1.9271  -0.9867  -0.7274  -0.5698  -0.1665  -0.1240  -0.0860   0.0378
     0.0683   0.1504   0.2610   0.2784   0.2915   0.3442   0.3524   0.4605
     0.4949   0.5594   0.5900   0.6183   0.6389   0.6754   0.7403   0.7781
     0.8107   0.8224   0.8740   0.9160   0.9847   1.0197   1.0754   1.2749
     1.4002

     the Fermi energy is    -0.9875 ev

!    total energy              =   -2205.54591028 Ry
     estimated scf accuracy    <       0.00000084 Ry
     smearing contrib. (-TS)   =      -0.00578810 Ry
     internal energy E=F+TS    =   -2205.54012218 Ry

     The total energy is F=E-TS. E is the sum of the following terms:
     one-electron contribution =  -18044.10490576 Ry
     hartree contribution      =    9009.10935285 Ry
     xc contribution           =    -385.27230240 Ry
     ewald contribution        =    7214.72773314 Ry

     convergence has been achieved in   7 iterations

     negative rho (up, down):  1.373E-04 0.000E+00

     Forces acting on atoms (cartesian axes, Ry/au):

     atom    1 type  1   force =     0.00257970   -0.01382611   -0.00007025
     atom    2 type  2   force =    -0.00912462    0.00975155   -0.00173207
     atom    3 type  2   force =    -0.01060395    0.00827206   -0.00921564
     atom    4 type  1   force =    -0.00261773   -0.00667304   -0.00526300
     atom    5 type  2   force =    -0.00240451   -0.01099920   -0.00494342
     atom    6 type  2   force =     0.00364181    0.00541095    0.00149344
     atom    7 type  1   force =    -0.00069337    0.00569472   -0.01252518
     atom    8 type  2   force =    -0.01776488    0.03133782    0.05106297
     atom    9 type  2   force =     0.01175964    0.00118351    0.00800699
     atom   10 type  1   force =    -0.00474959    0.00688544   -0.00855010
     atom   11 type  2   force =     0.00239918   -0.00353918   -0.00757296
     atom   12 type  2   force =    -0.00327867    0.00367446   -0.00352330
     atom   13 type  1   force =     0.00389056    0.00374760   -0.00219536
     atom   14 type  2   force =     0.00470085   -0.00061545    0.00713106
     atom   15 type  2   force =    -0.00822001    0.00252589   -0.00722774
     atom   16 type  1   force =     0.00248239    0.00223402   -0.00001824
     atom   17 type  2   force =     0.00477733    0.00125664    0.00153455
     atom   18 type  2   force =    -0.00297336   -0.00377374    0.01061780
     atom   19 type  1   force =     0.00591161   -0.01007606    0.00325756
     atom   20 type  2   force =     0.00162087   -0.00576311   -0.00671532
     atom   21 type  1   force =    -0.00495075    0.00182683    0.00145482
     atom   22 type  2   force =    -0.00231912   -0.00134298   -0.00353725
     atom   23 type  2   force =    -0.00009057    0.00009185    0.00516245
     atom   24 type  1   force =    -0.00394487   -0.00299920   -0.00908103
     atom   25 type  2   force =     0.01173886    0.01475974    0.00112776
     atom   26 type  2   force =    -0.00745811   -0.00111483   -0.00499983
     atom   27 type  1   force =    -0.00390255    0.00203562    0.00859166
     atom   28 type  2   force =     0.00034242   -0.00291398   -0.00683205
     atom   29 type  2   force =     0.00066011   -0.00049034   -0.00479537
     atom   30 type  1   force =    -0.00470610    0.00695178    0.01008816
     atom   31 type  2   force =     0.00304679    0.00002924    0.01095033
     atom   32 type  2   force =    -0.00795586    0.00562844    0.00631746
     atom   33 type  1   force =     0.00542844   -0.00086344    0.00091395
     atom   34 type  2   force =     0.00210794   -0.02850480   -0.01414167
     atom   35 type  2   force =    -0.00691326    0.00673347    0.00726251
     atom   36 type  3   force =     0.03758339   -0.02653618   -0.02203370
     The non-local contrib.  to forces
     atom    1 type  1   force =     0.00094954    0.02956204   -0.01485741
     atom    2 type  2   force =    -0.00611115   -0.00248132   -0.26931224
     atom    3 type  2   force =    -0.01194482   -0.00615893    0.26610063
     atom    4 type  1   force =    -0.00259074    0.00389613   -0.01453045
     atom    5 type  2   force =     0.00316719   -0.03744292   -0.25103100
     atom    6 type  2   force =     0.00421399    0.00843213    0.26339668
     atom    7 type  1   force =    -0.02887910   -0.00885748   -0.00389735
     atom    8 type  2   force =    -0.11579290    0.20089469    0.03022002
     atom    9 type  2   force =     0.00738125   -0.00911657    0.28154507
     atom   10 type  1   force =     0.00362610    0.00089469   -0.00020862
     atom   11 type  2   force =     0.02280822   -0.00023086   -0.20192665
     atom   12 type  2   force =    -0.01294104   -0.01551405    0.25896290
     atom   13 type  1   force =     0.00073541    0.02100409   -0.00551033
     atom   14 type  2   force =     0.00876975   -0.01097975   -0.26432061
     atom   15 type  2   force =    -0.01123884   -0.00723746    0.26067159
     atom   16 type  1   force =     0.00441687    0.03447698   -0.02648068
     atom   17 type  2   force =     0.00087373   -0.02758508   -0.24770750
     atom   18 type  2   force =    -0.00325795   -0.00116342    0.27099870
     atom   19 type  1   force =     0.02222676   -0.00215673   -0.01824335
     atom   20 type  2   force =    -0.00384637   -0.02093913    0.26082158
     atom   21 type  1   force =     0.00613822    0.02916043    0.00253457
     atom   22 type  2   force =    -0.01006741   -0.00134144   -0.25765320
     atom   23 type  2   force =     0.00892563   -0.01493356    0.26511963
     atom   24 type  1   force =     0.00366580    0.01495238   -0.01154330
     atom   25 type  2   force =     0.00650550    0.00203361   -0.26140896
     atom   26 type  2   force =    -0.00016536   -0.01302748    0.26359158
     atom   27 type  1   force =     0.00001252    0.00472036    0.01074421
     atom   28 type  2   force =     0.00179490   -0.02770055   -0.27189510
     atom   29 type  2   force =     0.00294422    0.00082877    0.26449939
     atom   30 type  1   force =    -0.00195393    0.01842085    0.00245047
     atom   31 type  2   force =    -0.00734607    0.00043075   -0.25564249
     atom   32 type  2   force =    -0.00045958   -0.01182357    0.27061343
     atom   33 type  1   force =    -0.00223417    0.00989240    0.00430692
     atom   34 type  2   force =    -0.00615802   -0.03176801   -0.27577275
     atom   35 type  2   force =    -0.00180032   -0.01364489    0.26860783
     atom   36 type  3   force =     0.01594276   -0.01765737   -0.02437416
     The ionic contribution  to forces
     atom    1 type  1   force =     0.06314831    0.49837168    5.82419812
     atom    2 type  2   force =    -0.44900359    0.36675004   39.36575528
     atom    3 type  2   force =    -0.13041562    0.04228345  -36.21272496
     atom    4 type  1   force =     0.24661431    0.80838201    0.35351140
     atom    5 type  2   force =    -0.95372746    1.39615342   38.65470675
     atom    6 type  2   force =     0.22643492   -0.60549149  -37.99386567
     atom    7 type  1   force =    -2.59619036   -2.97423343    1.07885050
     atom    8 type  2   force =    -0.41132440   -1.02545788   36.64651841
     atom    9 type  2   force =     0.43380504   -0.11904738  -37.95123467
     atom   10 type  1   force =    -0.77691059   -0.00649151    5.11881844
     atom   11 type  2   force =    -0.88215293   -1.01769128   38.79518766
     atom   12 type  2   force =     0.38203010    0.77128663  -37.96167803
     atom   13 type  1   force =     0.39902079    0.95632394    2.82666107
     atom   14 type  2   force =    -0.04409978    0.03504845   38.59232571
     atom   15 type  2   force =     0.15007315    0.01626981  -36.84556526
     atom   16 type  1   force =    -0.09059026    3.66193278    0.46840197
     atom   17 type  2   force =     0.78597542    1.43170426   37.94521316
     atom   18 type  2   force =    -0.18631342   -0.60794725  -38.47769208
     atom   19 type  1   force =     2.47032418   -2.42785872    0.64012317
     atom   20 type  2   force =     0.11904325   -0.26904168  -38.60705786
     atom   21 type  1   force =    -0.06756964    0.22782002    1.08990333
     atom   22 type  2   force =     0.39869819   -1.65027936   38.42366031
     atom   23 type  2   force =    -0.13482955    0.61079033  -38.28328115
     atom   24 type  1   force =    -0.25321882    1.04900455    5.57117091
     atom   25 type  2   force =     0.55450093    0.27153979   39.25946437
     atom   26 type  2   force =    -0.23051736    0.07943891  -37.30169832
     atom   27 type  1   force =    -0.01407701    0.38085739   -1.97535435
     atom   28 type  2   force =     0.04720085    0.92246842   38.15211752
     atom   29 type  2   force =    -0.14349526   -0.36961275  -37.28625547
     atom   30 type  1   force =    -0.07790990   -1.31688453   -0.19685623
     atom   31 type  2   force =     1.24340953   -0.09282623   37.34480903
     atom   32 type  2   force =    -0.48124031   -0.04737113  -38.57199211
     atom   33 type  1   force =     0.65807709   -0.58254627    2.12407867
     atom   34 type  2   force =     0.41973339   -1.03258463   39.18951485
     atom   35 type  2   force =    -0.18881875    0.49599945  -37.79372569
     atom   36 type  3   force =    -0.48568444    0.12294018    7.99399124
     The local contribution  to forces
     atom    1 type  1   force =    -0.06143711   -0.54185242   -5.81032598
     atom    2 type  2   force =     0.44566828   -0.35438633  -39.11945112
     atom    3 type  2   force =     0.13120702   -0.02801076   35.95810242
     atom    4 type  1   force =    -0.24676898   -0.81958046   -0.34554394
     atom    5 type  2   force =     0.94857210   -1.37186027  -38.42918046
     atom    6 type  2   force =    -0.22684903    0.60347799   37.75260110
     atom    7 type  1   force =     2.62404842    2.98907783   -1.08853253
     atom    8 type  2   force =     0.50164968    0.86802566  -36.62879112
     atom    9 type  2   force =    -0.42937349    0.12886334   37.69860745
     atom   10 type  1   force =     0.76843882    0.01265037   -5.12839793
     atom   11 type  2   force =     0.86307778    1.01410112  -38.61857488
     atom   12 type  2   force =    -0.37347428   -0.75341559   37.71969279
     atom   13 type  1   force =    -0.39597883   -0.97354106   -2.82434273
     atom   14 type  2   force =     0.04061440   -0.02472811  -38.34203426
     atom   15 type  2   force =    -0.14774173   -0.00699174   36.59802395
     atom   16 type  1   force =     0.08849085   -3.69432995   -0.44290143
     atom   17 type  2   force =    -0.78218688   -1.40435351  -37.71655697
     atom   18 type  2   force =     0.18654290    0.60577524   38.23809032
     atom   19 type  1   force =    -2.48654486    2.41998384   -0.61961876
     atom   20 type  2   force =    -0.11380602    0.28350655   38.36040047
     atom   21 type  1   force =     0.05656613   -0.25504906   -1.09208308
     atom   22 type  2   force =    -0.39128696    1.65060438  -38.19047233
     atom   23 type  2   force =     0.12646925   -0.59686629   38.04395766
     atom   24 type  1   force =     0.24561341   -1.06690548   -5.56977961
     atom   25 type  2   force =    -0.54916215   -0.25845370  -39.01797260
     atom   26 type  2   force =     0.22342264   -0.06821442   37.05374211
     atom   27 type  1   force =     0.01042184   -0.38389940    1.97220430
     atom   28 type  2   force =    -0.04853170   -0.89963391  -37.90827426
     atom   29 type  2   force =     0.14152275    0.36863998   37.03741604
     atom   30 type  1   force =     0.07544011    1.30586384    0.20329366
     atom   31 type  2   force =    -1.23335559    0.09223337  -37.09916196
     atom   32 type  2   force =     0.47405742    0.06417304   38.32832474
     atom   33 type  1   force =    -0.65036671    0.57190410   -2.12859424
     atom   34 type  2   force =    -0.41205477    1.03462831  -38.94948722
     atom   35 type  2   force =     0.18374400   -0.47668058   37.55318163
     atom   36 type  3   force =     0.50732178   -0.13182265   -7.99172187
     The core correction contribution to forces
     atom    1 type  1   force =     0.00000000    0.00000000    0.00000000
     atom    2 type  2   force =     0.00019565    0.00000079    0.02073004
     atom    3 type  2   force =     0.00052972    0.00018405   -0.02083532
     atom    4 type  1   force =     0.00000000    0.00000000    0.00000000
     atom    5 type  2   force =    -0.00050257    0.00197660    0.02013701
     atom    6 type  2   force =    -0.00013443   -0.00105126   -0.02086557
     atom    7 type  1   force =     0.00000000    0.00000000    0.00000000
     atom    8 type  2   force =     0.00753849   -0.01192907    0.00299877
     atom    9 type  2   force =    -0.00015486    0.00054667   -0.02129552
     atom   10 type  1   force =     0.00000000    0.00000000    0.00000000
     atom   11 type  2   force =    -0.00137483    0.00031161    0.01724937
     atom   12 type  2   force =     0.00111251    0.00132596   -0.02069638
     atom   13 type  1   force =     0.00000000    0.00000000    0.00000000
     atom   14 type  2   force =    -0.00054033    0.00009711    0.02068590
     atom   15 type  2   force =     0.00065860    0.00047553   -0.02055172
     atom   16 type  1   force =     0.00000000    0.00000000    0.00000000
     atom   17 type  2   force =     0.00009144    0.00141864    0.02010151
     atom   18 type  2   force =     0.00004128   -0.00052980   -0.02093209
     atom   19 type  1   force =     0.00000000    0.00000000    0.00000000
     atom   20 type  2   force =     0.00026117    0.00073050   -0.02106687
     atom   21 type  1   force =     0.00000000    0.00000000    0.00000000
     atom   22 type  2   force =     0.00033816   -0.00025065    0.02045068
     atom   23 type  2   force =    -0.00064308    0.00118931   -0.02084675
     atom   24 type  1   force =     0.00000000    0.00000000    0.00000000
     atom   25 type  2   force =    -0.00000605   -0.00025747    0.02061092
     atom   26 type  2   force =    -0.00021885    0.00072448   -0.02085229
     atom   27 type  1   force =     0.00000000    0.00000000    0.00000000
     atom   28 type  2   force =    -0.00000704    0.00178060    0.02077843
     atom   29 type  2   force =    -0.00030002   -0.00049275   -0.02068081
     atom   30 type  1   force =     0.00000000    0.00000000    0.00000000
     atom   31 type  2   force =     0.00047243    0.00012198    0.02051218
     atom   32 type  2   force =    -0.00025478    0.00064010   -0.02089282
     atom   33 type  1   force =     0.00000000    0.00000000    0.00000000
     atom   34 type  2   force =     0.00064979    0.00117472    0.02112931
     atom   35 type  2   force =    -0.00008217    0.00114460   -0.02104759
     atom   36 type  3   force =     0.00000000    0.00000000    0.00000000
     The Hubbard contrib.    to forces
     atom    1 type  1   force =     0.00000000    0.00000000    0.00000000
     atom    2 type  2   force =     0.00000000    0.00000000    0.00000000
     atom    3 type  2   force =     0.00000000    0.00000000    0.00000000
     atom    4 type  1   force =     0.00000000    0.00000000    0.00000000
     atom    5 type  2   force =     0.00000000    0.00000000    0.00000000
     atom    6 type  2   force =     0.00000000    0.00000000    0.00000000
     atom    7 type  1   force =     0.00000000    0.00000000    0.00000000
     atom    8 type  2   force =     0.00000000    0.00000000    0.00000000
     atom    9 type  2   force =     0.00000000    0.00000000    0.00000000
     atom   10 type  1   force =     0.00000000    0.00000000    0.00000000
     atom   11 type  2   force =     0.00000000    0.00000000    0.00000000
     atom   12 type  2   force =     0.00000000    0.00000000    0.00000000
     atom   13 type  1   force =     0.00000000    0.00000000    0.00000000
     atom   14 type  2   force =     0.00000000    0.00000000    0.00000000
     atom   15 type  2   force =     0.00000000    0.00000000    0.00000000
     atom   16 type  1   force =     0.00000000    0.00000000    0.00000000
     atom   17 type  2   force =     0.00000000    0.00000000    0.00000000
     atom   18 type  2   force =     0.00000000    0.00000000    0.00000000
     atom   19 type  1   force =     0.00000000    0.00000000    0.00000000
     atom   20 type  2   force =     0.00000000    0.00000000    0.00000000
     atom   21 type  1   force =     0.00000000    0.00000000    0.00000000
     atom   22 type  2   force =     0.00000000    0.00000000    0.00000000
     atom   23 type  2   force =     0.00000000    0.00000000    0.00000000
     atom   24 type  1   force =     0.00000000    0.00000000    0.00000000
     atom   25 type  2   force =     0.00000000    0.00000000    0.00000000
     atom   26 type  2   force =     0.00000000    0.00000000    0.00000000
     atom   27 type  1   force =     0.00000000    0.00000000    0.00000000
     atom   28 type  2   force =     0.00000000    0.00000000    0.00000000
     atom   29 type  2   force =     0.00000000    0.00000000    0.00000000
     atom   30 type  1   force =     0.00000000    0.00000000    0.00000000
     atom   31 type  2   force =     0.00000000    0.00000000    0.00000000
     atom   32 type  2   force =     0.00000000    0.00000000    0.00000000
     atom   33 type  1   force =     0.00000000    0.00000000    0.00000000
     atom   34 type  2   force =     0.00000000    0.00000000    0.00000000
     atom   35 type  2   force =     0.00000000    0.00000000    0.00000000
     atom   36 type  3   force =     0.00000000    0.00000000    0.00000000
     The SCF correction term to forces
     atom    1 type  1   force =    -0.00008130    0.00009068    0.00090310
     atom    2 type  2   force =     0.00012594   -0.00013354    0.00053406
     atom    3 type  2   force =     0.00001949   -0.00002768    0.00012967
     atom    4 type  1   force =     0.00012742    0.00062737    0.00128808
     atom    5 type  2   force =     0.00008597    0.00017206    0.00041236
     atom    6 type  2   force =    -0.00002390    0.00004167    0.00021500
     atom    7 type  1   force =     0.00032741   -0.00029411    0.00104229
     atom    8 type  2   force =     0.00016399   -0.00019750    0.00010497
     atom    9 type  2   force =     0.00010144   -0.00006447    0.00037275
     atom   10 type  1   force =     0.00009582   -0.00017002    0.00122609
     atom   11 type  2   force =     0.00004068   -0.00003168    0.00047963
     atom   12 type  2   force =    -0.00000622   -0.00001040    0.00018350
     atom   13 type  1   force =     0.00011293   -0.00004128    0.00098472
     atom   14 type  2   force =    -0.00004345   -0.00005507    0.00046240
     atom   15 type  2   force =     0.00002854    0.00000784    0.00018179
     atom   16 type  1   force =     0.00016467    0.00015230    0.00094998
     atom   17 type  2   force =     0.00002335    0.00007042    0.00047244
     atom   18 type  2   force =     0.00001357    0.00008958    0.00014103
     atom   19 type  1   force =    -0.00009473   -0.00004636    0.00098459
     atom   20 type  2   force =    -0.00003142   -0.00002126    0.00017545
     atom   21 type  1   force =    -0.00008572   -0.00010647    0.00108808
     atom   22 type  2   force =    -0.00000136   -0.00007781    0.00046538
     atom   23 type  2   force =    -0.00001307   -0.00008985    0.00020114
     atom   24 type  1   force =    -0.00000552   -0.00005256    0.00105906
     atom   25 type  2   force =    -0.00009962   -0.00010441    0.00042211
     atom   26 type  2   force =     0.00002056   -0.00003824    0.00020518
     atom   27 type  1   force =    -0.00026017    0.00035535    0.00098558
     atom   28 type  2   force =    -0.00011484    0.00016954    0.00042944
     atom   29 type  2   force =    -0.00001183    0.00014450    0.00021357
     atom   30 type  1   force =    -0.00028264   -0.00045029    0.00118834
     atom   31 type  2   force =    -0.00013376    0.00006746    0.00042165
     atom   32 type  2   force =    -0.00005886    0.00000809    0.00025231
     atom   33 type  1   force =    -0.00004802   -0.00011557    0.00111070
     atom   34 type  2   force =    -0.00006271    0.00004290    0.00046222
     atom   35 type  2   force =     0.00004373   -0.00008704    0.00023442
     atom   36 type  3   force =     0.00000303    0.00000176    0.00005918

     Total force =     0.105527     Total SCF correction =     0.004251
     Energy error            =      1.9E-02 Ry
     Gradient error          =      5.1E-02 Ry/Bohr

     number of scf cycles    =   2
     number of bfgs steps    =   1

     energy             old  =   -2205.5271076315 Ry
     energy             new  =   -2205.5459102835 Ry

     CASE: energy            _new < energy            _old

     new trust radius        =       0.0982578494 bohr
     new conv_thr            =       0.0000000511 Ry


ATOMIC_POSITIONS (angstrom)
Mo            6.5852436033        1.7614730254        2.8264957930
S             8.1607991737        0.8268688014        4.4338914741
S             8.1785185749        0.8237878055        1.2699388245
Mo            8.0903710347        4.4770800198        2.7002635445
S             6.4949269690        3.7076005759        4.3413933673
S             6.5594719830        3.5234104786        1.1242223123
Mo            6.4853746958        7.2265642624        2.6399584219
S             8.0571999229        6.3957017188        4.3234407982
S             8.0967098810        6.3075936508        1.0965820547
Mo            8.1503067769        9.9122757090        2.8201824813
S             6.5037857301        8.9326724976        4.3808312792
S             6.6150377832        9.0515426646        1.1410430494
Mo            3.4277287105        1.7537575480        2.7706604475
S             4.9828497612        0.8169516262        4.3630585570
S             5.0449926067        0.8499643481        1.2165014095
Mo            4.9829153980        4.5181468526        2.6318093451
S             3.4342497178        3.6727978986        4.2821792891
S             3.4337509081        3.5416494753        1.0742395623
Mo            3.4628511887        7.2008740157        2.6323611447
S             4.9866493981        6.3195528181        1.0325260323
Mo            5.0016613538        9.9049068932        2.7390015082
S             3.4664331573        8.9422704156        4.3213698000
S             3.4083178215        9.0666500834        1.1059317170
Mo            0.2884027795        1.7426532983        2.8288735833
S             1.8689977598        0.8147038469        4.4043455916
S             1.8483034934        0.8528962411        1.2034135881
Mo            1.8558948688        4.4984438117        2.6718498687
S             0.2747716463        3.6509238824        4.3301950018
S             0.2312829713        3.5263625760        1.1676312830
Mo            0.2646916507        7.2315828875        2.7086565502
S             1.9070015442        6.3122114045        4.2401954641
S             1.8514870332        6.3181977519        1.0530637958
Mo            1.8564639510        9.9378462612        2.7684462807
S             0.2999946591        9.0439225573        4.3983732793
S             0.2660038447        9.0519695878        1.1641191656
H             7.4041624374        7.2510724524        5.3192771543



     Writing config-only to output data dir ./MoS2-V-O.save/
     NEW-OLD atomic charge density approx. for the potential

     negative rho (up, down):  1.494E-04 0.000E+00

     total cpu time spent up to now is      179.1 secs

     Self-consistent Calculation

     iteration #  1     ecut=    80.00 Ry     beta= 0.70
     Davidson diagonalization with overlap
     ethr =  1.00E-06,  avg # of iterations = 10.0

     negative rho (up, down):  7.542E-05 0.000E+00

     total cpu time spent up to now is      192.9 secs

     total energy              =   -2205.55937904 Ry
     estimated scf accuracy    <       0.00217593 Ry

     iteration #  2     ecut=    80.00 Ry     beta= 0.70
     Davidson diagonalization with overlap
     ethr =  7.09E-07,  avg # of iterations =  2.0

     negative rho (up, down):  5.016E-05 0.000E+00

     total cpu time spent up to now is      207.0 secs

     total energy              =   -2205.55943422 Ry
     estimated scf accuracy    <       0.00039369 Ry

     iteration #  3     ecut=    80.00 Ry     beta= 0.70
     Davidson diagonalization with overlap
     ethr =  1.28E-07,  avg # of iterations =  4.0

     negative rho (up, down):  3.755E-05 0.000E+00

     total cpu time spent up to now is      222.1 secs

     total energy              =   -2205.55946771 Ry
     estimated scf accuracy    <       0.00009304 Ry

     iteration #  4     ecut=    80.00 Ry     beta= 0.70
     Davidson diagonalization with overlap
     ethr =  3.03E-08,  avg # of iterations =  2.0

     negative rho (up, down):  3.336E-05 0.000E+00

     total cpu time spent up to now is      234.7 secs

     total energy              =   -2205.55947875 Ry
     estimated scf accuracy    <       0.00001189 Ry

     iteration #  5     ecut=    80.00 Ry     beta= 0.70
     Davidson diagonalization with overlap
     ethr =  3.87E-09,  avg # of iterations =  6.0

     negative rho (up, down):  3.419E-05 0.000E+00

     total cpu time spent up to now is      245.5 secs

     total energy              =   -2205.55948186 Ry
     estimated scf accuracy    <       0.00000394 Ry

     iteration #  6     ecut=    80.00 Ry     beta= 0.70
     Davidson diagonalization with overlap
     ethr =  1.28E-09,  avg # of iterations =  3.0

     negative rho (up, down):  3.983E-05 0.000E+00

     total cpu time spent up to now is      258.1 secs

     total energy              =   -2205.55948225 Ry
     estimated scf accuracy    <       0.00000103 Ry

     iteration #  7     ecut=    80.00 Ry     beta= 0.70
     Davidson diagonalization with overlap
     ethr =  3.34E-10,  avg # of iterations =  5.0

     negative rho (up, down):  4.981E-05 0.000E+00

     total cpu time spent up to now is      269.2 secs

     total energy              =   -2205.55948234 Ry
     estimated scf accuracy    <       0.00000033 Ry

     iteration #  8     ecut=    80.00 Ry     beta= 0.70
     Davidson diagonalization with overlap
     ethr =  1.08E-10,  avg # of iterations =  2.0

     negative rho (up, down):  8.265E-05 0.000E+00

     total cpu time spent up to now is      281.0 secs

     total energy              =   -2205.55948223 Ry
     estimated scf accuracy    <       0.00000014 Ry

     iteration #  9     ecut=    80.00 Ry     beta= 0.70
     Davidson diagonalization with overlap
     ethr =  4.40E-11,  avg # of iterations =  3.0

     negative rho (up, down):  1.378E-04 0.000E+00

     total cpu time spent up to now is      283.1 secs

     End of self-consistent calculation

          k = 0.0000 0.0000 0.0000 (105382 PWs)   bands (ev):

   -62.8518 -62.8412 -62.8390 -62.8189 -62.8040 -62.7929 -62.7841 -62.7793
   -62.7605 -62.7507 -62.6495 -62.5820 -37.1874 -37.1217 -37.1109 -37.0981
   -37.0864 -37.0638 -37.0511 -37.0385 -37.0325 -37.0280 -37.0238 -37.0094
   -37.0039 -36.9974 -36.9854 -36.9765 -36.9716 -36.9651 -36.9568 -36.9520
   -36.9412 -36.9221 -36.9129 -36.8910 -36.8778 -36.8672 -36.8560 -36.8368
   -36.8256 -36.8135 -36.7956 -36.7712 -36.7540 -36.7272 -36.6553 -36.6236
   -16.0744 -15.5672 -15.1529 -15.0106 -14.8584 -14.8306 -14.6293 -14.4554
   -14.4079 -14.3976 -14.3679 -14.2941 -14.2766 -14.2381 -14.1448 -14.1107
   -14.0834 -14.0624 -13.9907 -13.8624 -13.8138 -13.7907 -13.7857  -8.6774
    -7.5876  -7.4295  -7.2621  -7.1930  -7.1711  -7.1611  -7.0999  -7.0358
    -6.8031  -6.7566  -6.7414  -6.6557  -6.5956  -6.4876  -6.3838  -6.3723
    -6.3372  -6.2193  -6.1010  -5.9026  -5.8582  -5.8494  -5.8142  -5.7536
    -5.7327  -5.6790  -5.6569  -5.6175  -5.6030  -5.5095  -5.4753  -5.4564
    -5.4012  -5.3506  -5.1371  -5.0957  -5.0438  -4.9899  -4.9235  -4.9058
    -4.8755  -4.7995  -4.6702  -4.4933  -4.3922  -4.2810  -4.2679  -4.2138
    -4.1869  -4.0280  -3.9946  -3.9488  -3.7814  -3.7558  -3.7019  -3.6679
    -3.6253  -3.5378  -3.4952  -3.4846  -3.4545  -3.4328  -3.3917  -3.3515
    -3.3242  -3.2095  -3.1232  -2.8431  -2.8309  -2.7448  -2.7221  -2.6980
    -2.6846  -2.6447  -2.6304  -2.5694  -2.5260  -2.2350  -1.9686  -1.9526
    -1.9273  -0.9952  -0.7020  -0.5379  -0.1658  -0.1137  -0.0765   0.0609
     0.0814   0.1529   0.2704   0.3027   0.3158   0.3523   0.3640   0.4652
     0.4892   0.5741   0.5988   0.6256   0.6515   0.6969   0.7572   0.7830
     0.8307   0.8408   0.8840   0.9246   0.9989   1.0309   1.0869   1.3015
     1.4179

     the Fermi energy is    -0.9955 ev

!    total energy              =   -2205.55948213 Ry
     estimated scf accuracy    <       0.00000003 Ry
     smearing contrib. (-TS)   =      -0.00569573 Ry
     internal energy E=F+TS    =   -2205.55378640 Ry

     The total energy is F=E-TS. E is the sum of the following terms:
     one-electron contribution =  -18041.77806349 Ry
     hartree contribution      =    9008.03245706 Ry
     xc contribution           =    -385.29428287 Ry
     ewald contribution        =    7213.48610289 Ry

     convergence has been achieved in   9 iterations

     negative rho (up, down):  1.378E-04 0.000E+00

     Forces acting on atoms (cartesian axes, Ry/au):

     atom    1 type  1   force =    -0.00503948   -0.00342842   -0.00459576
     atom    2 type  2   force =    -0.00380127    0.00415645   -0.00219428
     atom    3 type  2   force =    -0.00809173    0.00528748   -0.01118201
     atom    4 type  1   force =    -0.00072641    0.00107590    0.00273533
     atom    5 type  2   force =    -0.00028361   -0.00952980   -0.00471018
     atom    6 type  2   force =     0.00201521    0.00038027    0.00046181
     atom    7 type  1   force =     0.00179452    0.00323581    0.00122569
     atom    8 type  2   force =    -0.00802694    0.00893470    0.02476835
     atom    9 type  2   force =     0.00973993    0.00012502    0.00666035
     atom   10 type  1   force =    -0.00141371    0.00546752    0.00033522
     atom   11 type  2   force =    -0.00432756    0.00535705   -0.01409154
     atom   12 type  2   force =    -0.00431857    0.00532002   -0.00745862
     atom   13 type  1   force =     0.00189207    0.00083385    0.00001278
     atom   14 type  2   force =     0.00224621   -0.00126534    0.00372370
     atom   15 type  2   force =    -0.00573500    0.00095818   -0.00516559
     atom   16 type  1   force =     0.00239993    0.00016825   -0.00018885
     atom   17 type  2   force =     0.00424322    0.00192110    0.00159997
     atom   18 type  2   force =    -0.00273204   -0.00099301    0.00779391
     atom   19 type  1   force =     0.00423396   -0.00601929    0.00355490
     atom   20 type  2   force =     0.00089747   -0.00476923   -0.00817390
     atom   21 type  1   force =    -0.00033860    0.00188753    0.00422960
     atom   22 type  2   force =    -0.00042868   -0.00189296   -0.00193374
     atom   23 type  2   force =    -0.00018604   -0.00220752    0.00301564
     atom   24 type  1   force =    -0.00200492   -0.00136139   -0.00225672
     atom   25 type  2   force =     0.00695109    0.01015950   -0.00268694
     atom   26 type  2   force =    -0.00328026   -0.00113822   -0.00376484
     atom   27 type  1   force =    -0.00343929    0.00147918    0.00559470
     atom   28 type  2   force =    -0.00242453   -0.00277353   -0.00624695
     atom   29 type  2   force =     0.00102841    0.00034102   -0.00468566
     atom   30 type  1   force =    -0.00393284    0.00004427    0.01227046
     atom   31 type  2   force =     0.00238386    0.00023344    0.00781067
     atom   32 type  2   force =    -0.00690184    0.00463301    0.00734761
     atom   33 type  1   force =    -0.00012853    0.00059626    0.00348980
     atom   34 type  2   force =     0.00061929   -0.01433618   -0.01217288
     atom   35 type  2   force =    -0.00408457    0.00541940    0.00386169
     atom   36 type  3   force =     0.03120127   -0.01830031   -0.00898373
     The non-local contrib.  to forces
     atom    1 type  1   force =     0.00176907    0.02697476   -0.01548125
     atom    2 type  2   force =    -0.00235452   -0.00672522   -0.26779712
     atom    3 type  2   force =    -0.00856348   -0.00899167    0.26292066
     atom    4 type  1   force =    -0.00258781    0.00141924   -0.01614897
     atom    5 type  2   force =     0.00301161   -0.03817040   -0.25060127
     atom    6 type  2   force =     0.00315418    0.00392079    0.26349653
     atom    7 type  1   force =    -0.03044907   -0.01008305   -0.00579398
     atom    8 type  2   force =    -0.11414860    0.20676120    0.02439542
     atom    9 type  2   force =     0.00457338   -0.01037991    0.28099664
     atom   10 type  1   force =     0.00267356    0.00111159    0.00000169
     atom   11 type  2   force =     0.01265039    0.01414630   -0.21364549
     atom   12 type  2   force =    -0.01350336   -0.01387203    0.25681739
     atom   13 type  1   force =     0.00174113    0.02286317   -0.00553040
     atom   14 type  2   force =     0.00691182   -0.01180047   -0.26567599
     atom   15 type  2   force =    -0.00911414   -0.00873517    0.26099794
     atom   16 type  1   force =     0.00542100    0.03586969   -0.02706474
     atom   17 type  2   force =     0.00006219   -0.02672251   -0.24814515
     atom   18 type  2   force =    -0.00297223    0.00078781    0.26926560
     atom   19 type  1   force =     0.02451671   -0.00261267   -0.02013162
     atom   20 type  2   force =    -0.00380278   -0.01916855    0.25934538
     atom   21 type  1   force =     0.00410116    0.02842882    0.00173032
     atom   22 type  2   force =    -0.00800905   -0.00294309   -0.25771040
     atom   23 type  2   force =     0.00905284   -0.01693251    0.26414223
     atom   24 type  1   force =     0.00239592    0.01506858   -0.01079095
     atom   25 type  2   force =     0.00315521   -0.00234072   -0.26351514
     atom   26 type  2   force =     0.00289309   -0.01264319    0.26441794
     atom   27 type  1   force =     0.00010361    0.00442408    0.00997203
     atom   28 type  2   force =     0.00133473   -0.02737098   -0.27100517
     atom   29 type  2   force =     0.00169110   -0.00021970    0.26584193
     atom   30 type  1   force =    -0.00155007    0.02018960    0.00122476
     atom   31 type  2   force =    -0.00835937    0.00024066   -0.25729401
     atom   32 type  2   force =     0.00118153   -0.01282032    0.27095354
     atom   33 type  1   force =    -0.00073914    0.00915501    0.00368252
     atom   34 type  2   force =    -0.00775266   -0.02095556   -0.27511059
     atom   35 type  2   force =     0.00061081   -0.01455899    0.26751250
     atom   36 type  3   force =     0.02088673   -0.02429091   -0.03104231
     The ionic contribution  to forces
     atom    1 type  1   force =    -0.12691033    0.72530185    5.81771403
     atom    2 type  2   force =    -0.28223706    0.28565135   39.43275941
     atom    3 type  2   force =    -0.08415347    0.03860679  -36.36284513
     atom    4 type  1   force =     0.30930730    1.22352032    0.36567151
     atom    5 type  2   force =    -0.90122658    1.44912781   38.58135253
     atom    6 type  2   force =     0.15536875   -0.63647987  -37.95882687
     atom    7 type  1   force =    -2.39708462   -3.17024174    0.48429723
     atom    8 type  2   force =    -0.37254755   -1.37344843   36.76650727
     atom    9 type  2   force =     0.48000526   -0.15195960  -37.81256001
     atom   10 type  1   force =    -0.58951863   -0.00959652    4.90507878
[...]
     atom   27 type  1   force =    -0.00055545    0.00628416    0.00520457
     atom   28 type  2   force =     0.00199423   -0.01570038   -0.26676701
     atom   29 type  2   force =    -0.00614210   -0.00995970    0.27145218
     atom   30 type  1   force =     0.00485023    0.02301633    0.00371010
     atom   31 type  2   force =    -0.01432885    0.00382652   -0.25726539
     atom   32 type  2   force =     0.00807254   -0.01699768    0.26383612
     atom   33 type  1   force =     0.00131648    0.00821645    0.00175607
     atom   34 type  2   force =     0.00003939   -0.01398041   -0.25644038
     atom   35 type  2   force =     0.00194519   -0.01236198    0.26733574
     atom   36 type  3   force =    -0.00471495   -0.02815763   -0.04964785
     The ionic contribution  to forces
     atom    1 type  1   force =    -0.12757578    0.72386292    1.80794125
     atom    2 type  2   force =    -0.17619204    0.27323871   38.77751499
     atom    3 type  2   force =     0.09227596   -0.10363284  -37.72201020
     atom    4 type  1   force =    -0.09552013    1.44008528    0.53026297
     atom    5 type  2   force =    -0.78974276    1.30583820   38.27553429
     atom    6 type  2   force =     0.08248667   -0.08341791  -38.31592346
     atom    7 type  1   force =    -2.83681226   -3.13220027    3.35552766
     atom    8 type  2   force =    -1.34348923   -1.54111488   36.97148610
     atom    9 type  2   force =     0.30534304    0.03789031  -37.21088912
     atom   10 type  1   force =    -0.30358966   -0.30729238    2.31866038
     atom   11 type  2   force =    -0.69455398   -1.02368186   38.63699691
     atom   12 type  2   force =     0.18442874    0.13723364  -38.08363060
     atom   13 type  1   force =     0.03791731    0.73926456    1.46570096
     atom   14 type  2   force =    -0.05569208    0.09456224   38.49129922
     atom   15 type  2   force =    -0.06451225   -0.17382134  -37.77127137
     atom   16 type  1   force =     0.19548832    3.89471854    0.81736103
     atom   17 type  2   force =     0.84074610    1.17222418   38.19898288
     atom   18 type  2   force =    -0.29682543   -0.10237792  -38.22039643
     atom   19 type  1   force =     2.70561192   -1.99265355    4.15049392
     atom   20 type  2   force =     0.06552842    0.01620143  -38.19757286
     atom   21 type  1   force =    -0.37644242   -0.36846497    0.86580811
     atom   22 type  2   force =     0.41545124   -1.34384074   38.52869748
     atom   23 type  2   force =    -0.23181344    0.02052275  -37.66005394
     atom   24 type  1   force =     0.12529924    0.58408086    1.89506677
     atom   25 type  2   force =     0.21640507    0.17319521   38.77789993
     atom   26 type  2   force =    -0.04469689   -0.13242741  -37.71568293
     atom   27 type  1   force =     0.04683007    0.52170493    0.62885040
     atom   28 type  2   force =    -0.09010153    0.55784845   38.03352131
     atom   29 type  2   force =     0.11486098    0.12901250  -37.69781612
     atom   30 type  1   force =     0.20948869   -1.32020381    2.82384092
     atom   31 type  2   force =     1.25084714   -0.04958458   38.35502531
     atom   32 type  2   force =    -0.31670737    0.11692105  -37.53836835
     atom   33 type  1   force =     0.66005852   -0.55042837    2.67147082
     atom   34 type  2   force =     0.27222175   -0.12124437   38.78759911
     atom   35 type  2   force =     0.06289043   -0.06035246  -37.50203951
     atom   36 type  3   force =    -0.03991238    0.46833391    8.47011218
     The local contribution  to forces
     atom    1 type  1   force =     0.12990143   -0.74699249   -1.79864563
     atom    2 type  2   force =     0.17531601   -0.26283902  -38.53403429
     atom    3 type  2   force =    -0.09119339    0.11449138   37.47610562
     atom    4 type  1   force =     0.09716306   -1.44357479   -0.51388937
     atom    5 type  2   force =     0.79022725   -1.28038325  -38.04910625
     atom    6 type  2   force =    -0.08301323    0.08739619   38.07088756
     atom    7 type  1   force =     2.86101680    3.14162803   -3.34054262
     atom    8 type  2   force =     1.29777287    1.36688281  -37.10289510
     atom    9 type  2   force =    -0.30007045   -0.02758456   36.95223394
     atom   10 type  1   force =     0.30134332    0.30074557   -2.32345435
     atom   11 type  2   force =     0.68752150    1.02632210  -38.41191336
     atom   12 type  2   force =    -0.17974552   -0.12554523   37.84042067
     atom   13 type  1   force =    -0.04226678   -0.76299388   -1.46334096
     atom   14 type  2   force =     0.05495844   -0.08198850  -38.24630138
     atom   15 type  2   force =     0.06432916    0.18140777   37.53112141
     atom   16 type  1   force =    -0.20382169   -3.93272073   -0.79222956
     atom   17 type  2   force =    -0.83535949   -1.15071218  -37.96787115
     atom   18 type  2   force =     0.29736850    0.10660955   37.97716014
     atom   19 type  1   force =    -2.73725979    1.99379307   -4.12281318
     atom   20 type  2   force =    -0.06363122   -0.00073705   37.95535928
     atom   21 type  1   force =     0.37660375    0.34024898   -0.86928114
     atom   22 type  2   force =    -0.41017671    1.35011594  -38.29058703
     atom   23 type  2   force =     0.22242412   -0.00957203   37.41574431
     atom   24 type  1   force =    -0.12634556   -0.59906305   -1.89274097
     atom   25 type  2   force =    -0.21742555   -0.16202146  -38.53632548
     atom   26 type  2   force =     0.04236735    0.14233835   37.47071980
     atom   27 type  1   force =    -0.04607531   -0.52730847   -0.63396028
     atom   28 type  2   force =     0.08856755   -0.54258207  -37.78711945
     atom   29 type  2   force =    -0.10839822   -0.11972233   37.44786591
     atom   30 type  1   force =    -0.21290321    1.29715055   -2.82872696
     atom   31 type  2   force =    -1.23687914    0.04571683  -38.11750768
     atom   32 type  2   force =     0.30944504   -0.09998067   37.29418046
     atom   33 type  1   force =    -0.66116579    0.54249884   -2.67308469
     atom   34 type  2   force =    -0.27231303    0.13433465  -38.55117603
     atom   35 type  2   force =    -0.06480926    0.07245568   37.25571122
     atom   36 type  3   force =     0.04522723   -0.44191219   -8.41959533
     The core correction contribution to forces
     atom    1 type  1   force =     0.00000000    0.00000000    0.00000000
     atom    2 type  2   force =    -0.00012263    0.00064285    0.02069581
     atom    3 type  2   force =     0.00012627    0.00048166   -0.02090958
     atom    4 type  1   force =     0.00000000    0.00000000    0.00000000
     atom    5 type  2   force =    -0.00029012    0.00112073    0.01997342
     atom    6 type  2   force =    -0.00010206   -0.00025232   -0.02096187
     atom    7 type  1   force =     0.00000000    0.00000000    0.00000000
     atom    8 type  2   force =    -0.00283516   -0.01216809   -0.00442242
     atom    9 type  2   force =     0.00041318    0.00068907   -0.02138536
     atom   10 type  1   force =     0.00000000    0.00000000    0.00000000
     atom   11 type  2   force =    -0.00036386    0.00024344    0.01977531
     atom   12 type  2   force =     0.00047180    0.00082296   -0.02080516
     atom   13 type  1   force =     0.00000000    0.00000000    0.00000000
     atom   14 type  2   force =    -0.00006364    0.00040955    0.02076477
     atom   15 type  2   force =     0.00002145    0.00035565   -0.02059524
     atom   16 type  1   force =     0.00000000    0.00000000    0.00000000
     atom   17 type  2   force =     0.00059116    0.00093144    0.02014376
     atom   18 type  2   force =    -0.00021972   -0.00017507   -0.02077380
     atom   19 type  1   force =     0.00000000    0.00000000    0.00000000
     atom   20 type  2   force =     0.00019807    0.00077706   -0.02108176
     atom   21 type  1   force =     0.00000000    0.00000000    0.00000000
     atom   22 type  2   force =     0.00015377    0.00022161    0.02040529
     atom   23 type  2   force =    -0.00073289    0.00059156   -0.02078488
     atom   24 type  1   force =     0.00000000    0.00000000    0.00000000
     atom   25 type  2   force =     0.00006217    0.00063316    0.02059820
     atom   26 type  2   force =    -0.00013635    0.00036522   -0.02084114
     atom   27 type  1   force =     0.00000000    0.00000000    0.00000000
     atom   28 type  2   force =    -0.00010979    0.00086505    0.02073198
     atom   29 type  2   force =     0.00033555    0.00031611   -0.02095775
     atom   30 type  1   force =     0.00000000    0.00000000    0.00000000
     atom   31 type  2   force =     0.00080549   -0.00002090    0.02030660
     atom   32 type  2   force =    -0.00066188    0.00096260   -0.02072156
     atom   33 type  1   force =     0.00000000    0.00000000    0.00000000
     atom   34 type  2   force =     0.00008575    0.00096840    0.02025440
     atom   35 type  2   force =    -0.00012396    0.00070570   -0.02100849
     atom   36 type  3   force =     0.00000000    0.00000000    0.00000000
     The Hubbard contrib.    to forces
     atom    1 type  1   force =     0.00000000    0.00000000    0.00000000
     atom    2 type  2   force =     0.00000000    0.00000000    0.00000000
     atom    3 type  2   force =     0.00000000    0.00000000    0.00000000
     atom    4 type  1   force =     0.00000000    0.00000000    0.00000000
     atom    5 type  2   force =     0.00000000    0.00000000    0.00000000
     atom    6 type  2   force =     0.00000000    0.00000000    0.00000000
     atom    7 type  1   force =     0.00000000    0.00000000    0.00000000
     atom    8 type  2   force =     0.00000000    0.00000000    0.00000000
     atom    9 type  2   force =     0.00000000    0.00000000    0.00000000
     atom   10 type  1   force =     0.00000000    0.00000000    0.00000000
     atom   11 type  2   force =     0.00000000    0.00000000    0.00000000
     atom   12 type  2   force =     0.00000000    0.00000000    0.00000000
     atom   13 type  1   force =     0.00000000    0.00000000    0.00000000
     atom   14 type  2   force =     0.00000000    0.00000000    0.00000000
     atom   15 type  2   force =     0.00000000    0.00000000    0.00000000
     atom   16 type  1   force =     0.00000000    0.00000000    0.00000000
     atom   17 type  2   force =     0.00000000    0.00000000    0.00000000
     atom   18 type  2   force =     0.00000000    0.00000000    0.00000000
     atom   19 type  1   force =     0.00000000    0.00000000    0.00000000
     atom   20 type  2   force =     0.00000000    0.00000000    0.00000000
     atom   21 type  1   force =     0.00000000    0.00000000    0.00000000
     atom   22 type  2   force =     0.00000000    0.00000000    0.00000000
     atom   23 type  2   force =     0.00000000    0.00000000    0.00000000
     atom   24 type  1   force =     0.00000000    0.00000000    0.00000000
     atom   25 type  2   force =     0.00000000    0.00000000    0.00000000
     atom   26 type  2   force =     0.00000000    0.00000000    0.00000000
     atom   27 type  1   force =     0.00000000    0.00000000    0.00000000
     atom   28 type  2   force =     0.00000000    0.00000000    0.00000000
     atom   29 type  2   force =     0.00000000    0.00000000    0.00000000
     atom   30 type  1   force =     0.00000000    0.00000000    0.00000000
     atom   31 type  2   force =     0.00000000    0.00000000    0.00000000
     atom   32 type  2   force =     0.00000000    0.00000000    0.00000000
     atom   33 type  1   force =     0.00000000    0.00000000    0.00000000
     atom   34 type  2   force =     0.00000000    0.00000000    0.00000000
     atom   35 type  2   force =     0.00000000    0.00000000    0.00000000
     atom   36 type  3   force =     0.00000000    0.00000000    0.00000000
     The SCF correction term to forces
     atom    1 type  1   force =     0.00004512    0.00002617    0.00000520
     atom    2 type  2   force =     0.00000794   -0.00000144    0.00001798
     atom    3 type  2   force =     0.00000205   -0.00000814   -0.00000670
     atom    4 type  1   force =     0.00001923    0.00003094    0.00008728
     atom    5 type  2   force =     0.00002638    0.00003772    0.00003070
     atom    6 type  2   force =     0.00001800    0.00000725    0.00000600
     atom    7 type  1   force =     0.00003399   -0.00000555    0.00008940
     atom    8 type  2   force =     0.00000737   -0.00001132    0.00006200
     atom    9 type  2   force =    -0.00001070   -0.00000311    0.00001892
     atom   10 type  1   force =    -0.00000660   -0.00004474    0.00002064
     atom   11 type  2   force =     0.00001533   -0.00003609    0.00002053
     atom   12 type  2   force =     0.00001019   -0.00000298    0.00001179
     atom   13 type  1   force =    -0.00001159    0.00000563    0.00002069
     atom   14 type  2   force =     0.00000389   -0.00000788    0.00002495
     atom   15 type  2   force =     0.00001042   -0.00000958   -0.00001673
     atom   16 type  1   force =     0.00002002    0.00003938    0.00005972
     atom   17 type  2   force =    -0.00000977    0.00003288    0.00003268
     atom   18 type  2   force =     0.00000296    0.00000640    0.00000685
     atom   19 type  1   force =    -0.00000530   -0.00000031    0.00009513
     atom   20 type  2   force =     0.00001270    0.00000718    0.00002327
     atom   21 type  1   force =     0.00001952   -0.00006433    0.00001336
     atom   22 type  2   force =    -0.00000932   -0.00002802    0.00002217
     atom   23 type  2   force =    -0.00000112    0.00000082    0.00001734
     atom   24 type  1   force =    -0.00003528    0.00003715    0.00002928
     atom   25 type  2   force =    -0.00001197   -0.00000449    0.00002451
     atom   26 type  2   force =    -0.00001302   -0.00001509   -0.00000349
     atom   27 type  1   force =    -0.00003583    0.00003854    0.00010388
     atom   28 type  2   force =    -0.00001495    0.00003910    0.00003184
     atom   29 type  2   force =    -0.00001899    0.00000270    0.00002014
     atom   30 type  1   force =    -0.00002301   -0.00001628    0.00012552
     atom   31 type  2   force =    -0.00001776   -0.00000048    0.00005028
     atom   32 type  2   force =    -0.00000164    0.00000411    0.00002556
     atom   33 type  1   force =    -0.00001449   -0.00005291    0.00003733
     atom   34 type  2   force =    -0.00000394   -0.00003233    0.00003493
     atom   35 type  2   force =    -0.00000816    0.00000576    0.00000872
     atom   36 type  3   force =     0.00000160   -0.00000521    0.00000117

     Total force =     0.006530     Total SCF correction =     0.000330
     Energy error            =      9.7E-05 Ry
     Gradient error          =      1.9E-03 Ry/Bohr

     bfgs converged in  25 scf cycles and  24 bfgs steps
     (criteria: energy <  1.0E-04 Ry, force <  1.0E-02 Ry/Bohr)

     End of BFGS Geometry Optimization

     Final energy             =   -2205.5925056314 Ry

     File ./MoS2-V-O.bfgs deleted, as requested
Begin final coordinates

ATOMIC_POSITIONS (angstrom)
Mo            6.5426390957        1.7560643145        2.7392261648
S             8.1144688420        0.8612150960        4.3541147512
S             8.1287236168        0.8450159716        1.1587776257
Mo            8.0794257431        4.4748565378        2.6992946743
S             6.4812302661        3.6476005207        4.3016314605
S             6.5447207662        3.5565760484        1.0921016079
Mo            6.4946176080        7.2351880743        2.6961971505
S             8.0486017853        6.3967435142        4.3618272247
S             8.1161982531        6.3307915883        1.1549036137
Mo            8.1214634154        9.9494025113        2.7630170444
S             6.4999897544        8.9988242178        4.3376748102
S             6.5676956130        9.0443042231        1.1257239206
Mo            3.4052628706        1.7624087686        2.7352257557
S             4.9687520871        0.8350430396        4.3269717807
S             4.9765289501        0.8430394141        1.1493373001
Mo            4.9662239260        4.5187159845        2.6382824525
S             3.4367789148        3.6576171874        4.2942024865
S             3.3971745517        3.5707906548        1.0936546307
Mo            3.4618278667        7.1692975263        2.7019612977
S             4.9902674789        6.3300897860        1.0689225997
Mo            4.9728369267        9.9223524756        2.7275726272
S             3.4498367610        8.9642594316        4.3307367510
S             3.3801533943        9.0191257638        1.1412838280
Mo            0.2520242941        1.7433654330        2.7532327234
S             1.8471886530        0.8608115209        4.3550352367
S             1.8270057717        0.8364734458        1.1576911685
Mo            1.8284809565        4.4954451206        2.7144589434
S             0.2316662325        3.5994797930        4.3073351249
S             0.2276927933        3.5634962352        1.1370675243
Mo            0.2498421084        7.2298942062        2.7668368697
S             1.8940231868        6.2962270171        4.3235861719
S             1.8292209993        6.3328519884        1.1402525875
Mo            1.8331198804        9.9415019985        2.7663030105
S             0.2512733985        9.0547461291        4.3673845334
S             0.2465513951        9.0415761232        1.1775039874
H             8.1640966334        7.0816880824        5.5669933798
End final coordinates



     Writing all to output data dir ./MoS2-V-O.save/
 
     init_run     :      2.48s CPU      2.67s WALL (       1 calls)
     electrons    :   2088.33s CPU   2286.91s WALL (      25 calls)
     update_pot   :     33.87s CPU     35.23s WALL (      24 calls)
     forces       :     34.74s CPU     37.30s WALL (      25 calls)

     Called by init_run:
     wfcinit      :      0.39s CPU      0.44s WALL (       1 calls)
     potinit      :      1.36s CPU      1.45s WALL (       1 calls)
     hinit0       :      0.17s CPU      0.19s WALL (       1 calls)

     Called by electrons:
     c_bands      :    267.95s CPU    271.05s WALL (     209 calls)
     sum_band     :     69.24s CPU     75.32s WALL (     209 calls)
     v_of_rho     :     88.70s CPU    101.82s WALL (     220 calls)
     newd         :     36.44s CPU     40.95s WALL (     220 calls)
     mix_rho      :   1637.39s CPU   1808.09s WALL (     209 calls)

     Called by c_bands:
     init_us_2    :      4.61s CPU      4.79s WALL (     419 calls)
     init_us_2:cp :      4.61s CPU      4.79s WALL (     419 calls)
     regterg      :    252.45s CPU    255.28s WALL (     209 calls)

     Called by *egterg:
     rdiaghg      :     20.76s CPU     20.89s WALL (    1157 calls)
     h_psi        :    144.60s CPU    145.86s WALL (    1196 calls)
     s_psi        :     19.00s CPU     19.06s WALL (    1196 calls)
     g_psi        :      0.95s CPU      0.96s WALL (     986 calls)

     Called by h_psi:
     h_psi:calbec :     20.49s CPU     20.58s WALL (    1196 calls)
     vloc_psi     :    102.90s CPU    103.94s WALL (    1196 calls)
     add_vuspsi   :     18.92s CPU     19.04s WALL (    1196 calls)

     General routines
     calbec       :     29.60s CPU     29.72s WALL (    1505 calls)
     fft          :     62.47s CPU     72.18s WALL (   14883 calls)
     ffts         :    730.34s CPU    895.37s WALL (  398743 calls)
     fftw         :     87.44s CPU     88.23s WALL (  129321 calls)
     interpolate  :      1.57s CPU      1.83s WALL (     220 calls)
 
     Parallel routines
 
     PWSCF        :  36m 4.57s CPU  39m29.32s WALL

 
   This run was terminated on:   7: 0: 0   4Nov2023            

=------------------------------------------------------------------------------=
   JOB DONE.
=------------------------------------------------------------------------------=
