
     Program PWSCF v.7.2 starts on  4Nov2023 at  8: 1:20 

     This program is part of the open-source Quantum ESPRESSO suite
     for quantum simulation of materials; please cite
         "P. Giannozzi et al., J. Phys.:Condens. Matter 21 395502 (2009);
         "P. Giannozzi et al., J. Phys.:Condens. Matter 29 465901 (2017);
         "P. Giannozzi et al., J. Chem. Phys. 152 154105 (2020);
          URL http://www.quantum-espresso.org", 
     in publications or presentations arising from this work. More details at
     http://www.quantum-espresso.org/quote

     Parallel version (MPI & OpenMP), running on      48 processor cores
     Number of MPI processes:                48
     Threads/MPI process:                     1

     MPI processes distributed on     1 nodes
     16540 MiB available memory on the printing compute node when the environment starts
 
     Waiting for input...
     Reading input from standard input
Warning: card &CELL ignored
Warning: card CELL_DYNAMICS = 'BFGS', ignored
Warning: card CELL_DOFREE = '2DXY' ignored
Warning: card / ignored

     Current dimensions of program PWSCF are:
     Max number of different atomic species (ntypx) = 10
     Max number of k-points (npk) =  40000
     Max angular momentum in pseudopotentials (lmaxx) =  4

     IMPORTANT: XC functional enforced from input :
     Exchange-correlation= RVV10
                           (   1   4  13   4  26   0   0)
     Any further DFT definition will be discarded
     Please, verify this is what you really want


     gamma-point specific algorithms are used
     signal trapping enabled: kill the code with -SIGUSR1 to stop cleanly the simulation 
 
     R & G space division:  proc/nbgrp/npool/nimage =      48
     Subspace diagonalization in iterative solution of the eigenvalue problem:
     one sub-group per band group will be used
     scalapack distributed-memory algorithm (size of sub-group:  2*  2 procs)

 
     Parallelization info
     --------------------
     sticks:   dense  smooth     PW     G-vecs:    dense   smooth      PW
     Min         243     194     47                49060    35090    4376
     Max         246     196     50                49086    35128    4410
     Sum       11735    9389   2349              2355467  1685513  210763
 
     Using Slab Decomposition
 


     bravais-lattice index     =            0
     lattice parameter (alat)  =      17.8707  a.u.
     unit-cell volume          =   17436.2743 (a.u.)^3
     number of atoms/cell      =           36
     number of atomic types    =            3
     number of electrons       =       307.00
     number of Kohn-Sham states=          185
     kinetic-energy cutoff     =      80.0000  Ry
     charge density cutoff     =     400.0000  Ry
     scf convergence threshold =      1.0E-06
     mixing beta               =       0.7000
     number of iterations used =            8  local-TF  mixing
     energy convergence thresh.=      1.0E-04
     force convergence thresh. =      1.0E-02
     Exchange-correlation= RVV10
                           (   1   4  13   4  26   0   0)
     nstep                     =          200


     celldm(1)=  17.870686  celldm(2)=   0.000000  celldm(3)=   0.000000
     celldm(4)=   0.000000  celldm(5)=   0.000000  celldm(6)=   0.000000

     crystal axes: (cart. coord. in units of alat)
               a(1) = (   1.000000   0.000000   0.000000 )  
               a(2) = (   0.000000   1.155671   0.000000 )  
               a(3) = (   0.000000   0.000000   2.643601 )  

     reciprocal axes: (cart. coord. in units 2 pi/alat)
               b(1) = (  1.000000  0.000000  0.000000 )  
               b(2) = (  0.000000  0.865298  0.000000 )  
               b(3) = (  0.000000  0.000000  0.378272 )  


     PseudoPot. # 1 for Mo read from file:
     ../pseudo/Mo_ONCV_PBE-1.0.oncvpsp.upf
     MD5 check sum: 1b5d28e075c9ccadda658a603575cd1f
     Pseudo is Norm-conserving, Zval = 14.0
     Generated using ONCVPSP code by D. R. Hamann
     Using radial grid of 1526 points,  6 beta functions with: 
                l(1) =   0
                l(2) =   0
                l(3) =   1
                l(4) =   1
                l(5) =   2
                l(6) =   2

     PseudoPot. # 2 for S  read from file:
     ../pseudo/s_pbe_v1.4.uspp.F.UPF
     MD5 check sum: 88d86576ff6df21479756cfb9bdac1df
     Pseudo is Ultrasoft + core correction, Zval =  6.0
     Generated by new atomic code, or converted to UPF format
     Using radial grid of  907 points,  6 beta functions with: 
                l(1) =   0
                l(2) =   0
                l(3) =   1
                l(4) =   1
                l(5) =   2
                l(6) =   2
     Q(r) pseudized with  8 coefficients,  rinner =    1.300   1.300   1.300
                                                       1.300   1.300

     PseudoPot. # 3 for H  read from file:
     ../pseudo/H_ONCV_PBE-1.0.oncvpsp.upf
     MD5 check sum: 1790becc920ee074925cf490c71280fe
     Pseudo is Norm-conserving, Zval =  1.0
     Generated using ONCVPSP code by D. R. Hamann
     Using radial grid of 1166 points,  2 beta functions with: 
                l(1) =   0
                l(2) =   0

     atomic species   valence    mass     pseudopotential
        Mo            14.00    95.94000     Mo( 1.00)
        S              6.00    32.06500     S ( 1.00)
        H              1.00     1.00794     H ( 1.00)

     No symmetry found



   Cartesian axes

     site n.     atom                  positions (alat units)
         1           Mo  tau(   1) = (   0.6952221   0.1890506   0.2985846  )
         2           S   tau(   2) = (   0.8646417   0.0856217   0.4689279  )
         3           S   tau(   3) = (   0.8663890   0.0857843   0.1351291  )
         4           Mo  tau(   4) = (   0.8560186   0.4753274   0.2873942  )
         5           S   tau(   5) = (   0.6873294   0.3936244   0.4596353  )
         6           S   tau(   6) = (   0.6929804   0.3713468   0.1185692  )
         7           Mo  tau(   7) = (   0.6862796   0.7633098   0.2825370  )
         8           S   tau(   8) = (   0.8545980   0.6708292   0.4486168  )
         9           S   tau(   9) = (   0.8545123   0.6666874   0.1146125  )
        10           Mo  tau(  10) = (   0.8629403   1.0471007   0.3006803  )
        11           S   tau(  11) = (   0.6868280   0.9456650   0.4634891  )
        12           S   tau(  12) = (   0.6998113   0.9568511   0.1205389  )
        13           Mo  tau(  13) = (   0.3618216   0.1847309   0.2935964  )
        14           S   tau(  14) = (   0.5260962   0.0863870   0.4600448  )
        15           S   tau(  15) = (   0.5348379   0.0894875   0.1297123  )
        16           Mo  tau(  16) = (   0.5265817   0.4772436   0.2784130  )
        17           S   tau(  17) = (   0.3624753   0.3882513   0.4525556  )
        18           S   tau(  18) = (   0.3635411   0.3752055   0.1119148  )
        19           Mo  tau(  19) = (   0.3652268   0.7630864   0.2781795  )
        20           S   tau(  20) = (   0.5269494   0.6690381   0.1096838  )
        21           Mo  tau(  21) = (   0.5300192   1.0470394   0.2900995  )
        22           S   tau(  22) = (   0.3670346   0.9457522   0.4574073  )
        23           S   tau(  23) = (   0.3604225   0.9585725   0.1159032  )
        24           Mo  tau(  24) = (   0.0313099   0.1847895   0.3013130  )
        25           S   tau(  25) = (   0.1956761   0.0838230   0.4650863  )
        26           S   tau(  26) = (   0.1967693   0.0903508   0.1278874  )
        27           Mo  tau(  27) = (   0.1967578   0.4753919   0.2813011  )
        28           S   tau(  28) = (   0.0287851   0.3864324   0.4586755  )
        29           S   tau(  29) = (   0.0244514   0.3729871   0.1239344  )
        30           Mo  tau(  30) = (   0.0286728   0.7631204   0.2856894  )
        31           S   tau(  31) = (   0.2011512   0.6675435   0.4465001  )
        32           S   tau(  32) = (   0.1969214   0.6672839   0.1104564  )
        33           Mo  tau(  33) = (   0.1950294   1.0511147   0.2932237  )
        34           S   tau(  34) = (   0.0312912   0.9612169   0.4667423  )
        35           S   tau(  35) = (   0.0292670   0.9563028   0.1216485  )
        36           H   tau(  36) = (   0.6666667   0.8988550   0.5656742  )

     number of k points=     1  Gaussian smearing, width (Ry)=  0.0100
                       cart. coord. in units 2pi/alat
        k(    1) = (   0.0000000   0.0000000   0.0000000), wk =   2.0000000

     Dense  grid:  1177734 G-vectors     FFT dimensions: ( 120, 135, 320)

     Smooth grid:   842757 G-vectors     FFT dimensions: ( 108, 120, 270)

     Estimated max dynamical RAM per process >     146.59 MB

     Estimated total dynamical RAM >       6.87 GB

     Initial potential from superposition of free atoms

     starting charge     306.9873, renormalised to     307.0000

     negative rho (up, down):  1.407E-04 0.000E+00


---------------------------------------------------------------------------------
Carrying out rVV10 run using the following parameters:
Nqs =      20    Nr_points =    1024   r_max =   100.000
b_value =  6.30000    beta =  0.00901
     q_mesh =  0.00010000  0.00030000  0.00058939  0.00100810
               0.00161396  0.00249058  0.00375900  0.00559430
               0.00824984  0.01209221  0.01765183  0.02569619
               0.03733578  0.05417739  0.07854596  0.11380545
               0.16482331  0.23864234  0.34545298  0.50000000

Gradients computed in Reciprocal space

---------------------------------------------------------------------------------


     Starting wfcs are  213 randomized atomic wfcs

     total cpu time spent up to now is        2.8 secs

     Self-consistent Calculation

     iteration #  1     ecut=    80.00 Ry     beta= 0.70
     Davidson diagonalization with overlap
     ethr =  1.00E-02,  avg # of iterations =  2.0

     Threshold (ethr) on eigenvalues was too large:
     Diagonalizing with lowered threshold

     Davidson diagonalization with overlap
     ethr =  3.86E-04,  avg # of iterations =  4.0

     negative rho (up, down):  1.880E-08 0.000E+00

     total cpu time spent up to now is       20.8 secs

     total energy              =   -2205.52325280 Ry
     estimated scf accuracy    <       1.46902862 Ry

     iteration #  2     ecut=    80.00 Ry     beta= 0.70
     Davidson diagonalization with overlap
     ethr =  4.79E-04,  avg # of iterations =  1.0

     total cpu time spent up to now is       23.0 secs

     total energy              =   -2205.34068305 Ry
     estimated scf accuracy    <       0.61151221 Ry

     iteration #  3     ecut=    80.00 Ry     beta= 0.70
     Davidson diagonalization with overlap
     ethr =  1.99E-04,  avg # of iterations =  2.0

     total cpu time spent up to now is       25.5 secs

     total energy              =   -2205.43747104 Ry
     estimated scf accuracy    <       0.07378400 Ry

     iteration #  4     ecut=    80.00 Ry     beta= 0.70
     Davidson diagonalization with overlap
     c_bands:  1 eigenvalues not converged
     ethr =  2.40E-05,  avg # of iterations = 20.0

     total cpu time spent up to now is       28.8 secs

     total energy              =   -2205.44115135 Ry
     estimated scf accuracy    <       0.03608086 Ry

     iteration #  5     ecut=    80.00 Ry     beta= 0.70
     Davidson diagonalization with overlap
     ethr =  1.18E-05,  avg # of iterations =  2.0

     total cpu time spent up to now is       31.0 secs

     total energy              =   -2205.43975468 Ry
     estimated scf accuracy    <       0.02050031 Ry

     iteration #  6     ecut=    80.00 Ry     beta= 0.70
     Davidson diagonalization with overlap
     ethr =  6.68E-06,  avg # of iterations =  2.0

     total cpu time spent up to now is       33.1 secs

     total energy              =   -2205.43922434 Ry
     estimated scf accuracy    <       0.01491362 Ry

     iteration #  7     ecut=    80.00 Ry     beta= 0.70
     Davidson diagonalization with overlap
     ethr =  4.86E-06,  avg # of iterations =  2.0

     total cpu time spent up to now is       36.2 secs

     total energy              =   -2205.43700394 Ry
     estimated scf accuracy    <       0.00973842 Ry

     iteration #  8     ecut=    80.00 Ry     beta= 0.70
     Davidson diagonalization with overlap
     c_bands:  1 eigenvalues not converged
     ethr =  3.17E-06,  avg # of iterations = 20.0

     negative rho (up, down):  6.836E-03 0.000E+00

     total cpu time spent up to now is       41.2 secs

     total energy              =   -2205.43669719 Ry
     estimated scf accuracy    <       0.00476496 Ry

     iteration #  9     ecut=    80.00 Ry     beta= 0.70
     Davidson diagonalization with overlap
     ethr =  1.55E-06,  avg # of iterations = 17.0

     negative rho (up, down):  2.410E-02 0.000E+00

     total cpu time spent up to now is       45.8 secs

     total energy              =   -2205.43625319 Ry
     estimated scf accuracy    <       0.00339834 Ry

     iteration # 10     ecut=    80.00 Ry     beta= 0.70
     Davidson diagonalization with overlap
     ethr =  1.11E-06,  avg # of iterations =  1.0

     negative rho (up, down):  3.095E-02 0.000E+00

     total cpu time spent up to now is       49.7 secs

     total energy              =   -2205.43621084 Ry
     estimated scf accuracy    <       0.00150044 Ry

     iteration # 11     ecut=    80.00 Ry     beta= 0.70
     Davidson diagonalization with overlap
     ethr =  4.89E-07,  avg # of iterations =  2.0

     negative rho (up, down):  2.151E-02 0.000E+00

     total cpu time spent up to now is       55.8 secs

     total energy              =   -2205.43623862 Ry
     estimated scf accuracy    <       0.00065681 Ry

     iteration # 12     ecut=    80.00 Ry     beta= 0.70
     Davidson diagonalization with overlap
     ethr =  2.14E-07,  avg # of iterations =  2.0

     negative rho (up, down):  5.902E-03 0.000E+00

     total cpu time spent up to now is       61.9 secs

     total energy              =   -2205.43630360 Ry
     estimated scf accuracy    <       0.00014309 Ry

     iteration # 13     ecut=    80.00 Ry     beta= 0.70
     Davidson diagonalization with overlap
     ethr =  4.66E-08,  avg # of iterations =  6.0

     negative rho (up, down):  1.893E-03 0.000E+00

     total cpu time spent up to now is       69.9 secs

     total energy              =   -2205.43633757 Ry
     estimated scf accuracy    <       0.00001811 Ry

     iteration # 14     ecut=    80.00 Ry     beta= 0.70
     Davidson diagonalization with overlap
     ethr =  5.90E-09,  avg # of iterations =  7.0

     negative rho (up, down):  8.041E-04 0.000E+00

     total cpu time spent up to now is       78.8 secs

     total energy              =   -2205.43634037 Ry
     estimated scf accuracy    <       0.00000670 Ry

     iteration # 15     ecut=    80.00 Ry     beta= 0.70
     Davidson diagonalization with overlap
     ethr =  2.18E-09,  avg # of iterations =  2.0

     negative rho (up, down):  5.396E-04 0.000E+00

     total cpu time spent up to now is       89.0 secs

     total energy              =   -2205.43634455 Ry
     estimated scf accuracy    <       0.00000330 Ry

     iteration # 16     ecut=    80.00 Ry     beta= 0.70
     Davidson diagonalization with overlap
     ethr =  1.07E-09,  avg # of iterations =  2.0

     negative rho (up, down):  3.193E-04 0.000E+00

     total cpu time spent up to now is       99.9 secs

     total energy              =   -2205.43634712 Ry
     estimated scf accuracy    <       0.00000107 Ry

     iteration # 17     ecut=    80.00 Ry     beta= 0.70
     Davidson diagonalization with overlap
     ethr =  3.48E-10,  avg # of iterations =  5.0

     negative rho (up, down):  1.372E-04 0.000E+00

     total cpu time spent up to now is      102.0 secs

     End of self-consistent calculation

          k = 0.0000 0.0000 0.0000 (105382 PWs)   bands (ev):

   -62.9206 -62.9043 -62.8090 -62.7721 -62.7545 -62.7289 -62.7191 -62.7114
   -62.7047 -62.5371 -62.5083 -62.4342 -37.2079 -37.1604 -37.1557 -37.1178
   -37.0969 -37.0736 -37.0553 -37.0189 -37.0082 -36.9885 -36.9761 -36.9599
   -36.9399 -36.9280 -36.9208 -36.9118 -36.9074 -36.9007 -36.8929 -36.8870
   -36.8816 -36.8606 -36.8587 -36.8249 -36.8017 -36.7869 -36.7779 -36.7306
   -36.7233 -36.7097 -36.6863 -36.6520 -36.6166 -36.5822 -36.4855 -36.4668
   -17.4996 -15.7976 -15.0397 -15.0135 -14.8393 -14.8181 -14.6320 -14.3809
   -14.3767 -14.3398 -14.3022 -14.2695 -14.2456 -14.1797 -14.1067 -14.0214
   -14.0159 -14.0035 -13.9210 -13.8087 -13.7653 -13.7195 -13.6870 -10.0950
    -7.6028  -7.3535  -7.3232  -7.2454  -7.1898  -7.1327  -7.1086  -7.0186
    -6.7780  -6.6852  -6.6648  -6.6563  -6.5860  -6.4259  -6.4139  -6.3987
    -6.3343  -6.1828  -6.1413  -5.8923  -5.8793  -5.8226  -5.7393  -5.7106
    -5.6744  -5.6397  -5.5792  -5.5466  -5.5272  -5.4522  -5.4378  -5.4154
    -5.3600  -5.2918  -5.1649  -5.0891  -4.9964  -4.9430  -4.8849  -4.8305
    -4.8160  -4.7651  -4.7057  -4.5382  -4.4096  -4.2649  -4.2118  -4.1182
    -4.0792  -4.0386  -3.9320  -3.8013  -3.7366  -3.6963  -3.6493  -3.5927
    -3.5590  -3.4808  -3.4668  -3.4404  -3.3902  -3.3630  -3.3400  -3.2917
    -3.2635  -3.1422  -3.0412  -2.8791  -2.8278  -2.8032  -2.6764  -2.6249
    -2.6162  -2.5689  -2.5664  -2.5251  -2.4311  -2.1518  -1.9163  -1.8904
    -1.8160  -0.6480  -0.5880  -0.2418  -0.1294  -0.0985  -0.0623   0.0284
     0.0904   0.2092   0.2350   0.2800   0.3192   0.4012   0.4906   0.5503
     0.5828   0.6371   0.6436   0.6872   0.7107   0.7708   0.7937   0.8340
     0.8534   0.8819   0.9268   0.9399   1.0418   1.0886   1.1331   1.2931
     1.4398

     the Fermi energy is    -0.6861 ev

!    total energy              =   -2205.43634662 Ry
     estimated scf accuracy    <       0.00000028 Ry
     smearing contrib. (-TS)   =      -0.00857090 Ry
     internal energy E=F+TS    =   -2205.42777572 Ry

     The total energy is F=E-TS. E is the sum of the following terms:
     one-electron contribution =  -18050.10590080 Ry
     hartree contribution      =    9012.65783676 Ry
     xc contribution           =    -385.55289078 Ry
     ewald contribution        =    7217.57317910 Ry

     convergence has been achieved in  17 iterations

     negative rho (up, down):  1.372E-04 0.000E+00

     Forces acting on atoms (cartesian axes, Ry/au):

     atom    1 type  1   force =     0.01210981   -0.02533542    0.00636955
     atom    2 type  2   force =    -0.01251799    0.02268054    0.00031022
     atom    3 type  2   force =    -0.01283742    0.00805878   -0.00411804
     atom    4 type  1   force =     0.00978355   -0.00528554    0.00057002
     atom    5 type  2   force =    -0.00119453   -0.00641271   -0.00565117
     atom    6 type  2   force =     0.00439303    0.01195300    0.00156697
     atom    7 type  1   force =     0.00311695   -0.00695074   -0.02355142
     atom    8 type  2   force =     0.00154692   -0.00704670    0.01905235
     atom    9 type  2   force =     0.01404932    0.00198800    0.00966976
     atom   10 type  1   force =     0.00991721    0.01204687   -0.01842466
     atom   11 type  2   force =     0.09329604    0.21006826   -0.51801721
     atom   12 type  2   force =    -0.00094194    0.00201345    0.00665440
     atom   13 type  1   force =     0.00518083    0.00564853   -0.00606187
     atom   14 type  2   force =     0.00587099    0.00612414    0.01081070
     atom   15 type  2   force =    -0.01192654    0.00154186   -0.00998789
     atom   16 type  1   force =    -0.00434325   -0.00067903    0.00014857
     atom   17 type  2   force =     0.00555784    0.00160797    0.00236150
     atom   18 type  2   force =    -0.00458266   -0.00569531    0.01458304
     atom   19 type  1   force =     0.00800241   -0.00705729   -0.00407638
     atom   20 type  2   force =     0.00575647   -0.00529935    0.00127127
     atom   21 type  1   force =    -0.01831301    0.00721055    0.00541032
     atom   22 type  2   force =    -0.00914635   -0.00207168   -0.00187755
     atom   23 type  2   force =     0.00242133    0.00370368    0.00770415
     atom   24 type  1   force =    -0.00853923   -0.00189215   -0.01861781
     atom   25 type  2   force =     0.01615179    0.01923135    0.00837773
     atom   26 type  2   force =    -0.01119210   -0.00011652   -0.00461646
     atom   27 type  1   force =    -0.00597626   -0.00522845    0.00810374
     atom   28 type  2   force =     0.00111525   -0.00101962   -0.00714590
     atom   29 type  2   force =     0.00249132    0.00116362   -0.00342142
     atom   30 type  1   force =    -0.00623848    0.01676779   -0.00795423
     atom   31 type  2   force =     0.00186423   -0.00110173    0.01755068
     atom   32 type  2   force =    -0.01055322    0.00434157    0.00646770
     atom   33 type  1   force =     0.01421020   -0.00682301   -0.00144986
     atom   34 type  2   force =     0.00903947   -0.04228939   -0.01461364
     atom   35 type  2   force =    -0.01158206    0.00539466    0.01510736
     atom   36 type  3   force =    -0.09598994   -0.21123997    0.50749547
     The non-local contrib.  to forces
     atom    1 type  1   force =    -0.00279058    0.04354217   -0.01130675
     atom    2 type  2   force =    -0.00939627    0.00074719   -0.26534405
     atom    3 type  2   force =    -0.01405793   -0.00857922    0.27380051
     atom    4 type  1   force =    -0.00310682    0.00655730    0.00226124
     atom    5 type  2   force =     0.00626586   -0.03426568   -0.25252959
     atom    6 type  2   force =     0.00058573    0.00844735    0.26186184
     atom    7 type  1   force =    -0.03942124   -0.01943217   -0.01064361
     atom    8 type  2   force =    -0.00486838   -0.00318463   -0.24000008
     atom    9 type  2   force =     0.00965881   -0.01154900    0.27736099
     atom   10 type  1   force =     0.01161320   -0.00086525   -0.01208955
     atom   11 type  2   force =     0.03710814    0.08200959   -0.21226807
     atom   12 type  2   force =    -0.01076605   -0.01306164    0.27018360
     atom   13 type  1   force =    -0.00297209    0.02657770   -0.00524416
     atom   14 type  2   force =     0.01060881   -0.01111783   -0.25655391
     atom   15 type  2   force =    -0.01448479   -0.00886491    0.26267700
     atom   16 type  1   force =     0.00135024    0.04600033   -0.01552013
     atom   17 type  2   force =     0.00210941   -0.03047845   -0.25102061
     atom   18 type  2   force =    -0.00535599   -0.00642631    0.27173441
     atom   19 type  1   force =     0.02754885   -0.01290319   -0.00849608
     atom   20 type  2   force =     0.00273749   -0.01948330    0.26414164
     atom   21 type  1   force =    -0.00172890    0.01622331   -0.00706434
     atom   22 type  2   force =    -0.00346620    0.00714363   -0.25495007
     atom   23 type  2   force =     0.01050450   -0.00494346    0.26899215
     atom   24 type  1   force =     0.00998491    0.02346922   -0.01148447
     atom   25 type  2   force =     0.00947535    0.00546196   -0.25843290
     atom   26 type  2   force =    -0.00295992   -0.01510062    0.26510141
     atom   27 type  1   force =     0.00239853    0.01313452    0.00871921
     atom   28 type  2   force =    -0.00445639   -0.02767123   -0.27274388
     atom   29 type  2   force =     0.00609042    0.00129317    0.26259943
     atom   30 type  1   force =     0.00509868    0.00915444    0.01017313
     atom   31 type  2   force =    -0.00888788    0.00173356   -0.24962497
     atom   32 type  2   force =    -0.00738788   -0.01142974    0.27141055
     atom   33 type  1   force =    -0.00310588    0.01031998    0.00501078
     atom   34 type  2   force =    -0.00201414   -0.03663211   -0.26984027
     atom   35 type  2   force =    -0.00650602   -0.00480416    0.27395069
     atom   36 type  3   force =     0.02352528    0.05588563   -0.11444305
     The ionic contribution  to forces
     atom    1 type  1   force =     0.40088838    0.37629222    5.63231407
     atom    2 type  2   force =    -0.57750715    0.55792238   39.25274773
     atom    3 type  2   force =    -0.14326993    0.05393211  -36.10651042
     atom    4 type  1   force =     0.16025643    0.44975840    0.61884596
     atom    5 type  2   force =    -0.96208611    1.43983953   38.74001986
     atom    6 type  2   force =     0.34742067   -0.51135156  -38.02880522
     atom    7 type  1   force =    -2.56657805   -3.12718369    1.90121549
     atom    8 type  2   force =    -0.79404407   -0.21558621   37.28145982
     atom    9 type  2   force =     0.36798815   -0.07433871  -38.04752343
     atom   10 type  1   force =    -0.80217546   -0.06521801    5.29565355
     atom   11 type  2   force =    -0.05741493   -0.42796227   36.59104485
     atom   12 type  2   force =     0.45254346    0.71337624  -37.96761354
     atom   13 type  1   force =     0.41987162    1.07119412    2.83876397
     atom   14 type  2   force =    -0.01585683    0.17734387   38.47598205
     atom   15 type  2   force =     0.14211237   -0.02245341  -36.83133779
     atom   16 type  1   force =    -0.07916434    3.80609823    0.41911028
     atom   17 type  2   force =     0.78173165    1.47166372   37.93525759
     atom   18 type  2   force =    -0.17123059   -0.65374239  -38.55845377
     atom   19 type  1   force =     2.51231128   -2.56564318    0.46215305
     atom   20 type  2   force =     0.20725259   -0.23797405  -38.52917419
     atom   21 type  1   force =    -0.21617077    0.35014390    0.68697786
     atom   22 type  2   force =     0.18107875   -1.66368063   38.33495841
     atom   23 type  2   force =    -0.12119006    0.67769744  -38.33430528
     atom   24 type  1   force =    -0.50268647    1.21316764    5.83664353
     atom   25 type  2   force =     0.64543332    0.34025869   39.26859032
     atom   26 type  2   force =    -0.29226576    0.08693829  -37.33138210
     atom   27 type  1   force =     0.01251215    0.33826921   -2.25022044
     atom   28 type  2   force =     0.07466928    0.98305880   38.21189082
     atom   29 type  2   force =    -0.25682609   -0.43505050  -37.25652677
     atom   30 type  1   force =    -0.18701966   -0.99694495   -0.16456073
     atom   31 type  2   force =     1.20413475   -0.11723379   37.31435968
     atom   32 type  2   force =    -0.48536018   -0.02708848  -38.64409407
     atom   33 type  1   force =     0.76058173   -0.76913945    1.99565219
     atom   34 type  2   force =     0.40278698   -1.39891241   39.30944319
     atom   35 type  2   force =    -0.27274704    0.48826508  -37.84860202
     atom   36 type  3   force =    -0.56998007   -1.28571621    9.49602551
     The local contribution  to forces
     atom    1 type  1   force =    -0.38588475   -0.44527237   -5.61411560
     atom    2 type  2   force =     0.57401877   -0.53625008  -39.00723996
     atom    3 type  2   force =     0.14386145   -0.03777058   35.84991994
     atom    4 type  1   force =    -0.14747779   -0.46157360   -0.62002468
     atom    5 type  2   force =     0.95527514   -1.41391362  -38.51311692
     atom    6 type  2   force =    -0.34366014    0.51572087   37.78952853
     atom    7 type  1   force =     2.60918116    3.13978612   -1.91333440
     atom    8 type  2   force =     0.79988787    0.21168689  -37.04158385
     atom    9 type  2   force =    -0.36331975    0.08719960   37.80106382
     atom   10 type  1   force =     0.80028856    0.07806572   -5.30129966
     atom   11 type  2   force =     0.11486469    0.55877006  -36.91153528
     atom   12 type  2   force =    -0.44369437   -0.69934741   37.72559440
     atom   13 type  1   force =    -0.41169528   -1.09214469   -2.83910284
     atom   14 type  2   force =     0.01185850   -0.16045521  -38.22856453
     atom   15 type  2   force =    -0.14030030    0.03225853   36.57952633
     atom   16 type  1   force =     0.07362432   -3.85264965   -0.40279303
     atom   17 type  2   force =    -0.77828298   -1.44123879  -37.70181131
     atom   18 type  2   force =     0.17179141    0.65467738   38.32240156
     atom   19 type  1   force =    -2.53168130    2.57151619   -0.45707027
     atom   20 type  2   force =    -0.20410396    0.25149559   38.28766084
     atom   21 type  1   force =     0.19987426   -0.35923822   -0.67377578
     atom   22 type  2   force =    -0.18638462    1.65519051  -38.10163187
     atom   23 type  2   force =     0.11382945   -0.66961516   38.09413114
     atom   24 type  1   force =     0.48406432   -1.23862932   -5.84333407
     atom   25 type  2   force =    -0.63868607   -0.32618330  -39.02205860
     atom   26 type  2   force =     0.28411825   -0.07286716   37.08281321
     atom   27 type  1   force =    -0.02092167   -0.35674915    2.25009212
     atom   28 type  2   force =    -0.06943052   -0.95838389  -37.96685734
     atom   29 type  2   force =     0.25374405    0.43536608   37.01125430
     atom   30 type  1   force =     0.17545997    1.00472090    0.14699903
     atom   31 type  2   force =    -1.19395014    0.11443676  -37.06712767
     atom   32 type  2   force =     0.48199817    0.04218675   38.40019929
     atom   33 type  1   force =    -0.74336959    0.75205213   -2.00161040
     atom   34 type  2   force =    -0.39247751    1.39219420  -39.07481459
     atom   35 type  2   force =     0.26746890   -0.47862224   37.61124028
     atom   36 type  3   force =     0.45047311    1.01859469   -8.87403961
     The core correction contribution to forces
     atom    1 type  1   force =     0.00000000    0.00000000    0.00000000
     atom    2 type  2   force =     0.00032034    0.00013676    0.02041384
     atom    3 type  2   force =     0.00062358    0.00041357   -0.02109467
     atom    4 type  1   force =     0.00000000    0.00000000    0.00000000
     atom    5 type  2   force =    -0.00066312    0.00195942    0.02024705
     atom    6 type  2   force =     0.00006344   -0.00088369   -0.02079120
     atom    7 type  1   force =     0.00000000    0.00000000    0.00000000
     atom    8 type  2   force =     0.00046220    0.00011199    0.01945714
     atom    9 type  2   force =    -0.00031870    0.00069315   -0.02098923
     atom   10 type  1   force =     0.00000000    0.00000000    0.00000000
     atom   11 type  2   force =    -0.00118042   -0.00268116    0.01488036
     atom   12 type  2   force =     0.00103877    0.00106879   -0.02122045
     atom   13 type  1   force =     0.00000000    0.00000000    0.00000000
     atom   14 type  2   force =    -0.00067431    0.00027783    0.02024428
     atom   15 type  2   force =     0.00077453    0.00058641   -0.02066852
     atom   16 type  1   force =     0.00000000    0.00000000    0.00000000
     atom   17 type  2   force =     0.00003573    0.00166312    0.02021611
     atom   18 type  2   force =     0.00020810   -0.00025502   -0.02089259
     atom   19 type  1   force =     0.00000000    0.00000000    0.00000000
     atom   20 type  2   force =    -0.00004283    0.00065711   -0.02111335
     atom   21 type  1   force =     0.00000000    0.00000000    0.00000000
     atom   22 type  2   force =    -0.00030949   -0.00069240    0.02007525
     atom   23 type  2   force =    -0.00073471    0.00064329   -0.02093967
     atom   24 type  1   force =     0.00000000    0.00000000    0.00000000
     atom   25 type  2   force =    -0.00008696   -0.00036250    0.02055004
     atom   26 type  2   force =    -0.00011268    0.00087310   -0.02094957
     atom   27 type  1   force =     0.00000000    0.00000000    0.00000000
     atom   28 type  2   force =     0.00030902    0.00196697    0.02082614
     atom   29 type  2   force =    -0.00053730   -0.00048261   -0.02054517
     atom   30 type  1   force =     0.00000000    0.00000000    0.00000000
     atom   31 type  2   force =     0.00056288   -0.00003638    0.02026192
     atom   32 type  2   force =     0.00014342    0.00064928   -0.02089636
     atom   33 type  1   force =     0.00000000    0.00000000    0.00000000
     atom   34 type  2   force =     0.00064009    0.00109192    0.02086526
     atom   35 type  2   force =     0.00015071    0.00062448   -0.02125411
     atom   36 type  3   force =     0.00000000    0.00000000    0.00000000
     The Hubbard contrib.    to forces
     atom    1 type  1   force =     0.00000000    0.00000000    0.00000000
     atom    2 type  2   force =     0.00000000    0.00000000    0.00000000
     atom    3 type  2   force =     0.00000000    0.00000000    0.00000000
     atom    4 type  1   force =     0.00000000    0.00000000    0.00000000
     atom    5 type  2   force =     0.00000000    0.00000000    0.00000000
     atom    6 type  2   force =     0.00000000    0.00000000    0.00000000
     atom    7 type  1   force =     0.00000000    0.00000000    0.00000000
     atom    8 type  2   force =     0.00000000    0.00000000    0.00000000
     atom    9 type  2   force =     0.00000000    0.00000000    0.00000000
     atom   10 type  1   force =     0.00000000    0.00000000    0.00000000
     atom   11 type  2   force =     0.00000000    0.00000000    0.00000000
     atom   12 type  2   force =     0.00000000    0.00000000    0.00000000
     atom   13 type  1   force =     0.00000000    0.00000000    0.00000000
     atom   14 type  2   force =     0.00000000    0.00000000    0.00000000
     atom   15 type  2   force =     0.00000000    0.00000000    0.00000000
     atom   16 type  1   force =     0.00000000    0.00000000    0.00000000
     atom   17 type  2   force =     0.00000000    0.00000000    0.00000000
     atom   18 type  2   force =     0.00000000    0.00000000    0.00000000
     atom   19 type  1   force =     0.00000000    0.00000000    0.00000000
     atom   20 type  2   force =     0.00000000    0.00000000    0.00000000
     atom   21 type  1   force =     0.00000000    0.00000000    0.00000000
     atom   22 type  2   force =     0.00000000    0.00000000    0.00000000
     atom   23 type  2   force =     0.00000000    0.00000000    0.00000000
     atom   24 type  1   force =     0.00000000    0.00000000    0.00000000
     atom   25 type  2   force =     0.00000000    0.00000000    0.00000000
     atom   26 type  2   force =     0.00000000    0.00000000    0.00000000
     atom   27 type  1   force =     0.00000000    0.00000000    0.00000000
     atom   28 type  2   force =     0.00000000    0.00000000    0.00000000
     atom   29 type  2   force =     0.00000000    0.00000000    0.00000000
     atom   30 type  1   force =     0.00000000    0.00000000    0.00000000
     atom   31 type  2   force =     0.00000000    0.00000000    0.00000000
     atom   32 type  2   force =     0.00000000    0.00000000    0.00000000
     atom   33 type  1   force =     0.00000000    0.00000000    0.00000000
     atom   34 type  2   force =     0.00000000    0.00000000    0.00000000
     atom   35 type  2   force =     0.00000000    0.00000000    0.00000000
     atom   36 type  3   force =     0.00000000    0.00000000    0.00000000
     The SCF correction term to forces
     atom    1 type  1   force =    -0.00010334    0.00009861   -0.00049046
     atom    2 type  2   force =     0.00004622    0.00012034   -0.00023562
     atom    3 type  2   force =     0.00000532    0.00005895   -0.00020170
     atom    4 type  1   force =     0.00011163   -0.00003160   -0.00048080
     atom    5 type  2   force =     0.00001360   -0.00003630   -0.00023987
     atom    6 type  2   force =    -0.00001677    0.00001606   -0.00019527
     atom    7 type  1   force =    -0.00006501   -0.00012496   -0.00075719
     atom    8 type  2   force =     0.00010921   -0.00007868   -0.00024897
     atom    9 type  2   force =     0.00004072   -0.00002099   -0.00021067
     atom   10 type  1   force =     0.00019081    0.00006045   -0.00065730
     atom   11 type  2   force =    -0.00008153   -0.00007191   -0.00010736
     atom   12 type  2   force =    -0.00006385   -0.00002649   -0.00025790
     atom   13 type  1   force =    -0.00002350    0.00001744   -0.00044713
     atom   14 type  2   force =    -0.00006527    0.00007153   -0.00026547
     atom   15 type  2   force =    -0.00002846    0.00001128   -0.00015321
     atom   16 type  1   force =    -0.00015358   -0.00013189   -0.00061684
     atom   17 type  2   force =    -0.00003607   -0.00000559   -0.00024857
     atom   18 type  2   force =     0.00000432    0.00004708   -0.00017486
     atom   19 type  1   force =    -0.00017652   -0.00003107   -0.00063136
     atom   20 type  2   force =    -0.00008690    0.00000134   -0.00021195
     atom   21 type  1   force =    -0.00028770    0.00007762   -0.00069570
     atom   22 type  2   force =    -0.00006488   -0.00003673   -0.00029757
     atom   23 type  2   force =     0.00001205   -0.00008239   -0.00014247
     atom   24 type  1   force =     0.00009791    0.00009636   -0.00041109
     atom   25 type  2   force =     0.00001605    0.00005254   -0.00023943
     atom   26 type  2   force =     0.00002793    0.00003590   -0.00016771
     atom   27 type  1   force =     0.00003463    0.00011301   -0.00045543
     atom   28 type  2   force =     0.00002375    0.00000578   -0.00022993
     atom   29 type  2   force =     0.00002014    0.00003352   -0.00017150
     atom   30 type  1   force =     0.00022244   -0.00016656   -0.00053396
     atom   31 type  2   force =     0.00000453   -0.00000584   -0.00028657
     atom   32 type  2   force =     0.00005315    0.00001981   -0.00012001
     atom   33 type  1   force =     0.00010386   -0.00005962   -0.00047072
     atom   34 type  2   force =     0.00010394   -0.00003495   -0.00023552
     atom   35 type  2   force =     0.00005130   -0.00007246   -0.00019577
     atom   36 type  3   force =    -0.00000835   -0.00000804   -0.00001568

     Total force =     0.802077     Total SCF correction =     0.002324

     BFGS Geometry Optimization
     Energy error            =      0.0E+00 Ry
     Gradient error          =      5.2E-01 Ry/Bohr

     number of scf cycles    =   1
     number of bfgs steps    =   0

     energy             new  =   -2205.4363466163 Ry

     new trust radius        =       0.5000000000 bohr
     new conv_thr            =       0.0000010000 Ry


ATOMIC_POSITIONS (angstrom)
Mo            6.5802021725        1.7759777602        2.8266168150
S             8.1708650057        0.8202930002        4.4346831887
S             8.1872396153        0.8150041847        1.2759608176
Mo            8.0997302610        4.4925892592        2.7180845210
S             6.4993515620        3.7194175567        4.3440222602
S             6.5554007938        3.5173181093        1.1220118052
Mo            6.4914369213        7.2151921568        2.6608889181
S             8.0824499442        6.3405810671        4.2513566278
S             8.0874769210        6.3056304626        1.0883775679
Mo            8.1652491450        9.9078047925        2.8348597480
S             6.5387251730        9.0410024056        4.1412563119
S             6.6175074300        9.0496512418        1.1430140764
Mo            3.4240784636        1.7495930069        2.7736410291
S             4.9779065104        0.8198004148        4.3555803376
S             5.0522655509        0.8469819624        1.2219953674
Mo            4.9777289258        4.5128609787        2.6329539109
S             3.4304364771        3.6723504058        4.2808121058
S             3.4357810525        3.5455696992        1.0651601363
Mo            3.4575978657        7.2130296678        2.6287737036
S             4.9859217462        6.3244581511        1.0378472572
Mo            5.0037140356        9.9049664774        2.7459269025
S             3.4666879152        8.9427840553        4.3247147334
S             3.4095596248        9.0667191402        1.0996651748
Mo            0.2921037337        1.7466261328        2.8407525205
S             1.8580030767        0.8016726398        4.4021207905
S             1.8555747250        0.8543715188        1.2072455433
Mo            1.8579011454        4.4932257281        2.6639808147
S             0.2727345317        3.6539227932        4.3342478581
S             0.2323943438        3.5277924890        1.1704205083
Mo            0.2682395625        7.2244745524        2.6979827958
S             1.9031086108        6.3122844652        4.2306380907
S             1.8573111800        6.3123707834        1.0475788919
Mo            1.8509810499        9.9369536639        2.7722693486
S             0.3001332014        9.0702539724        4.4070467245
S             0.2713640290        9.0460443475        1.1574540250
H             6.2596913763        8.4016329231        5.5863815914



     Writing config-only to output data dir ./MoS2-V-O.save/
     NEW-OLD atomic charge density approx. for the potential

     negative rho (up, down):  1.514E-04 0.000E+00

     total cpu time spent up to now is      105.4 secs

     Self-consistent Calculation

     iteration #  1     ecut=    80.00 Ry     beta= 0.70
     Davidson diagonalization with overlap
     ethr =  1.00E-06,  avg # of iterations = 18.0

     negative rho (up, down):  1.017E-03 0.000E+00

     total cpu time spent up to now is      125.0 secs

     total energy              =   -2205.51042238 Ry
     estimated scf accuracy    <       0.07272063 Ry

     iteration #  2     ecut=    80.00 Ry     beta= 0.70
     Davidson diagonalization with overlap
     ethr =  2.37E-05,  avg # of iterations =  2.0

     negative rho (up, down):  2.724E-03 0.000E+00

     total cpu time spent up to now is      137.4 secs

     total energy              =   -2205.51309630 Ry
     estimated scf accuracy    <       0.01015835 Ry

     iteration #  3     ecut=    80.00 Ry     beta= 0.70
     Davidson diagonalization with overlap
     ethr =  3.31E-06,  avg # of iterations =  5.0

     negative rho (up, down):  3.815E-03 0.000E+00

     total cpu time spent up to now is      162.8 secs

     total energy              =   -2205.51405445 Ry
     estimated scf accuracy    <       0.00149803 Ry

     iteration #  4     ecut=    80.00 Ry     beta= 0.70
     Davidson diagonalization with overlap
     ethr =  4.88E-07,  avg # of iterations =  3.0

     negative rho (up, down):  4.149E-03 0.000E+00

     total cpu time spent up to now is      174.6 secs

     total energy              =   -2205.51416609 Ry
     estimated scf accuracy    <       0.00033254 Ry

     iteration #  5     ecut=    80.00 Ry     beta= 0.70
     Davidson diagonalization with overlap
     ethr =  1.08E-07,  avg # of iterations =  2.0

     negative rho (up, down):  4.226E-03 0.000E+00

     total cpu time spent up to now is      185.6 secs

     total energy              =   -2205.51418498 Ry
     estimated scf accuracy    <       0.00014830 Ry

     iteration #  6     ecut=    80.00 Ry     beta= 0.70
     Davidson diagonalization with overlap
     ethr =  4.83E-08,  avg # of iterations =  4.0

     negative rho (up, down):  3.714E-03 0.000E+00

     total cpu time spent up to now is      195.6 secs

     total energy              =   -2205.51419119 Ry
     estimated scf accuracy    <       0.00003045 Ry

     iteration #  7     ecut=    80.00 Ry     beta= 0.70
     Davidson diagonalization with overlap
     ethr =  9.92E-09,  avg # of iterations =  6.0

     negative rho (up, down):  2.907E-03 0.000E+00

     total cpu time spent up to now is      205.1 secs

     total energy              =   -2205.51418984 Ry
     estimated scf accuracy    <       0.00001087 Ry

     iteration #  8     ecut=    80.00 Ry     beta= 0.70
     Davidson diagonalization with overlap
     ethr =  3.54E-09,  avg # of iterations =  2.0

     negative rho (up, down):  1.839E-03 0.000E+00

     total cpu time spent up to now is      215.5 secs

     total energy              =   -2205.51418253 Ry
     estimated scf accuracy    <       0.00000508 Ry

     iteration #  9     ecut=    80.00 Ry     beta= 0.70
     Davidson diagonalization with overlap
     ethr =  1.66E-09,  avg # of iterations =  3.0

     negative rho (up, down):  1.212E-03 0.000E+00

     total cpu time spent up to now is      225.1 secs

     total energy              =   -2205.51417896 Ry
     estimated scf accuracy    <       0.00000167 Ry

     iteration # 10     ecut=    80.00 Ry     beta= 0.70
     Davidson diagonalization with overlap
     ethr =  5.43E-10,  avg # of iterations =  2.0

     negative rho (up, down):  1.355E-04 0.000E+00

     total cpu time spent up to now is      227.0 secs

     End of self-consistent calculation

          k = 0.0000 0.0000 0.0000 (105382 PWs)   bands (ev):

   -62.8989 -62.8786 -62.8420 -62.8245 -62.8129 -62.7880 -62.7767 -62.7668
   -62.7523 -62.6106 -62.5552 -62.5207 -37.2552 -37.1858 -37.1792 -37.1251
   -37.1110 -37.0944 -37.0858 -37.0721 -37.0456 -37.0299 -37.0247 -37.0110
   -36.9898 -36.9873 -36.9720 -36.9654 -36.9643 -36.9573 -36.9492 -36.9406
   -36.9197 -36.9103 -36.9029 -36.8750 -36.8513 -36.8305 -36.8289 -36.7884
   -36.7870 -36.7745 -36.7584 -36.7083 -36.6950 -36.6615 -36.5576 -36.5476
   -16.3329 -15.6753 -15.0679 -15.0457 -14.8821 -14.8481 -14.6470 -14.4317
   -14.4122 -14.3755 -14.3507 -14.3300 -14.2996 -14.2300 -14.1455 -14.0739
   -14.0618 -14.0530 -13.9726 -13.8522 -13.7990 -13.7740 -13.7518  -8.6863
    -7.7256  -7.5207  -7.4151  -7.3330  -7.2369  -7.1887  -7.1308  -7.0709
    -6.8235  -6.7529  -6.7204  -6.6935  -6.5851  -6.5047  -6.4571  -6.3840
    -6.3451  -6.2381  -6.1986  -5.9516  -5.9124  -5.8890  -5.7994  -5.7714
    -5.7299  -5.6906  -5.6436  -5.6136  -5.5937  -5.5033  -5.4808  -5.4715
    -5.4114  -5.3451  -5.1918  -5.1250  -5.0349  -4.9985  -4.9430  -4.9089
    -4.8688  -4.7943  -4.7183  -4.5931  -4.4386  -4.3757  -4.2856  -4.1751
    -4.1334  -4.0692  -3.9810  -3.8169  -3.8103  -3.7266  -3.6963  -3.6313
    -3.6071  -3.5481  -3.5132  -3.4962  -3.4530  -3.4250  -3.3906  -3.3504
    -3.3269  -3.1844  -3.0992  -2.9327  -2.8768  -2.8575  -2.7281  -2.6887
    -2.6593  -2.6431  -2.6096  -2.5597  -2.4869  -2.2131  -1.9590  -1.9463
    -1.8652  -0.7192  -0.6278  -0.4931  -0.1858  -0.0859  -0.0565  -0.0108
     0.0816   0.1671   0.2003   0.2768   0.2883   0.3612   0.4443   0.5132
     0.5377   0.5715   0.6216   0.6448   0.6863   0.7093   0.7642   0.7669
     0.8354   0.8639   0.8879   0.9611   0.9945   1.0283   1.0752   1.1955
     1.4298

     the Fermi energy is    -0.7467 ev

!    total energy              =   -2205.51417606 Ry
     estimated scf accuracy    <       0.00000070 Ry
     smearing contrib. (-TS)   =      -0.00822082 Ry
     internal energy E=F+TS    =   -2205.50595524 Ry

     The total energy is F=E-TS. E is the sum of the following terms:
     one-electron contribution =  -18076.30836422 Ry
     hartree contribution      =    9025.26440964 Ry
     xc contribution           =    -385.42502492 Ry
     ewald contribution        =    7230.96302427 Ry

     convergence has been achieved in  10 iterations

     negative rho (up, down):  1.355E-04 0.000E+00

     Forces acting on atoms (cartesian axes, Ry/au):

     atom    1 type  1   force =     0.00278052   -0.01281868   -0.00117965
     atom    2 type  2   force =    -0.00732336    0.01874119    0.00258411
     atom    3 type  2   force =    -0.01048737    0.01123075   -0.01027001
     atom    4 type  1   force =     0.00520146   -0.00070469    0.00101343
     atom    5 type  2   force =     0.00010134   -0.00696171   -0.00609735
     atom    6 type  2   force =     0.00391138    0.00649709    0.00287577
     atom    7 type  1   force =     0.01283425   -0.01139937   -0.03312523
     atom    8 type  2   force =    -0.00428379   -0.00026960    0.01795620
     atom    9 type  2   force =     0.01474391    0.00115999    0.00466938
     atom   10 type  1   force =     0.04628918    0.03617110   -0.04932724
     atom   11 type  2   force =    -0.03627066   -0.10543044    0.16848338
     atom   12 type  2   force =    -0.00154951    0.00220299   -0.01523809
     atom   13 type  1   force =     0.00408138    0.00416807   -0.00446630
     atom   14 type  2   force =     0.00504150    0.00436128    0.01256296
     atom   15 type  2   force =    -0.00838691    0.00528820   -0.00777308
     atom   16 type  1   force =    -0.00170919    0.00329845    0.00185406
     atom   17 type  2   force =     0.00424218    0.00063380    0.00335055
     atom   18 type  2   force =    -0.00398099   -0.00418151    0.01065383
     atom   19 type  1   force =     0.00326408   -0.00997909    0.00200247
     atom   20 type  2   force =     0.00116053   -0.00664671   -0.00427897
     atom   21 type  1   force =    -0.04618314    0.03135295   -0.04055878
     atom   22 type  2   force =     0.00144836   -0.00465574    0.00245284
     atom   23 type  2   force =    -0.00036371   -0.00066330    0.00487663
     atom   24 type  1   force =    -0.00574591   -0.00095702   -0.01167331
     atom   25 type  2   force =     0.01208709    0.01576629    0.00325473
     atom   26 type  2   force =    -0.00743158   -0.00140256   -0.00363661
     atom   27 type  1   force =    -0.00339138   -0.00121723    0.00749846
     atom   28 type  2   force =     0.00105999   -0.00269861   -0.00473667
     atom   29 type  2   force =     0.00231296    0.00122989   -0.00471690
     atom   30 type  1   force =    -0.00336814    0.00123982    0.00009241
     atom   31 type  2   force =     0.00070041   -0.00006304    0.01141858
     atom   32 type  2   force =    -0.00894861    0.00447290    0.00578516
     atom   33 type  1   force =     0.00575144   -0.00004353   -0.00232593
     atom   34 type  2   force =     0.00667135   -0.03375981   -0.01106109
     atom   35 type  2   force =    -0.00336131    0.00541288    0.00609119
     atom   36 type  3   force =     0.01910225    0.05062500   -0.05901093
     The non-local contrib.  to forces
     atom    1 type  1   force =    -0.00057275    0.03987054   -0.01313429
     atom    2 type  2   force =    -0.00404725   -0.00449747   -0.26623806
     atom    3 type  2   force =    -0.01361039   -0.00643539    0.26809683
     atom    4 type  1   force =    -0.00231516    0.00699596    0.00119701
     atom    5 type  2   force =     0.00717326   -0.03613389   -0.25355686
     atom    6 type  2   force =    -0.00074600    0.00510215    0.26513723
     atom    7 type  1   force =    -0.03392739   -0.01445030   -0.00080722
     atom    8 type  2   force =    -0.00313141    0.00340837   -0.24600428
     atom    9 type  2   force =     0.00801097   -0.00971482    0.27672247
     atom   10 type  1   force =     0.00306842   -0.00672782   -0.00799281
     atom   11 type  2   force =    -0.05048663   -0.13792914    0.31699140
     atom   12 type  2   force =    -0.01027105   -0.01547330    0.26183545
     atom   13 type  1   force =    -0.00225745    0.02606931   -0.00418690
     atom   14 type  2   force =     0.00912463   -0.01635918   -0.26068770
     atom   15 type  2   force =    -0.01056521   -0.00582802    0.26214900
     atom   16 type  1   force =     0.00357393    0.04135401   -0.01950720
     atom   17 type  2   force =     0.00080254   -0.03061117   -0.25032407
     atom   18 type  2   force =    -0.00523046   -0.00464166    0.26989070
     atom   19 type  1   force =     0.02660842   -0.00826320   -0.01209212
     atom   20 type  2   force =    -0.00078047   -0.01922624    0.26086330
     atom   21 type  1   force =     0.00327808    0.01801418    0.00169530
     atom   22 type  2   force =     0.00191352    0.00444196   -0.24765159
     atom   23 type  2   force =     0.00713809   -0.01275469    0.26296549
     atom   24 type  1   force =     0.00866399    0.02373777   -0.01035596
     atom   25 type  2   force =     0.00646921    0.00189646   -0.26307426
     atom   26 type  2   force =    -0.00034232   -0.01397494    0.26615261
     atom   27 type  1   force =    -0.00016826    0.01160169    0.00831634
     atom   28 type  2   force =    -0.00336343   -0.02712802   -0.27238358
     atom   29 type  2   force =     0.00566185    0.00001451    0.26262993
     atom   30 type  1   force =     0.00198836    0.01433600    0.00930340
     atom   31 type  2   force =    -0.01041431    0.00159704   -0.25511023
     atom   32 type  2   force =    -0.00548814   -0.01190141    0.27200778
     atom   33 type  1   force =     0.00050957    0.00682663   -0.00133337
     atom   34 type  2   force =    -0.00400431   -0.02854633   -0.26938456
     atom   35 type  2   force =    -0.00094729   -0.00882054    0.26685257
     atom   36 type  3   force =     0.00633894    0.01507720   -0.02893294
     The ionic contribution  to forces
     atom    1 type  1   force =     0.15750269    0.87981870    5.78950204
     atom    2 type  2   force =    -0.39982147    0.51260132   39.50224446
     atom    3 type  2   force =    -0.10570445    0.13853868  -36.26043057
     atom    4 type  1   force =     0.01639530    0.56990373    0.83233058
     atom    5 type  2   force =    -0.97282488    1.51310848   38.72252495
     atom    6 type  2   force =     0.30703619   -0.52306125  -37.93334470
     atom    7 type  1   force =    -2.65921441   -3.90351011    1.88027643
     atom    8 type  2   force =    -0.94206760   -0.10390968   37.50435867
     atom    9 type  2   force =     0.38635379   -0.18272710  -38.00547899
     atom   10 type  1   force =     0.49015516    0.37323218    4.76129641
     atom   11 type  2   force =    -0.42494997   -1.57071925   36.25386032
     atom   12 type  2   force =     0.37725548    0.68683028  -38.17857009
     atom   13 type  1   force =     0.33198019    1.08834887    2.85003940
     atom   14 type  2   force =    -0.11268532    0.20270925   38.71689285
     atom   15 type  2   force =     0.12863889    0.07267577  -36.91580253
     atom   16 type  1   force =     0.02372811    3.81125586    0.58748073
     atom   17 type  2   force =     0.78768510    1.49594425   38.01137398
     atom   18 type  2   force =    -0.17269252   -0.59023935  -38.49584524
     atom   19 type  1   force =     2.43860313   -2.69769083    0.62937724
     atom   20 type  2   force =     0.14065463   -0.30809224  -38.54479603
     atom   21 type  1   force =    -1.29755835    0.58118273    0.70212402
     atom   22 type  2   force =     0.32089229   -1.76567079   38.55211523
     atom   23 type  2   force =    -0.16524559    0.60840489  -38.34689651
     atom   24 type  1   force =    -0.24656275    1.17809164    5.66480813
     atom   25 type  2   force =     0.55936419    0.30439766   39.32205354
     atom   26 type  2   force =    -0.25091055    0.08441721  -37.30860065
     atom   27 type  1   force =     0.07132457    0.50995383   -1.93915453
     atom   28 type  2   force =     0.07778793    0.96023928   38.26975993
     atom   29 type  2   force =    -0.22812214   -0.37723139  -37.29718411
     atom   30 type  1   force =    -0.02818121   -1.35045997   -0.07980691
     atom   31 type  2   force =     1.20566829   -0.09285708   37.40109137
     atom   32 type  2   force =    -0.44503909   -0.07243985  -38.55661390
     atom   33 type  1   force =     0.68097176   -0.59878250    2.25984046
     atom   34 type  2   force =     0.36202983   -1.31679180   39.43246972
     atom   35 type  2   force =    -0.13526022    0.48837120  -37.85683932
     atom   36 type  3   force =    -0.27718701   -0.60584262    8.07354359
     The local contribution  to forces
     atom    1 type  1   force =    -0.15374622   -0.93293409   -5.77742285
     atom    2 type  2   force =     0.39636806   -0.48954149  -39.25382890
     atom    3 type  2   force =     0.10826081   -0.12110730   36.00294182
     atom    4 type  1   force =    -0.00833085   -0.57796180   -0.83234871
     atom    5 type  2   force =     0.96662359   -1.48616961  -38.49496378
     atom    6 type  2   force =    -0.30234217    0.52505097   37.69168210
     atom    7 type  1   force =     2.70640953    3.90697378   -1.91238746
     atom    8 type  2   force =     0.94068845    0.10032524  -37.25986743
     atom    9 type  2   force =    -0.37930277    0.19306280   37.75424800
     atom   10 type  1   force =    -0.44720036   -0.33018230   -4.80249471
     atom   11 type  2   force =     0.43623563    1.59575514  -36.39296478
     atom   12 type  2   force =    -0.36937046   -0.67033001   37.92202164
     atom   13 type  1   force =    -0.32587611   -1.11034377   -2.85016705
     atom   14 type  2   force =     0.10928845   -0.18248928  -38.46389915
     atom   15 type  2   force =    -0.12704931   -0.06194527   36.66639587
     atom   16 type  1   force =    -0.02908677   -3.84971704   -0.56605272
     atom   17 type  2   force =    -0.78450184   -1.46654711  -37.77754422
     atom   18 type  2   force =     0.17363559    0.59082568   38.25722500
     atom   19 type  1   force =    -2.46213842    2.69621976   -0.61523059
     atom   20 type  2   force =    -0.13878660    0.32011634   38.30035017
     atom   21 type  1   force =     1.24844363   -0.56758503   -0.74395826
     atom   22 type  2   force =    -0.32093780    1.75731623  -38.32169248
     atom   23 type  2   force =     0.15821502   -0.59723414   38.10938435
     atom   24 type  1   force =     0.23201410   -1.20262964   -5.66613254
     atom   25 type  2   force =    -0.55375540   -0.29021679  -39.07617025
     atom   26 type  2   force =     0.24396455   -0.07259373   37.05969100
     atom   27 type  1   force =    -0.07501911   -0.52328779    1.93853345
     atom   28 type  2   force =    -0.07361453   -0.93776580  -38.02275982
     atom   29 type  2   force =     0.22525124    0.37872787   37.05034154
     atom   30 type  1   force =     0.02260624    1.33756701    0.07060884
     atom   31 type  2   force =    -1.19525204    0.09111407  -37.15469110
     atom   32 type  2   force =     0.44141457    0.08817376   38.31107699
     atom   33 type  1   force =    -0.67586802    0.59214241   -2.26083659
     atom   34 type  2   force =    -0.35200410    1.31083972  -39.19490432
     atom   35 type  2   force =     0.13289087   -0.47493266   37.61699526
     atom   36 type  3   force =     0.28995696    0.64138577   -8.10357295
     The core correction contribution to forces
     atom    1 type  1   force =     0.00000000    0.00000000    0.00000000
     atom    2 type  2   force =     0.00016356    0.00028875    0.02053873
     atom    3 type  2   force =     0.00059411    0.00028360   -0.02093271
     atom    4 type  1   force =     0.00000000    0.00000000    0.00000000
     atom    5 type  2   force =    -0.00070677    0.00206367    0.02027680
     atom    6 type  2   force =     0.00012938   -0.00075845   -0.02088058
     atom    7 type  1   force =     0.00000000    0.00000000    0.00000000
     atom    8 type  2   force =     0.00031455   -0.00010364    0.01974579
     atom    9 type  2   force =    -0.00021660    0.00055233   -0.02102525
     atom   10 type  1   force =     0.00000000    0.00000000    0.00000000
     atom   11 type  2   force =     0.00301648    0.00758438   -0.00938897
     atom   12 type  2   force =     0.00095614    0.00125411   -0.02067914
     atom   13 type  1   force =     0.00000000    0.00000000    0.00000000
     atom   14 type  2   force =    -0.00066696    0.00053508    0.02047696
     atom   15 type  2   force =     0.00062482    0.00043186   -0.02064506
     atom   16 type  1   force =     0.00000000    0.00000000    0.00000000
     atom   17 type  2   force =     0.00009093    0.00165308    0.02021595
     atom   18 type  2   force =     0.00016961   -0.00030681   -0.02087299
     atom   19 type  1   force =     0.00000000    0.00000000    0.00000000
     atom   20 type  2   force =     0.00011525    0.00063994   -0.02102556
     atom   21 type  1   force =     0.00000000    0.00000000    0.00000000
     atom   22 type  2   force =    -0.00047858   -0.00063416    0.01991396
     atom   23 type  2   force =    -0.00056362    0.00100119   -0.02074022
     atom   24 type  1   force =     0.00000000    0.00000000    0.00000000
     atom   25 type  2   force =     0.00000647   -0.00021274    0.02069811
     atom   26 type  2   force =    -0.00021935    0.00078694   -0.02097141
     atom   27 type  1   force =     0.00000000    0.00000000    0.00000000
     atom   28 type  2   force =     0.00025383    0.00188121    0.02087446
     atom   29 type  2   force =    -0.00049709   -0.00039335   -0.02058555
     atom   30 type  1   force =     0.00000000    0.00000000    0.00000000
     atom   31 type  2   force =     0.00059236    0.00002492    0.02043941
     atom   32 type  2   force =     0.00004113    0.00063621   -0.02090998
     atom   33 type  1   force =     0.00000000    0.00000000    0.00000000
     atom   34 type  2   force =     0.00067787    0.00075737    0.02090871
     atom   35 type  2   force =    -0.00007462    0.00084702   -0.02102193
     atom   36 type  3   force =     0.00000000    0.00000000    0.00000000
     The Hubbard contrib.    to forces
     atom    1 type  1   force =     0.00000000    0.00000000    0.00000000
     atom    2 type  2   force =     0.00000000    0.00000000    0.00000000
     atom    3 type  2   force =     0.00000000    0.00000000    0.00000000
     atom    4 type  1   force =     0.00000000    0.00000000    0.00000000
     atom    5 type  2   force =     0.00000000    0.00000000    0.00000000
     atom    6 type  2   force =     0.00000000    0.00000000    0.00000000
     atom    7 type  1   force =     0.00000000    0.00000000    0.00000000
     atom    8 type  2   force =     0.00000000    0.00000000    0.00000000
     atom    9 type  2   force =     0.00000000    0.00000000    0.00000000
     atom   10 type  1   force =     0.00000000    0.00000000    0.00000000
     atom   11 type  2   force =     0.00000000    0.00000000    0.00000000
     atom   12 type  2   force =     0.00000000    0.00000000    0.00000000
     atom   13 type  1   force =     0.00000000    0.00000000    0.00000000
     atom   14 type  2   force =     0.00000000    0.00000000    0.00000000
     atom   15 type  2   force =     0.00000000    0.00000000    0.00000000
     atom   16 type  1   force =     0.00000000    0.00000000    0.00000000
     atom   17 type  2   force =     0.00000000    0.00000000    0.00000000
     atom   18 type  2   force =     0.00000000    0.00000000    0.00000000
     atom   19 type  1   force =     0.00000000    0.00000000    0.00000000
     atom   20 type  2   force =     0.00000000    0.00000000    0.00000000
     atom   21 type  1   force =     0.00000000    0.00000000    0.00000000
     atom   22 type  2   force =     0.00000000    0.00000000    0.00000000
     atom   23 type  2   force =     0.00000000    0.00000000    0.00000000
     atom   24 type  1   force =     0.00000000    0.00000000    0.00000000
     atom   25 type  2   force =     0.00000000    0.00000000    0.00000000
     atom   26 type  2   force =     0.00000000    0.00000000    0.00000000
     atom   27 type  1   force =     0.00000000    0.00000000    0.00000000
     atom   28 type  2   force =     0.00000000    0.00000000    0.00000000
     atom   29 type  2   force =     0.00000000    0.00000000    0.00000000
     atom   30 type  1   force =     0.00000000    0.00000000    0.00000000
     atom   31 type  2   force =     0.00000000    0.00000000    0.00000000
     atom   32 type  2   force =     0.00000000    0.00000000    0.00000000
     atom   33 type  1   force =     0.00000000    0.00000000    0.00000000
     atom   34 type  2   force =     0.00000000    0.00000000    0.00000000
     atom   35 type  2   force =     0.00000000    0.00000000    0.00000000
     atom   36 type  3   force =     0.00000000    0.00000000    0.00000000
     The SCF correction term to forces
     atom    1 type  1   force =    -0.00040142    0.00042351   -0.00010614
     atom    2 type  2   force =     0.00001551   -0.00011258   -0.00011370
     atom    3 type  2   force =    -0.00002569   -0.00005151    0.00007302
     atom    4 type  1   force =    -0.00054606    0.00035475   -0.00014706
     atom    5 type  2   force =    -0.00016210    0.00016698   -0.00036005
     atom    6 type  2   force =    -0.00016426    0.00016101    0.00030013
     atom    7 type  1   force =    -0.00043171   -0.00041541   -0.00018856
     atom    8 type  2   force =    -0.00008601    0.00000744   -0.00025815
     atom    9 type  2   force =    -0.00009971   -0.00001589    0.00022155
     atom   10 type  1   force =     0.00026773   -0.00015363   -0.00011773
     atom   11 type  2   force =    -0.00008440   -0.00012425    0.00000381
     atom   12 type  2   force =    -0.00011784   -0.00008076    0.00017246
     atom   13 type  1   force =     0.00023652    0.00009100   -0.00013335
     atom   14 type  2   force =    -0.00001755   -0.00003727   -0.00020159
     atom   15 type  2   force =    -0.00003432   -0.00004880    0.00014804
     atom   16 type  1   force =     0.00007731    0.00040295   -0.00004834
     atom   17 type  2   force =     0.00016722    0.00019210   -0.00035269
     atom   18 type  2   force =     0.00013856    0.00017797    0.00027476
     atom   19 type  1   force =     0.00019271   -0.00024748   -0.00003365
     atom   20 type  2   force =    -0.00004052   -0.00008719    0.00034756
     atom   21 type  1   force =    -0.00034473   -0.00026159   -0.00040143
     atom   22 type  2   force =     0.00006070   -0.00011166   -0.00021386
     atom   23 type  2   force =     0.00009415   -0.00008322    0.00018193
     atom   24 type  1   force =     0.00014053   -0.00015945    0.00002547
     atom   25 type  2   force =     0.00000438   -0.00010096   -0.00023401
     atom   26 type  2   force =     0.00007785   -0.00004071    0.00011024
     atom   27 type  1   force =     0.00047319    0.00051237   -0.00017841
     atom   28 type  2   force =    -0.00000204    0.00007206   -0.00020925
     atom   29 type  2   force =     0.00002087    0.00010958    0.00009970
     atom   30 type  1   force =     0.00022025   -0.00020589    0.00000549
     atom   31 type  2   force =     0.00010788    0.00005534   -0.00029246
     atom   32 type  2   force =     0.00012469    0.00000152    0.00024269
     atom   33 type  1   force =     0.00013990   -0.00023274    0.00002197
     atom   34 type  2   force =    -0.00002617   -0.00002143   -0.00013223
     atom   35 type  2   force =     0.00003171   -0.00005481    0.00012301
     atom   36 type  3   force =    -0.00000487    0.00000199   -0.00003022

     Total force =     0.253985     Total SCF correction =     0.002072
     Energy error            =      7.8E-02 Ry
     Gradient error          =      1.7E-01 Ry/Bohr

     number of scf cycles    =   2
     number of bfgs steps    =   1

     energy             old  =   -2205.4363466162 Ry
     energy             new  =   -2205.5141760595 Ry

     CASE: energy            _new < energy            _old

     new trust radius        =       0.1345096315 bohr
     new conv_thr            =       0.0000001685 Ry


ATOMIC_POSITIONS (angstrom)
Mo            6.5817498562        1.7697189226        2.8262908792
S             8.1673455240        0.8290308930        4.4358070522
S             8.1823457995        0.8200814181        1.2714113468
Mo            8.1022556427        4.4921333217        2.7185381571
S             6.4993609604        3.7162295581        4.3412290833
S             6.5572146503        3.5204648529        1.1232976220
Mo            6.4970639994        7.2100740109        2.6459198194
S             8.0806461012        6.3402622459        4.2596515638
S             8.0942421014        6.3061880825        1.0906701064
Mo            8.1855062067        9.9237574742        2.8130474014
S             6.5257567165        9.0015496663        4.1990647195
S             6.6168118055        9.0506596100        1.1366306260
Mo            3.4259883089        1.7515536954        2.7715397886
S             4.9802504416        0.8218581335        4.3613114524
S             5.0483041821        0.8493079334        1.2183545533
Mo            4.9768666644        4.5142646240        2.6337581395
S             3.4324265329        3.6726700746        4.2823256043
S             3.4339317141        3.5436018695        1.0701759340
Mo            3.4592361564        7.2085212576        2.6295205544
S             4.9865878909        6.3214380541        1.0360375719
Mo            4.9832614606        9.9187013281        2.7285827564
S             3.4670499947        8.9407157404        4.3257190915
S             3.4094722766        9.0665393831        1.1019906516
Mo            0.2893791995        1.7461588408        2.8351809098
S             1.8636823549        0.8090278522        4.4037658326
S             1.8520466504        0.8537630164        1.2055438183
Mo            1.8562661551        4.4925502903        2.6674489950
S             0.2732239256        3.6527291414        4.3319988125
S             0.2334638914        3.5283565787        1.1682870203
Mo            0.2666070637        7.2254913371        2.6977940930
S             1.9034643846        6.3122256050        4.2360691293
S             1.8531469218        6.3144254372        1.0502608347
Mo            1.8538709368        9.9367388145        2.7712241332
S             0.3032714048        9.0544726123        4.4018543257
S             0.2695809189        9.0485348277        1.1605162807
H             6.2651748840        8.4174054627        5.5755041595



     Writing config-only to output data dir ./MoS2-V-O.save/
     NEW-OLD atomic charge density approx. for the potential

     negative rho (up, down):  1.482E-04 0.000E+00

     total cpu time spent up to now is      230.3 secs

     Self-consistent Calculation

     iteration #  1     ecut=    80.00 Ry     beta= 0.70
     Davidson diagonalization with overlap
     ethr =  1.00E-06,  avg # of iterations = 14.0

     negative rho (up, down):  2.810E-05 0.000E+00

     total cpu time spent up to now is      251.3 secs

     total energy              =   -2205.54879178 Ry
     estimated scf accuracy    <       0.01024067 Ry

     iteration #  2     ecut=    80.00 Ry     beta= 0.70
     Davidson diagonalization with overlap
     ethr =  3.34E-06,  avg # of iterations =  2.0

     negative rho (up, down):  1.985E-05 0.000E+00

     total cpu time spent up to now is      264.9 secs

     total energy              =   -2205.54920510 Ry
     estimated scf accuracy    <       0.00168456 Ry

     iteration #  3     ecut=    80.00 Ry     beta= 0.70
     Davidson diagonalization with overlap
     ethr =  5.49E-07,  avg # of iterations =  3.0

     negative rho (up, down):  1.710E-05 0.000E+00

     total cpu time spent up to now is      281.9 secs

     total energy              =   -2205.54921280 Ry
     estimated scf accuracy    <       0.00057708 Ry

     iteration #  4     ecut=    80.00 Ry     beta= 0.70
     Davidson diagonalization with overlap
     ethr =  1.88E-07,  avg # of iterations =  5.0

     negative rho (up, down):  1.735E-05 0.000E+00

     total cpu time spent up to now is      294.0 secs

     total energy              =   -2205.54927943 Ry
     estimated scf accuracy    <       0.00009098 Ry

     iteration #  5     ecut=    80.00 Ry     beta= 0.70
     Davidson diagonalization with overlap
     ethr =  2.96E-08,  avg # of iterations =  6.0

     negative rho (up, down):  1.702E-05 0.000E+00

     total cpu time spent up to now is      304.4 secs

     total energy              =   -2205.54929343 Ry
     estimated scf accuracy    <       0.00002652 Ry

     iteration #  6     ecut=    80.00 Ry     beta= 0.70
     Davidson diagonalization with overlap
     ethr =  8.64E-09,  avg # of iterations =  3.0

     negative rho (up, down):  1.530E-05 0.000E+00

     total cpu time spent up to now is      313.3 secs

     total energy              =   -2205.54929993 Ry
     estimated scf accuracy    <       0.00000823 Ry

     iteration #  7     ecut=    80.00 Ry     beta= 0.70
     Davidson diagonalization with overlap
     ethr =  2.68E-09,  avg # of iterations =  5.0

     negative rho (up, down):  1.400E-05 0.000E+00

     total cpu time spent up to now is      324.4 secs

     total energy              =   -2205.54930400 Ry
     estimated scf accuracy    <       0.00000244 Ry

     iteration #  8     ecut=    80.00 Ry     beta= 0.70
     Davidson diagonalization with overlap
     ethr =  7.95E-10,  avg # of iterations =  2.0

     negative rho (up, down):  1.509E-05 0.000E+00

     total cpu time spent up to now is      332.7 secs

     total energy              =   -2205.54930645 Ry
     estimated scf accuracy    <       0.00000119 Ry

     iteration #  9     ecut=    80.00 Ry     beta= 0.70
     Davidson diagonalization with overlap
     ethr =  3.88E-10,  avg # of iterations =  3.0

     negative rho (up, down):  3.212E-05 0.000E+00

     total cpu time spent up to now is      340.8 secs

     total energy              =   -2205.54930698 Ry
     estimated scf accuracy    <       0.00000041 Ry

     iteration # 10     ecut=    80.00 Ry     beta= 0.70
     Davidson diagonalization with overlap
     ethr =  1.33E-10,  avg # of iterations =  5.0

     negative rho (up, down):  1.360E-04 0.000E+00

     total cpu time spent up to now is      342.9 secs

     End of self-consistent calculation

          k = 0.0000 0.0000 0.0000 (105382 PWs)   bands (ev):

   -62.9000 -62.8863 -62.8213 -62.7967 -62.7828 -62.7656 -62.7501 -62.7411
   -62.7264 -62.5771 -62.5190 -62.4887 -37.2121 -37.1695 -37.1643 -37.1243
   -37.0972 -37.0798 -37.0696 -37.0429 -37.0205 -37.0073 -37.0029 -36.9851
   -36.9641 -36.9587 -36.9478 -36.9406 -36.9374 -36.9309 -36.9239 -36.9147
   -36.8953 -36.8861 -36.8825 -36.8507 -36.8255 -36.8071 -36.8040 -36.7610
   -36.7577 -36.7439 -36.7219 -36.6793 -36.6608 -36.6311 -36.5255 -36.5111
   -16.3329 -15.6805 -15.0474 -15.0338 -14.8685 -14.8207 -14.6224 -14.4091
   -14.3922 -14.3510 -14.3377 -14.3012 -14.2804 -14.2125 -14.1215 -14.0627
   -14.0431 -14.0270 -13.9571 -13.8309 -13.7705 -13.7493 -13.7426  -8.8900
    -7.6575  -7.4337  -7.3629  -7.3002  -7.2164  -7.1645  -7.1262  -7.0580
    -6.7948  -6.7137  -6.6948  -6.6757  -6.5759  -6.4789  -6.4346  -6.3892
    -6.3302  -6.2182  -6.1763  -5.9250  -5.8999  -5.8656  -5.7656  -5.7513
    -5.7031  -5.6713  -5.6118  -5.5992  -5.5784  -5.4834  -5.4588  -5.4316
    -5.3819  -5.3009  -5.1681  -5.1093  -5.0032  -4.9626  -4.9259  -4.8743
    -4.8588  -4.7829  -4.7056  -4.5642  -4.4223  -4.3299  -4.2635  -4.1584
    -4.1240  -4.0570  -3.9761  -3.8037  -3.7876  -3.7195  -3.6804  -3.6104
    -3.5949  -3.5150  -3.4883  -3.4668  -3.4318  -3.4012  -3.3715  -3.3274
    -3.3027  -3.1717  -3.0721  -2.9003  -2.8502  -2.8219  -2.7124  -2.6650
    -2.6347  -2.6214  -2.5900  -2.5347  -2.4624  -2.1777  -1.9342  -1.9216
    -1.8630  -0.6857  -0.6063  -0.4108  -0.1515  -0.0823  -0.0465   0.0141
     0.1188   0.1692   0.2135   0.3034   0.3142   0.3836   0.4643   0.5379
     0.5572   0.6099   0.6404   0.6699   0.6926   0.7262   0.7731   0.8146
     0.8513   0.8823   0.9246   0.9372   1.0364   1.0486   1.0871   1.2155
     1.4480

     the Fermi energy is    -0.7167 ev

!    total energy              =   -2205.54930697 Ry
     estimated scf accuracy    <       0.00000010 Ry
     smearing contrib. (-TS)   =      -0.00831310 Ry
     internal energy E=F+TS    =   -2205.54099386 Ry

     The total energy is F=E-TS. E is the sum of the following terms:
     one-electron contribution =  -18067.13411431 Ry
     hartree contribution      =    9020.98825937 Ry
     xc contribution           =    -385.40081570 Ry
     ewald contribution        =    7226.00567678 Ry

     convergence has been achieved in  10 iterations

     negative rho (up, down):  1.360E-04 0.000E+00

     Forces acting on atoms (cartesian axes, Ry/au):

     atom    1 type  1   force =    -0.00050427   -0.00919100   -0.00076674
     atom    2 type  2   force =    -0.00369087    0.01282355   -0.00155917
     atom    3 type  2   force =    -0.00755390    0.01231251   -0.01528326
     atom    4 type  1   force =     0.00623120   -0.00007251    0.00243031
     atom    5 type  2   force =     0.00057154   -0.00660402   -0.00558228
     atom    6 type  2   force =     0.00357007    0.00522045    0.00287132
     atom    7 type  1   force =     0.01090368   -0.00689853   -0.01762275
     atom    8 type  2   force =    -0.00350340   -0.00216919    0.01019212
     atom    9 type  2   force =     0.01447554   -0.00087570    0.00098832
     atom   10 type  1   force =     0.00992359    0.01287467   -0.00856261
     atom   11 type  2   force =    -0.02737443   -0.06962237    0.10142886
     atom   12 type  2   force =    -0.00211840    0.00641981   -0.00720781
     atom   13 type  1   force =     0.00314717    0.00448210   -0.00146414
     atom   14 type  2   force =     0.00254135    0.00306504    0.00625686
     atom   15 type  2   force =    -0.00854194    0.00700742   -0.01090741
     atom   16 type  1   force =    -0.00282629    0.00191002    0.00191100
     atom   17 type  2   force =     0.00364253    0.00075440    0.00326069
     atom   18 type  2   force =    -0.00368123   -0.00269891    0.00883231
     atom   19 type  1   force =     0.00249165   -0.00768527    0.00259819
     atom   20 type  2   force =     0.00106012   -0.00671636   -0.00645364
     atom   21 type  1   force =    -0.01224304    0.00973071   -0.00534098
     atom   22 type  2   force =    -0.00090298   -0.00238233   -0.00108193
     atom   23 type  2   force =    -0.00268231   -0.00107152   -0.00010792
     atom   24 type  1   force =    -0.00394536    0.00118173   -0.00671464
     atom   25 type  2   force =     0.00910023    0.01298687    0.00006180
     atom   26 type  2   force =    -0.00535773   -0.00062074   -0.00400449
     atom   27 type  1   force =    -0.00232554   -0.00036633    0.00603287
     atom   28 type  2   force =     0.00059716   -0.00339631   -0.00435227
     atom   29 type  2   force =     0.00240874    0.00157388   -0.00421039
     atom   30 type  1   force =    -0.00328839    0.00122025    0.00376506
     atom   31 type  2   force =     0.00067590   -0.00043451    0.00879346
     atom   32 type  2   force =    -0.00715960    0.00318264    0.00569516
     atom   33 type  1   force =     0.00393118   -0.00207631    0.00286876
     atom   34 type  2   force =     0.00512782   -0.02461234   -0.01420760
     atom   35 type  2   force =     0.00044479    0.00522930    0.00040039
     atom   36 type  3   force =     0.01685542    0.04551892   -0.05295747
     The non-local contrib.  to forces
     atom    1 type  1   force =    -0.00039577    0.03644240   -0.01357546
     atom    2 type  2   force =    -0.00189525   -0.00599697   -0.26490909
     atom    3 type  2   force =    -0.01003064   -0.00585574    0.26382006
     atom    4 type  1   force =    -0.00119014    0.00686993    0.00039254
     atom    5 type  2   force =     0.00751540   -0.03584851   -0.25359812
     atom    6 type  2   force =    -0.00015462    0.00350439    0.26522872
     atom    7 type  1   force =    -0.03737040   -0.01822575   -0.00288353
     atom    8 type  2   force =    -0.00312884    0.00053167   -0.24881745
     atom    9 type  2   force =     0.00779949   -0.01128014    0.27332451
     atom   10 type  1   force =     0.01286865   -0.00163289   -0.01154931
     atom   11 type  2   force =    -0.04884554   -0.12122737    0.29956835
     atom   12 type  2   force =    -0.01039133   -0.01126071    0.26962686
     atom   13 type  1   force =    -0.00161930    0.02668784   -0.00458168
     atom   14 type  2   force =     0.00694379   -0.01435411   -0.26066491
     atom   15 type  2   force =    -0.01045381   -0.00506426    0.25919748
     atom   16 type  1   force =     0.00342386    0.04402396   -0.01984456
     atom   17 type  2   force =     0.00056229   -0.03014985   -0.25082655
     atom   18 type  2   force =    -0.00534972   -0.00389738    0.26884210
[...]
     atom   27 type  1   force =     0.00014853    0.01160123    0.00312330
     atom   28 type  2   force =    -0.00249970   -0.01543318   -0.27048156
     atom   29 type  2   force =     0.00004973   -0.00949280    0.26485818
     atom   30 type  1   force =     0.00478502    0.01508184    0.00874789
     atom   31 type  2   force =    -0.01104449    0.00263808   -0.26410026
     atom   32 type  2   force =     0.00092983   -0.01463645    0.26715940
     atom   33 type  1   force =     0.00021122    0.00535601    0.00128962
     atom   34 type  2   force =    -0.00669177   -0.00414709   -0.26436818
     atom   35 type  2   force =    -0.00178549   -0.01035536    0.26605986
     atom   36 type  3   force =     0.00063672   -0.01235320   -0.05938668
     The ionic contribution  to forces
     atom    1 type  1   force =    -0.07394045    0.89464085    2.21481471
     atom    2 type  2   force =    -0.17540911    0.24909645   38.95016501
     atom    3 type  2   force =     0.04184296   -0.06033700  -37.62961891
     atom    4 type  1   force =    -0.76499297    0.90607269    0.86956711
     atom    5 type  2   force =    -0.81366886    1.47885991   38.14032845
     atom    6 type  2   force =     0.16122802   -0.12159328  -37.85666953
     atom    7 type  1   force =    -2.69224737   -2.60886607    1.43917976
     atom    8 type  2   force =    -1.34946958    0.04950343   37.89440833
     atom    9 type  2   force =     0.23983999    0.00009182  -37.85259252
     atom   10 type  1   force =    -0.23504470   -0.72031561    2.74022874
     atom   11 type  2   force =    -0.47475580   -1.97414367   36.26096993
     atom   12 type  2   force =     0.14723742    0.23718886  -37.85380972
     atom   13 type  1   force =     0.10786517    0.47110178    2.67195018
     atom   14 type  2   force =    -0.04961855    0.08906906   38.68155483
     atom   15 type  2   force =    -0.02292045   -0.13092908  -37.71044893
     atom   16 type  1   force =     1.03250543    3.86638878    1.61172513
     atom   17 type  2   force =     0.90877189    1.24188465   38.68672675
     atom   18 type  2   force =    -0.20388807   -0.30898010  -38.31621051
     atom   19 type  1   force =     2.89410005   -1.18779844    3.38059172
     atom   20 type  2   force =     0.11380284    0.07974468  -38.43187335
     atom   21 type  1   force =    -0.46181067   -0.86707178    0.81858584
     atom   22 type  2   force =     0.45751037   -1.58037799   38.33861744
     atom   23 type  2   force =    -0.17887682    0.06920274  -37.51889590
     atom   24 type  1   force =     0.01514990    0.36553918    2.52289733
     atom   25 type  2   force =     0.19594745    0.00124963   38.98017556
     atom   26 type  2   force =    -0.05179024   -0.20915526  -37.43479506
     atom   27 type  1   force =    -0.05489137    0.69310079    0.45530520
     atom   28 type  2   force =    -0.10865499    0.62348515   38.38467343
     atom   29 type  2   force =    -0.05708317   -0.05858057  -37.75657710
     atom   30 type  1   force =    -0.02014518   -0.68754782    1.55185472
     atom   31 type  2   force =     1.05683370    0.25162707   38.30071989
     atom   32 type  2   force =    -0.30850575    0.18931613  -37.88666424
     atom   33 type  1   force =     0.74577584   -0.72433089    3.33963315
     atom   34 type  2   force =     0.04869015   -0.66350291   38.86902070
     atom   35 type  2   force =     0.00958481    0.07813334  -37.49318107
     atom   36 type  3   force =    -0.07897190    0.06823348    8.63764294
     The local contribution  to forces
     atom    1 type  1   force =     0.07556763   -0.92125940   -2.20701246
     atom    2 type  2   force =     0.17733557   -0.23206203  -38.71354293
     atom    3 type  2   force =    -0.03909480    0.07203633   37.38287259
     atom    4 type  1   force =     0.76107052   -0.91116389   -0.87066870
     atom    5 type  2   force =     0.80701555   -1.45714388  -37.90834293
     atom    6 type  2   force =    -0.15954892    0.12769182   37.61084930
     atom    7 type  1   force =     2.72510112    2.61292270   -1.42901208
     atom    8 type  2   force =     1.34890688   -0.04929944  -37.65658448
     atom    9 type  2   force =    -0.23137308    0.01043872   37.60084187
     atom   10 type  1   force =     0.22217607    0.71269517   -2.73624159
     atom   11 type  2   force =     0.47469091    1.88673062  -36.50257651
     atom   12 type  2   force =    -0.14289313   -0.22439101   37.60143912
     atom   13 type  1   force =    -0.10861966   -0.50060397   -2.67034644
     atom   14 type  2   force =     0.04773474   -0.07434921  -38.44550279
     atom   15 type  2   force =     0.02237059    0.14022686   37.46885662
     atom   16 type  1   force =    -1.04167825   -3.91204838   -1.58968208
     atom   17 type  2   force =    -0.90593293   -1.21615282  -38.45178520
     atom   18 type  2   force =     0.20686283    0.31438700   38.07627141
     atom   19 type  1   force =    -2.93160849    1.19269287   -3.35543664
     atom   20 type  2   force =    -0.11622368   -0.06857276   38.18961351
     atom   21 type  1   force =     0.46765643    0.84848792   -0.81312297
     atom   22 type  2   force =    -0.45781112    1.57994753  -38.10313782
     atom   23 type  2   force =     0.16834563   -0.05927555   37.27153083
     atom   24 type  1   force =    -0.01712663   -0.38953886   -2.52238856
     atom   25 type  2   force =    -0.19592879    0.01002625  -38.73708636
     atom   26 type  2   force =     0.05011951    0.21958515   37.18765774
     atom   27 type  1   force =     0.05445306   -0.70440939   -0.45853403
     atom   28 type  2   force =     0.11070693   -0.60851452  -38.13556763
     atom   29 type  2   force =     0.05700070    0.06766169   37.51213887
     atom   30 type  1   force =     0.01538959    0.67229272   -1.56036018
     atom   31 type  2   force =    -1.04605350   -0.25413608  -38.05712912
     atom   32 type  2   force =     0.30696156   -0.17520321   37.64081101
     atom   33 type  1   force =    -0.74572436    0.71913573   -3.34152071
     atom   34 type  2   force =    -0.04192839    0.66765543  -38.62628216
     atom   35 type  2   force =    -0.00834522   -0.06799281   37.24810915
     atom   36 type  3   force =     0.07713106   -0.05514825   -8.57680538
     The core correction contribution to forces
     atom    1 type  1   force =     0.00000000    0.00000000    0.00000000
     atom    2 type  2   force =     0.00007145    0.00114802    0.02028028
     atom    3 type  2   force =     0.00012435    0.00061653   -0.02104876
     atom    4 type  1   force =     0.00000000    0.00000000    0.00000000
     atom    5 type  2   force =    -0.00060448    0.00117008    0.02012473
     atom    6 type  2   force =     0.00005849    0.00015290   -0.02077516
     atom    7 type  1   force =     0.00000000    0.00000000    0.00000000
     atom    8 type  2   force =    -0.00007583    0.00011046    0.02031206
     atom    9 type  2   force =     0.00062195    0.00057971   -0.02104213
     atom   10 type  1   force =     0.00000000    0.00000000    0.00000000
     atom   11 type  2   force =     0.00021499   -0.00585060   -0.00957801
     atom   12 type  2   force =     0.00045529    0.00097282   -0.02124938
     atom   13 type  1   force =     0.00000000    0.00000000    0.00000000
     atom   14 type  2   force =    -0.00022804    0.00076450    0.02028309
     atom   15 type  2   force =    -0.00008007    0.00054902   -0.02073152
     atom   16 type  1   force =     0.00000000    0.00000000    0.00000000
     atom   17 type  2   force =     0.00037042    0.00130659    0.02039382
     atom   18 type  2   force =    -0.00007420   -0.00015792   -0.02072357
     atom   19 type  1   force =     0.00000000    0.00000000    0.00000000
     atom   20 type  2   force =    -0.00006157    0.00047914   -0.02114537
     atom   21 type  1   force =     0.00000000    0.00000000    0.00000000
     atom   22 type  2   force =    -0.00031883   -0.00045678    0.02005318
     atom   23 type  2   force =    -0.00084132    0.00040598   -0.02081738
     atom   24 type  1   force =     0.00000000    0.00000000    0.00000000
     atom   25 type  2   force =    -0.00001079    0.00052174    0.02064690
     atom   26 type  2   force =    -0.00010905    0.00042159   -0.02094205
     atom   27 type  1   force =     0.00000000    0.00000000    0.00000000
     atom   28 type  2   force =     0.00016124    0.00096771    0.02099074
     atom   29 type  2   force =    -0.00003114    0.00034005   -0.02073500
     atom   30 type  1   force =     0.00000000    0.00000000    0.00000000
     atom   31 type  2   force =     0.00048173    0.00010692    0.02068249
     atom   32 type  2   force =    -0.00031132    0.00081115   -0.02084903
     atom   33 type  1   force =     0.00000000    0.00000000    0.00000000
     atom   34 type  2   force =     0.00045270   -0.00007591    0.02067750
     atom   35 type  2   force =     0.00006617    0.00063876   -0.02097939
     atom   36 type  3   force =     0.00000000    0.00000000    0.00000000
     The Hubbard contrib.    to forces
     atom    1 type  1   force =     0.00000000    0.00000000    0.00000000
     atom    2 type  2   force =     0.00000000    0.00000000    0.00000000
     atom    3 type  2   force =     0.00000000    0.00000000    0.00000000
     atom    4 type  1   force =     0.00000000    0.00000000    0.00000000
     atom    5 type  2   force =     0.00000000    0.00000000    0.00000000
     atom    6 type  2   force =     0.00000000    0.00000000    0.00000000
     atom    7 type  1   force =     0.00000000    0.00000000    0.00000000
     atom    8 type  2   force =     0.00000000    0.00000000    0.00000000
     atom    9 type  2   force =     0.00000000    0.00000000    0.00000000
     atom   10 type  1   force =     0.00000000    0.00000000    0.00000000
     atom   11 type  2   force =     0.00000000    0.00000000    0.00000000
     atom   12 type  2   force =     0.00000000    0.00000000    0.00000000
     atom   13 type  1   force =     0.00000000    0.00000000    0.00000000
     atom   14 type  2   force =     0.00000000    0.00000000    0.00000000
     atom   15 type  2   force =     0.00000000    0.00000000    0.00000000
     atom   16 type  1   force =     0.00000000    0.00000000    0.00000000
     atom   17 type  2   force =     0.00000000    0.00000000    0.00000000
     atom   18 type  2   force =     0.00000000    0.00000000    0.00000000
     atom   19 type  1   force =     0.00000000    0.00000000    0.00000000
     atom   20 type  2   force =     0.00000000    0.00000000    0.00000000
     atom   21 type  1   force =     0.00000000    0.00000000    0.00000000
     atom   22 type  2   force =     0.00000000    0.00000000    0.00000000
     atom   23 type  2   force =     0.00000000    0.00000000    0.00000000
     atom   24 type  1   force =     0.00000000    0.00000000    0.00000000
     atom   25 type  2   force =     0.00000000    0.00000000    0.00000000
     atom   26 type  2   force =     0.00000000    0.00000000    0.00000000
     atom   27 type  1   force =     0.00000000    0.00000000    0.00000000
     atom   28 type  2   force =     0.00000000    0.00000000    0.00000000
     atom   29 type  2   force =     0.00000000    0.00000000    0.00000000
     atom   30 type  1   force =     0.00000000    0.00000000    0.00000000
     atom   31 type  2   force =     0.00000000    0.00000000    0.00000000
     atom   32 type  2   force =     0.00000000    0.00000000    0.00000000
     atom   33 type  1   force =     0.00000000    0.00000000    0.00000000
     atom   34 type  2   force =     0.00000000    0.00000000    0.00000000
     atom   35 type  2   force =     0.00000000    0.00000000    0.00000000
     atom   36 type  3   force =     0.00000000    0.00000000    0.00000000
     The SCF correction term to forces
     atom    1 type  1   force =     0.00001237   -0.00002027    0.00005541
     atom    2 type  2   force =     0.00000137   -0.00001454    0.00003352
     atom    3 type  2   force =    -0.00000219   -0.00000575    0.00000698
     atom    4 type  1   force =     0.00001103   -0.00000971    0.00005122
     atom    5 type  2   force =    -0.00000460   -0.00000136    0.00002871
     atom    6 type  2   force =     0.00000693   -0.00000145    0.00000911
     atom    7 type  1   force =     0.00000841    0.00001640    0.00007186
     atom    8 type  2   force =     0.00001009    0.00000131    0.00003984
     atom    9 type  2   force =     0.00000869   -0.00000246   -0.00000122
     atom   10 type  1   force =     0.00001433    0.00000801    0.00006576
     atom   11 type  2   force =     0.00000088    0.00001233    0.00003992
     atom   12 type  2   force =     0.00000788    0.00001303    0.00000645
     atom   13 type  1   force =    -0.00000871   -0.00000538    0.00008410
     atom   14 type  2   force =    -0.00000631   -0.00000922    0.00004123
     atom   15 type  2   force =     0.00000344   -0.00000409    0.00000934
     atom   16 type  1   force =    -0.00001489   -0.00001231    0.00007615
     atom   17 type  2   force =    -0.00000496    0.00000045    0.00003575
     atom   18 type  2   force =    -0.00000193   -0.00000244    0.00001779
     atom   19 type  1   force =    -0.00003564    0.00000223    0.00008953
     atom   20 type  2   force =    -0.00000031   -0.00000411    0.00000631
     atom   21 type  1   force =    -0.00000571    0.00001133    0.00007935
     atom   22 type  2   force =    -0.00000595    0.00000547    0.00004387
     atom   23 type  2   force =    -0.00000393    0.00000778    0.00001616
     atom   24 type  1   force =     0.00000843   -0.00001035    0.00006137
     atom   25 type  2   force =     0.00000259   -0.00000572    0.00003666
     atom   26 type  2   force =    -0.00000592   -0.00000418    0.00001433
     atom   27 type  1   force =    -0.00000309   -0.00000390    0.00008132
     atom   28 type  2   force =     0.00000890    0.00000035    0.00002841
     atom   29 type  2   force =    -0.00000355   -0.00000066    0.00001219
     atom   30 type  1   force =     0.00000619    0.00001404    0.00007461
     atom   31 type  2   force =     0.00000605    0.00000108    0.00004177
     atom   32 type  2   force =    -0.00000589   -0.00000005    0.00001345
     atom   33 type  1   force =    -0.00000764   -0.00000356    0.00008207
     atom   34 type  2   force =     0.00000276    0.00000715    0.00003847
     atom   35 type  2   force =    -0.00000352    0.00000899    0.00001244
     atom   36 type  3   force =    -0.00000034    0.00000066    0.00000567

     Total force =     0.005146     Total SCF correction =     0.000296
     Energy error            =      5.6E-05 Ry
     Gradient error          =      1.6E-03 Ry/Bohr

     bfgs converged in  27 scf cycles and  26 bfgs steps
     (criteria: energy <  1.0E-04 Ry, force <  1.0E-02 Ry/Bohr)

     End of BFGS Geometry Optimization

     Final energy             =   -2205.5972377236 Ry

     File ./MoS2-V-O.bfgs deleted, as requested
Begin final coordinates

ATOMIC_POSITIONS (angstrom)
Mo            6.5535404816        1.7356141328        2.7545414580
S             8.1293987891        0.8482249704        4.3749962535
S             8.1415646608        0.8315936349        1.1708107183
Mo            8.1228587051        4.4619349185        2.7153085582
S             6.5008953690        3.6438323586        4.2984669213
S             6.5533553865        3.5446552664        1.1143954068
Mo            6.5230894068        7.1887203102        2.6510912911
S             8.0897972365        6.2824912576        4.2864049800
S             8.1430463506        6.2936049659        1.1045533337
Mo            8.1537644592        9.9410076304        2.7743116806
S             6.5251194076        8.9569948988        4.2665844186
S             6.5898162050        9.0435551135        1.1298897608
Mo            3.4142867297        1.7415608190        2.7622314520
S             4.9805327418        0.8179952227        4.3502404063
S             4.9806305072        0.8307870837        1.1595739362
Mo            4.9491392883        4.4945161222        2.6511759181
S             3.4372262085        3.6406853954        4.3243318347
S             3.4124708955        3.5308021079        1.1007217005
Mo            3.4803132811        7.1233497196        2.6832620340
S             5.0086703623        6.2820030758        1.0515514480
Mo            4.9819756909        9.9180419427        2.7329187793
S             3.4608887386        8.9147051471        4.3314058489
S             3.4002440930        9.0003642590        1.1424469290
Mo            0.2627501914        1.7276475123        2.7716790127
S             1.8482182431        0.8301750087        4.3770447778
S             1.8410602653        0.8165520919        1.1812925488
Mo            1.8503101091        4.4656552668        2.7114650140
S             0.2603620830        3.5853010183        4.3227250335
S             0.2566785060        3.5366002697        1.1425524440
Mo            0.2663455304        7.1985640402        2.7315383144
S             1.8985505868        6.2712578594        4.3084606462
S             1.8546010967        6.2988394678        1.1127313565
Mo            1.8497102332        9.9115334404        2.7802485946
S             0.2730956884        9.0026155059        4.3655147727
S             0.2726803901        9.0332441413        1.1737987952
H             6.5098657605        9.2361759901        5.6160564416
End final coordinates



     Writing all to output data dir ./MoS2-V-O.save/
 
     init_run     :      2.38s CPU      2.66s WALL (       1 calls)
     electrons    :   2431.18s CPU   2701.20s WALL (      27 calls)
     update_pot   :     36.31s CPU     38.27s WALL (      26 calls)
     forces       :     35.32s CPU     40.20s WALL (      27 calls)

     Called by init_run:
     wfcinit      :      0.39s CPU      0.44s WALL (       1 calls)
     potinit      :      1.32s CPU      1.45s WALL (       1 calls)
     hinit0       :      0.16s CPU      0.18s WALL (       1 calls)

     Called by electrons:
     c_bands      :    283.03s CPU    287.35s WALL (     232 calls)
     sum_band     :     66.03s CPU     81.79s WALL (     232 calls)
     v_of_rho     :     93.19s CPU    112.59s WALL (     244 calls)
     newd         :     31.21s CPU     45.52s WALL (     244 calls)
     mix_rho      :   1968.34s CPU   2184.57s WALL (     232 calls)

     Called by c_bands:
     init_us_2    :      4.93s CPU      5.34s WALL (     465 calls)
     init_us_2:cp :      4.92s CPU      5.34s WALL (     465 calls)
     regterg      :    265.86s CPU    269.72s WALL (     232 calls)

     Called by *egterg:
     rdiaghg      :     21.96s CPU     22.25s WALL (    1229 calls)
     h_psi        :    153.11s CPU    154.53s WALL (    1271 calls)
     s_psi        :     19.87s CPU     19.94s WALL (    1271 calls)
     g_psi        :      0.99s CPU      1.00s WALL (    1038 calls)

     Called by h_psi:
     h_psi:calbec :     21.65s CPU     21.77s WALL (    1271 calls)
     vloc_psi     :    109.78s CPU    110.93s WALL (    1271 calls)
     add_vuspsi   :     19.48s CPU     19.61s WALL (    1271 calls)

     General routines
     calbec       :     31.03s CPU     31.21s WALL (    1611 calls)
     fft          :     59.73s CPU     70.96s WALL (   16464 calls)
     ffts         :    888.03s CPU   1096.94s WALL (  479858 calls)
     fftw         :     94.39s CPU     95.23s WALL (  141076 calls)
     interpolate  :      1.76s CPU      2.08s WALL (     244 calls)
 
     Parallel routines
 
     PWSCF        :  41m49.78s CPU  46m29.88s WALL

 
   This run was terminated on:   8:47:49   4Nov2023            

=------------------------------------------------------------------------------=
   JOB DONE.
=------------------------------------------------------------------------------=
