
     Program PWSCF v.7.2 starts on  4Nov2023 at  6:18:23 

     This program is part of the open-source Quantum ESPRESSO suite
     for quantum simulation of materials; please cite
         "P. Giannozzi et al., J. Phys.:Condens. Matter 21 395502 (2009);
         "P. Giannozzi et al., J. Phys.:Condens. Matter 29 465901 (2017);
         "P. Giannozzi et al., J. Chem. Phys. 152 154105 (2020);
          URL http://www.quantum-espresso.org", 
     in publications or presentations arising from this work. More details at
     http://www.quantum-espresso.org/quote

     Parallel version (MPI & OpenMP), running on      48 processor cores
     Number of MPI processes:                48
     Threads/MPI process:                     1

     MPI processes distributed on     1 nodes
     51942 MiB available memory on the printing compute node when the environment starts
 
     Waiting for input...
     Reading input from standard input
Warning: card &CELL ignored
Warning: card CELL_DYNAMICS = 'BFGS', ignored
Warning: card CELL_DOFREE = '2DXY' ignored
Warning: card / ignored

     Current dimensions of program PWSCF are:
     Max number of different atomic species (ntypx) = 10
     Max number of k-points (npk) =  40000
     Max angular momentum in pseudopotentials (lmaxx) =  4

     IMPORTANT: XC functional enforced from input :
     Exchange-correlation= RVV10
                           (   1   4  13   4  26   0   0)
     Any further DFT definition will be discarded
     Please, verify this is what you really want


     gamma-point specific algorithms are used
     signal trapping enabled: kill the code with -SIGUSR1 to stop cleanly the simulation 
 
     R & G space division:  proc/nbgrp/npool/nimage =      48
     Subspace diagonalization in iterative solution of the eigenvalue problem:
     one sub-group per band group will be used
     scalapack distributed-memory algorithm (size of sub-group:  2*  2 procs)

 
     Parallelization info
     --------------------
     sticks:   dense  smooth     PW     G-vecs:    dense   smooth      PW
     Min         243     194     47                49060    35090    4376
     Max         246     196     50                49086    35128    4410
     Sum       11735    9389   2349              2355467  1685513  210763
 
     Using Slab Decomposition
 


     bravais-lattice index     =            0
     lattice parameter (alat)  =      17.8707  a.u.
     unit-cell volume          =   17436.2743 (a.u.)^3
     number of atoms/cell      =           36
     number of atomic types    =            3
     number of electrons       =       307.00
     number of Kohn-Sham states=          185
     kinetic-energy cutoff     =      80.0000  Ry
     charge density cutoff     =     400.0000  Ry
     scf convergence threshold =      1.0E-06
     mixing beta               =       0.7000
     number of iterations used =            8  local-TF  mixing
     energy convergence thresh.=      1.0E-04
     force convergence thresh. =      1.0E-02
     Exchange-correlation= RVV10
                           (   1   4  13   4  26   0   0)
     nstep                     =          200


     celldm(1)=  17.870686  celldm(2)=   0.000000  celldm(3)=   0.000000
     celldm(4)=   0.000000  celldm(5)=   0.000000  celldm(6)=   0.000000

     crystal axes: (cart. coord. in units of alat)
               a(1) = (   1.000000   0.000000   0.000000 )  
               a(2) = (   0.000000   1.155671   0.000000 )  
               a(3) = (   0.000000   0.000000   2.643601 )  

     reciprocal axes: (cart. coord. in units 2 pi/alat)
               b(1) = (  1.000000  0.000000  0.000000 )  
               b(2) = (  0.000000  0.865298  0.000000 )  
               b(3) = (  0.000000  0.000000  0.378272 )  


     PseudoPot. # 1 for Mo read from file:
     ../pseudo/Mo_ONCV_PBE-1.0.oncvpsp.upf
     MD5 check sum: 1b5d28e075c9ccadda658a603575cd1f
     Pseudo is Norm-conserving, Zval = 14.0
     Generated using ONCVPSP code by D. R. Hamann
     Using radial grid of 1526 points,  6 beta functions with: 
                l(1) =   0
                l(2) =   0
                l(3) =   1
                l(4) =   1
                l(5) =   2
                l(6) =   2

     PseudoPot. # 2 for S  read from file:
     ../pseudo/s_pbe_v1.4.uspp.F.UPF
     MD5 check sum: 88d86576ff6df21479756cfb9bdac1df
     Pseudo is Ultrasoft + core correction, Zval =  6.0
     Generated by new atomic code, or converted to UPF format
     Using radial grid of  907 points,  6 beta functions with: 
                l(1) =   0
                l(2) =   0
                l(3) =   1
                l(4) =   1
                l(5) =   2
                l(6) =   2
     Q(r) pseudized with  8 coefficients,  rinner =    1.300   1.300   1.300
                                                       1.300   1.300

     PseudoPot. # 3 for H  read from file:
     ../pseudo/H_ONCV_PBE-1.0.oncvpsp.upf
     MD5 check sum: 1790becc920ee074925cf490c71280fe
     Pseudo is Norm-conserving, Zval =  1.0
     Generated using ONCVPSP code by D. R. Hamann
     Using radial grid of 1166 points,  2 beta functions with: 
                l(1) =   0
                l(2) =   0

     atomic species   valence    mass     pseudopotential
        Mo            14.00    95.94000     Mo( 1.00)
        S              6.00    32.06500     S ( 1.00)
        H              1.00     1.00794     H ( 1.00)

     No symmetry found



   Cartesian axes

     site n.     atom                  positions (alat units)
         1           Mo  tau(   1) = (   0.6952221   0.1890506   0.2985846  )
         2           S   tau(   2) = (   0.8646417   0.0856217   0.4689279  )
         3           S   tau(   3) = (   0.8663890   0.0857843   0.1351291  )
         4           Mo  tau(   4) = (   0.8560186   0.4753274   0.2873942  )
         5           S   tau(   5) = (   0.6873294   0.3936244   0.4596353  )
         6           S   tau(   6) = (   0.6929804   0.3713468   0.1185692  )
         7           Mo  tau(   7) = (   0.6862796   0.7633098   0.2825370  )
         8           S   tau(   8) = (   0.8545980   0.6708292   0.4486168  )
         9           S   tau(   9) = (   0.8545123   0.6666874   0.1146125  )
        10           Mo  tau(  10) = (   0.8629403   1.0471007   0.3006803  )
        11           S   tau(  11) = (   0.6868280   0.9456650   0.4634891  )
        12           S   tau(  12) = (   0.6998113   0.9568511   0.1205389  )
        13           Mo  tau(  13) = (   0.3618216   0.1847309   0.2935964  )
        14           S   tau(  14) = (   0.5260962   0.0863870   0.4600448  )
        15           S   tau(  15) = (   0.5348379   0.0894875   0.1297123  )
        16           Mo  tau(  16) = (   0.5265817   0.4772436   0.2784130  )
        17           S   tau(  17) = (   0.3624753   0.3882513   0.4525556  )
        18           S   tau(  18) = (   0.3635411   0.3752055   0.1119148  )
        19           Mo  tau(  19) = (   0.3652268   0.7630864   0.2781795  )
        20           S   tau(  20) = (   0.5269494   0.6690381   0.1096838  )
        21           Mo  tau(  21) = (   0.5300192   1.0470394   0.2900995  )
        22           S   tau(  22) = (   0.3670346   0.9457522   0.4574073  )
        23           S   tau(  23) = (   0.3604225   0.9585725   0.1159032  )
        24           Mo  tau(  24) = (   0.0313099   0.1847895   0.3013130  )
        25           S   tau(  25) = (   0.1956761   0.0838230   0.4650863  )
        26           S   tau(  26) = (   0.1967693   0.0903508   0.1278874  )
        27           Mo  tau(  27) = (   0.1967578   0.4753919   0.2813011  )
        28           S   tau(  28) = (   0.0287851   0.3864324   0.4586755  )
        29           S   tau(  29) = (   0.0244514   0.3729871   0.1239344  )
        30           Mo  tau(  30) = (   0.0286728   0.7631204   0.2856894  )
        31           S   tau(  31) = (   0.2011512   0.6675435   0.4465001  )
        32           S   tau(  32) = (   0.1969214   0.6672839   0.1104564  )
        33           Mo  tau(  33) = (   0.1950294   1.0511147   0.2932237  )
        34           S   tau(  34) = (   0.0312912   0.9612169   0.4667423  )
        35           S   tau(  35) = (   0.0292670   0.9563028   0.1216485  )
        36           H   tau(  36) = (   0.6666667   0.7704471   0.5656742  )

     number of k points=     1  Gaussian smearing, width (Ry)=  0.0100
                       cart. coord. in units 2pi/alat
        k(    1) = (   0.0000000   0.0000000   0.0000000), wk =   2.0000000

     Dense  grid:  1177734 G-vectors     FFT dimensions: ( 120, 135, 320)

     Smooth grid:   842757 G-vectors     FFT dimensions: ( 108, 120, 270)

     Estimated max dynamical RAM per process >     146.59 MB

     Estimated total dynamical RAM >       6.87 GB

     Initial potential from superposition of free atoms

     starting charge     306.9873, renormalised to     307.0000

     negative rho (up, down):  1.406E-04 0.000E+00


---------------------------------------------------------------------------------
Carrying out rVV10 run using the following parameters:
Nqs =      20    Nr_points =    1024   r_max =   100.000
b_value =  6.30000    beta =  0.00901
     q_mesh =  0.00010000  0.00030000  0.00058939  0.00100810
               0.00161396  0.00249058  0.00375900  0.00559430
               0.00824984  0.01209221  0.01765183  0.02569619
               0.03733578  0.05417739  0.07854596  0.11380545
               0.16482331  0.23864234  0.34545298  0.50000000

Gradients computed in Reciprocal space

---------------------------------------------------------------------------------


     Starting wfcs are  213 randomized atomic wfcs

     total cpu time spent up to now is        3.5 secs

     Self-consistent Calculation

     iteration #  1     ecut=    80.00 Ry     beta= 0.70
     Davidson diagonalization with overlap
     ethr =  1.00E-02,  avg # of iterations =  2.0

     Threshold (ethr) on eigenvalues was too large:
     Diagonalizing with lowered threshold

     Davidson diagonalization with overlap
     ethr =  3.82E-04,  avg # of iterations =  4.0

     negative rho (up, down):  1.928E-08 0.000E+00

     total cpu time spent up to now is       17.8 secs

     total energy              =   -2205.54883544 Ry
     estimated scf accuracy    <       1.46759251 Ry

     iteration #  2     ecut=    80.00 Ry     beta= 0.70
     Davidson diagonalization with overlap
     ethr =  4.78E-04,  avg # of iterations =  2.0

     total cpu time spent up to now is       20.3 secs

     total energy              =   -2205.43920880 Ry
     estimated scf accuracy    <       0.55325884 Ry

     iteration #  3     ecut=    80.00 Ry     beta= 0.70
     Davidson diagonalization with overlap
     ethr =  1.80E-04,  avg # of iterations =  2.0

     total cpu time spent up to now is       22.7 secs

     total energy              =   -2205.47440756 Ry
     estimated scf accuracy    <       0.16473682 Ry

     iteration #  4     ecut=    80.00 Ry     beta= 0.70
     Davidson diagonalization with overlap
     ethr =  5.37E-05,  avg # of iterations = 17.0

     total cpu time spent up to now is       25.9 secs

     total energy              =   -2205.49419317 Ry
     estimated scf accuracy    <       0.03661195 Ry

     iteration #  5     ecut=    80.00 Ry     beta= 0.70
     Davidson diagonalization with overlap
     ethr =  1.19E-05,  avg # of iterations =  2.0

     total cpu time spent up to now is       28.1 secs

     total energy              =   -2205.49411226 Ry
     estimated scf accuracy    <       0.01813034 Ry

     iteration #  6     ecut=    80.00 Ry     beta= 0.70
     Davidson diagonalization with overlap
     ethr =  5.91E-06,  avg # of iterations =  5.0

     total cpu time spent up to now is       30.4 secs

     total energy              =   -2205.49281378 Ry
     estimated scf accuracy    <       0.01734096 Ry

     iteration #  7     ecut=    80.00 Ry     beta= 0.70
     Davidson diagonalization with overlap
     ethr =  5.65E-06,  avg # of iterations =  2.0

     total cpu time spent up to now is       32.6 secs

     total energy              =   -2205.49189292 Ry
     estimated scf accuracy    <       0.00821050 Ry

     iteration #  8     ecut=    80.00 Ry     beta= 0.70
     Davidson diagonalization with overlap
     ethr =  2.67E-06,  avg # of iterations =  2.0

     negative rho (up, down):  1.048E-02 0.000E+00

     total cpu time spent up to now is       36.9 secs

     total energy              =   -2205.49033824 Ry
     estimated scf accuracy    <       0.00640800 Ry

     iteration #  9     ecut=    80.00 Ry     beta= 0.70
     Davidson diagonalization with overlap
     c_bands:  1 eigenvalues not converged
     ethr =  2.09E-06,  avg # of iterations = 20.0

     negative rho (up, down):  1.465E-02 0.000E+00

     total cpu time spent up to now is       42.9 secs

     total energy              =   -2205.49050406 Ry
     estimated scf accuracy    <       0.00321442 Ry

     iteration # 10     ecut=    80.00 Ry     beta= 0.70
     Davidson diagonalization with overlap
     c_bands:  1 eigenvalues not converged
     ethr =  1.05E-06,  avg # of iterations = 20.0

     negative rho (up, down):  2.209E-02 0.000E+00

     total cpu time spent up to now is       48.5 secs

     total energy              =   -2205.49072726 Ry
     estimated scf accuracy    <       0.00130842 Ry

     iteration # 11     ecut=    80.00 Ry     beta= 0.70
     Davidson diagonalization with overlap
     ethr =  4.26E-07,  avg # of iterations =  3.0

     negative rho (up, down):  2.366E-02 0.000E+00

     total cpu time spent up to now is       53.0 secs

     total energy              =   -2205.49072603 Ry
     estimated scf accuracy    <       0.00107998 Ry

     iteration # 12     ecut=    80.00 Ry     beta= 0.70
     Davidson diagonalization with overlap
     ethr =  3.52E-07,  avg # of iterations =  2.0

     negative rho (up, down):  8.278E-03 0.000E+00

     total cpu time spent up to now is       58.6 secs

     total energy              =   -2205.49091643 Ry
     estimated scf accuracy    <       0.00010161 Ry

     iteration # 13     ecut=    80.00 Ry     beta= 0.70
     Davidson diagonalization with overlap
     ethr =  3.31E-08,  avg # of iterations =  6.0

     negative rho (up, down):  2.409E-03 0.000E+00

     total cpu time spent up to now is       64.9 secs

     total energy              =   -2205.49095439 Ry
     estimated scf accuracy    <       0.00001031 Ry

     iteration # 14     ecut=    80.00 Ry     beta= 0.70
     Davidson diagonalization with overlap
     ethr =  3.36E-09,  avg # of iterations = 12.0

     negative rho (up, down):  1.019E-03 0.000E+00

     total cpu time spent up to now is       72.6 secs

     total energy              =   -2205.49095622 Ry
     estimated scf accuracy    <       0.00000379 Ry

     iteration # 15     ecut=    80.00 Ry     beta= 0.70
     Davidson diagonalization with overlap
     ethr =  1.24E-09,  avg # of iterations =  2.0

     negative rho (up, down):  1.369E-04 0.000E+00

     total cpu time spent up to now is       74.6 secs

     End of self-consistent calculation

          k = 0.0000 0.0000 0.0000 (105382 PWs)   bands (ev):

   -62.9036 -62.8916 -62.8721 -62.8607 -62.8500 -62.8395 -62.8290 -62.8267
   -62.8157 -62.8050 -62.7844 -62.7551 -37.2530 -37.1834 -37.1566 -37.1532
   -37.1479 -37.1189 -37.1137 -37.0896 -37.0848 -37.0788 -37.0716 -37.0591
   -37.0515 -37.0455 -37.0425 -37.0228 -37.0220 -37.0176 -37.0141 -37.0079
   -36.9969 -36.9841 -36.9592 -36.9498 -36.9467 -36.9332 -36.9283 -36.9200
   -36.9152 -36.8956 -36.8805 -36.8617 -36.8530 -36.8150 -36.7624 -36.7399
   -16.0033 -15.2457 -15.1553 -15.0137 -14.9121 -14.8760 -14.5751 -14.4932
   -14.4885 -14.4525 -14.3919 -14.3683 -14.3318 -14.2881 -14.1889 -14.1342
   -14.1191 -14.1093 -14.0415 -13.8887 -13.8587 -13.8494 -13.8183  -7.7993
    -7.5441  -7.3973  -7.3012  -7.2756  -7.2186  -7.2070  -7.1322  -7.0504
    -6.8501  -6.7892  -6.7691  -6.7204  -6.6267  -6.5220  -6.4535  -6.4204
    -6.3285  -6.2791  -6.0165  -5.9945  -5.9230  -5.9025  -5.8384  -5.7952
    -5.7563  -5.7174  -5.6849  -5.6655  -5.6268  -5.5598  -5.5350  -5.5020
    -5.4711  -5.3984  -5.1982  -5.1699  -5.0872  -5.0330  -5.0147  -4.9243
    -4.9110  -4.8489  -4.7292  -4.5820  -4.3809  -4.3224  -4.3135  -4.2367
    -4.2058  -4.0928  -4.0380  -3.8699  -3.8180  -3.7739  -3.7439  -3.6916
    -3.6547  -3.5838  -3.5503  -3.5039  -3.4946  -3.4763  -3.4369  -3.3949
    -3.3748  -3.2125  -3.1256  -2.9441  -2.9015  -2.8432  -2.7825  -2.7402
    -2.7163  -2.6830  -2.6555  -2.6344  -2.5886  -2.3519  -2.0489  -2.0019
    -1.9603  -1.0123  -0.8223  -0.7187  -0.1955  -0.1508  -0.1276  -0.0252
     0.0071   0.1335   0.1701   0.2190   0.2370   0.2561   0.3240   0.4236
     0.4678   0.5099   0.5247   0.5606   0.5861   0.6593   0.7074   0.7308
     0.7440   0.7750   0.8325   0.8550   0.9297   0.9472   0.9872   1.0580
     1.3687

     the Fermi energy is    -1.0176 ev

!    total energy              =   -2205.49095665 Ry
     estimated scf accuracy    <       0.00000039 Ry
     smearing contrib. (-TS)   =      -0.00639669 Ry
     internal energy E=F+TS    =   -2205.48455995 Ry

     The total energy is F=E-TS. E is the sum of the following terms:
     one-electron contribution =  -18044.22298997 Ry
     hartree contribution      =    9008.75952492 Ry
     xc contribution           =    -385.18901739 Ry
     ewald contribution        =    7215.16792249 Ry

     convergence has been achieved in  15 iterations

     negative rho (up, down):  1.369E-04 0.000E+00

     Forces acting on atoms (cartesian axes, Ry/au):

     atom    1 type  1   force =     0.01248852   -0.02517963    0.00530405
     atom    2 type  2   force =    -0.01551059    0.01690791    0.00168043
     atom    3 type  2   force =    -0.01155404    0.00744028   -0.00228775
     atom    4 type  1   force =     0.00931810    0.00486697    0.00224141
     atom    5 type  2   force =    -0.00207029   -0.00692517   -0.00795589
     atom    6 type  2   force =     0.00297672    0.01058862   -0.00105978
     atom    7 type  1   force =     0.00723248   -0.02291068    0.00692591
     atom    8 type  2   force =     0.01358291   -0.01007661    0.01807403
     atom    9 type  2   force =     0.01176251    0.00598957    0.01182267
     atom   10 type  1   force =    -0.00917989    0.01168164   -0.03450092
     atom   11 type  2   force =     0.00439318    0.00043997    0.02203579
     atom   12 type  2   force =    -0.00183647    0.00241093    0.00607085
     atom   13 type  1   force =     0.00553330    0.00342396   -0.00689251
     atom   14 type  2   force =     0.00696881    0.00054620    0.01281503
     atom   15 type  2   force =    -0.01292891    0.00275530   -0.00974085
     atom   16 type  1   force =    -0.00886014    0.00902850    0.00017472
     atom   17 type  2   force =     0.00560804    0.00173924    0.00236326
     atom   18 type  2   force =    -0.00274122   -0.00658921    0.01439494
     atom   19 type  1   force =    -0.00381139   -0.01995297   -0.00823165
     atom   20 type  2   force =     0.00163034   -0.00533840    0.00227123
     atom   21 type  1   force =    -0.00122611    0.00879409    0.00661702
     atom   22 type  2   force =    -0.00534241   -0.00017189   -0.00494361
     atom   23 type  2   force =     0.00004628    0.00182329    0.00608013
     atom   24 type  1   force =    -0.00942267   -0.00278387   -0.02082720
     atom   25 type  2   force =     0.01635972    0.01853771    0.00702779
     atom   26 type  2   force =    -0.01191395   -0.00042613   -0.00369763
     atom   27 type  1   force =    -0.00074172    0.00063000    0.00595264
     atom   28 type  2   force =    -0.00035596   -0.00144634   -0.00608279
     atom   29 type  2   force =     0.00267488   -0.00090920   -0.00246474
     atom   30 type  1   force =    -0.00305161    0.01078272   -0.00943314
     atom   31 type  2   force =     0.00166624   -0.00036967    0.01759784
     atom   32 type  2   force =    -0.00838359    0.00750898    0.00835144
     atom   33 type  1   force =     0.01725183   -0.00680939   -0.00968084
     atom   34 type  2   force =     0.00411923   -0.04193337   -0.00934746
     atom   35 type  2   force =    -0.00770998    0.00707487    0.01672447
     atom   36 type  3   force =    -0.00697217    0.01885177   -0.03737891
     The non-local contrib.  to forces
     atom    1 type  1   force =    -0.00078574    0.03279006   -0.01180674
     atom    2 type  2   force =    -0.01148354    0.00137022   -0.27167822
     atom    3 type  2   force =    -0.01415290   -0.00301391    0.27106599
     atom    4 type  1   force =     0.00008249    0.00296861    0.00232313
     atom    5 type  2   force =     0.00607987   -0.03269868   -0.25273534
     atom    6 type  2   force =    -0.00073598    0.01131637    0.26241487
     atom    7 type  1   force =    -0.02038736   -0.00278139   -0.02797163
     atom    8 type  2   force =    -0.02204973   -0.00782148   -0.24631585
     atom    9 type  2   force =     0.00496013   -0.00788093    0.27842895
     atom   10 type  1   force =    -0.00099841   -0.00125728   -0.00125733
     atom   11 type  2   force =    -0.02112795   -0.14884346   -0.19170247
     atom   12 type  2   force =    -0.01329279   -0.01650769    0.26358440
     atom   13 type  1   force =    -0.00210387    0.02184541   -0.00648765
     atom   14 type  2   force =     0.01116524   -0.00920633   -0.26263403
     atom   15 type  2   force =    -0.01358973   -0.00567072    0.26144349
     atom   16 type  1   force =    -0.00029144    0.03145076   -0.02386808
     atom   17 type  2   force =     0.00464327   -0.02842429   -0.25278645
     atom   18 type  2   force =    -0.00328027   -0.00363499    0.27458866
     atom   19 type  1   force =     0.01453111   -0.00066545   -0.01453216
     atom   20 type  2   force =    -0.00032133   -0.02168790    0.26526123
     atom   21 type  1   force =     0.00081816    0.01989930    0.00391416
     atom   22 type  2   force =    -0.00484962    0.00405502   -0.25981423
     atom   23 type  2   force =     0.00659078   -0.01448940    0.26906798
     atom   24 type  1   force =     0.00690133    0.01349453   -0.01184416
     atom   25 type  2   force =     0.00989231    0.00572905   -0.26031935
     atom   26 type  2   force =    -0.00339796   -0.01363201    0.26367493
     atom   27 type  1   force =    -0.00015853    0.00940228    0.00874163
     atom   28 type  2   force =    -0.00551315   -0.02289491   -0.27331108
     atom   29 type  2   force =     0.00689380    0.00249318    0.26387131
     atom   30 type  1   force =     0.00090408    0.01461015    0.01050533
     atom   31 type  2   force =    -0.00517776    0.00241149   -0.25415091
     atom   32 type  2   force =    -0.00378764   -0.00973118    0.27340473
     atom   33 type  1   force =    -0.00818152    0.00786284    0.00760835
     atom   34 type  2   force =     0.00413310   -0.03515670   -0.27058387
     atom   35 type  2   force =    -0.00537579   -0.01306151    0.26799009
     atom   36 type  3   force =     0.00150158    0.00721790   -0.00930018
     The ionic contribution  to forces
     atom    1 type  1   force =     0.39698248    0.22954052    5.67162955
     atom    2 type  2   force =    -0.62477659    0.46772332   39.27753913
     atom    3 type  2   force =    -0.15055358    0.03525045  -36.08722939
     atom    4 type  1   force =     0.22544022    0.35432324    0.51343954
     atom    5 type  2   force =    -0.95610313    1.31048800   38.70818463
     atom    6 type  2   force =     0.34823909   -0.53613799  -38.04472112
     atom    7 type  1   force =    -2.54704551   -2.79943301    1.61606945
     atom    8 type  2   force =    -0.52485406   -0.22304786   37.11174773
     atom    9 type  2   force =     0.37783041   -0.05960726  -38.07466411
     atom   10 type  1   force =    -0.93993329   -0.06556908    5.49154426
     atom   11 type  2   force =    -0.47644818   -0.84556317   38.71583225
     atom   12 type  2   force =     0.45017739    0.74157711  -37.93361788
     atom   13 type  1   force =     0.43590357    0.98807649    2.85853204
     atom   14 type  2   force =     0.02753406    0.06455421   38.51015614
     atom   15 type  2   force =     0.14773594   -0.04343577  -36.80967537
     atom   16 type  1   force =    -0.13574869    3.69841345    0.29438960
     atom   17 type  2   force =     0.75759446    1.41933278   37.92398790
     atom   18 type  2   force =    -0.17513340   -0.66946917  -38.56767909
     atom   19 type  1   force =     2.46761381   -2.44787516    0.41316128
     atom   20 type  2   force =     0.19892351   -0.22212560  -38.55948516
     atom   21 type  1   force =    -0.09143324    0.33514461    0.94716067
     atom   22 type  2   force =     0.27824713   -1.58682957   38.37230226
     atom   23 type  2   force =    -0.11425182    0.69447599  -38.32019704
     atom   24 type  1   force =    -0.51506019    1.14038973    5.85239260
     atom   25 type  2   force =     0.65058592    0.31233559   39.27543547
     atom   26 type  2   force =    -0.29117356    0.07625407  -37.32229937
     atom   27 type  1   force =     0.00439096    0.30712712   -2.28354264
     atom   28 type  2   force =     0.09209264    0.94100835   38.20397741
     atom   29 type  2   force =    -0.25353321   -0.45004612  -37.26461440
     atom   30 type  1   force =    -0.15677655   -0.90280792   -0.19632503
     atom   31 type  2   force =     1.19261998   -0.09301209   37.30284989
     atom   32 type  2   force =    -0.48672337   -0.01774440  -38.65433503
     atom   33 type  1   force =     0.77188393   -0.74873802    2.03532976
     atom   34 type  2   force =     0.34899103   -1.35051861   39.32728398
     atom   35 type  2   force =    -0.27809421    0.50367249  -37.83728016
     atom   36 type  3   force =    -0.45514396   -0.55772671    7.53272023
     The local contribution  to forces
     atom    1 type  1   force =    -0.38376981   -0.28759431   -5.65481879
     atom    2 type  2   force =     0.62041257   -0.45209544  -39.02531026
     atom    3 type  2   force =     0.15249474   -0.02483837   35.83498275
     atom    4 type  1   force =    -0.21625478   -0.35259018   -0.51371326
     atom    5 type  2   force =     0.94859194   -1.28658603  -38.48415904
     atom    6 type  2   force =    -0.34473858    0.53648241   37.80226511
     atom    7 type  1   force =     2.57475005    2.77955048   -1.58178631
     atom    8 type  2   force =     0.55946049    0.22014737  -36.86759233
     atom    9 type  2   force =    -0.37102982    0.07301638   37.82923011
     atom   10 type  1   force =     0.93193230    0.07861998   -5.52510127
     atom   11 type  2   force =     0.50090898    0.98753944  -38.51907304
     atom   12 type  2   force =    -0.43992184   -0.72406632   37.69714146
     atom   13 type  1   force =    -0.42814246   -1.00668060   -2.85919779
     atom   14 type  2   force =    -0.03111379   -0.05480547  -38.25566365
     atom   15 type  2   force =    -0.14779130    0.05151136   36.55926210
     atom   16 type  1   force =     0.12727468   -3.72135409   -0.27067602
     atom   17 type  2   force =    -0.75649416   -1.39072399  -37.68953046
     atom   18 type  2   force =     0.17568658    0.66696044   38.32866649
     atom   19 type  1   force =    -2.48612867    2.42895669   -0.40719999
     atom   20 type  2   force =    -0.19714125    0.23772608   38.31781045
     atom   21 type  1   force =     0.08922417   -0.34627244   -0.94469436
     atom   22 type  2   force =    -0.27872455    1.58309506  -38.13842790
     atom   23 type  2   force =     0.10825271   -0.67945063   38.07836273
     atom   24 type  1   force =     0.49858211   -1.15679711   -5.86161282
     atom   25 type  2   force =    -0.64400830   -0.29911839  -39.02911351
     atom   26 type  2   force =     0.28277738   -0.06379618   37.07595903
     atom   27 type  1   force =    -0.00500335   -0.31587500    2.28050415
     atom   28 type  2   force =    -0.08736913   -0.92131325  -37.95794937
     atom   29 type  2   force =     0.24986932    0.44724478   37.01901445
     atom   30 type  1   force =     0.15292215    0.89905681    0.17607328
     atom   31 type  2   force =    -1.18613872    0.09029707  -37.05200481
     atom   32 type  2   force =     0.48225113    0.03446903   38.41044373
     atom   33 type  1   force =    -0.74638905    0.73403434   -2.05282329
     atom   34 type  2   force =    -0.34919765    1.34275490  -39.08739801
     atom   35 type  2   force =     0.27569773   -0.48465495   37.60713507
     atom   36 type  3   force =     0.44666198    0.56935212   -7.56082112
     The core correction contribution to forces
     atom    1 type  1   force =     0.00000000    0.00000000    0.00000000
     atom    2 type  2   force =     0.00034096   -0.00007545    0.02079571
     atom    3 type  2   force =     0.00064711    0.00005841   -0.02093254
     atom    4 type  1   force =     0.00000000    0.00000000    0.00000000
     atom    5 type  2   force =    -0.00061238    0.00178765    0.02038001
     atom    6 type  2   force =     0.00020036   -0.00111487   -0.02084272
     atom    7 type  1   force =     0.00000000    0.00000000    0.00000000
     atom    8 type  2   force =     0.00115411    0.00057473    0.01989432
     atom    9 type  2   force =     0.00000439    0.00047124   -0.02106991
     atom   10 type  1   force =     0.00000000    0.00000000    0.00000000
     atom   11 type  2   force =     0.00104923    0.00747693    0.01666445
     atom   12 type  2   force =     0.00119335    0.00140663   -0.02087783
     atom   13 type  1   force =     0.00000000    0.00000000    0.00000000
     atom   14 type  2   force =    -0.00060060    0.00001947    0.02062619
     atom   15 type  2   force =     0.00073565    0.00037684   -0.02057916
     atom   16 type  1   force =     0.00000000    0.00000000    0.00000000
     atom   17 type  2   force =    -0.00011284    0.00150068    0.02037410
     atom   18 type  2   force =     0.00002845   -0.00046143   -0.02106905
     atom   19 type  1   force =     0.00000000    0.00000000    0.00000000
     atom   20 type  2   force =     0.00013099    0.00080685   -0.02119523
     atom   21 type  1   force =     0.00000000    0.00000000    0.00000000
     atom   22 type  2   force =    -0.00002127   -0.00048254    0.02059102
     atom   23 type  2   force =    -0.00055117    0.00122500   -0.02093214
     atom   24 type  1   force =     0.00000000    0.00000000    0.00000000
     atom   25 type  2   force =    -0.00012304   -0.00042911    0.02068635
     atom   26 type  2   force =    -0.00010775    0.00073457   -0.02086952
     atom   27 type  1   force =     0.00000000    0.00000000    0.00000000
     atom   28 type  2   force =     0.00037330    0.00169291    0.02089895
     atom   29 type  2   force =    -0.00057571   -0.00061535   -0.02060335
     atom   30 type  1   force =     0.00000000    0.00000000    0.00000000
     atom   31 type  2   force =     0.00035527   -0.00001146    0.02053714
     atom   32 type  2   force =    -0.00008363    0.00058776   -0.02101609
     atom   33 type  1   force =     0.00000000    0.00000000    0.00000000
     atom   34 type  2   force =     0.00019421    0.00106105    0.02097835
     atom   35 type  2   force =     0.00007182    0.00111567   -0.02092780
     atom   36 type  3   force =     0.00000000    0.00000000    0.00000000
     The Hubbard contrib.    to forces
     atom    1 type  1   force =     0.00000000    0.00000000    0.00000000
     atom    2 type  2   force =     0.00000000    0.00000000    0.00000000
     atom    3 type  2   force =     0.00000000    0.00000000    0.00000000
     atom    4 type  1   force =     0.00000000    0.00000000    0.00000000
     atom    5 type  2   force =     0.00000000    0.00000000    0.00000000
     atom    6 type  2   force =     0.00000000    0.00000000    0.00000000
     atom    7 type  1   force =     0.00000000    0.00000000    0.00000000
     atom    8 type  2   force =     0.00000000    0.00000000    0.00000000
     atom    9 type  2   force =     0.00000000    0.00000000    0.00000000
     atom   10 type  1   force =     0.00000000    0.00000000    0.00000000
     atom   11 type  2   force =     0.00000000    0.00000000    0.00000000
     atom   12 type  2   force =     0.00000000    0.00000000    0.00000000
     atom   13 type  1   force =     0.00000000    0.00000000    0.00000000
     atom   14 type  2   force =     0.00000000    0.00000000    0.00000000
     atom   15 type  2   force =     0.00000000    0.00000000    0.00000000
     atom   16 type  1   force =     0.00000000    0.00000000    0.00000000
     atom   17 type  2   force =     0.00000000    0.00000000    0.00000000
     atom   18 type  2   force =     0.00000000    0.00000000    0.00000000
     atom   19 type  1   force =     0.00000000    0.00000000    0.00000000
     atom   20 type  2   force =     0.00000000    0.00000000    0.00000000
     atom   21 type  1   force =     0.00000000    0.00000000    0.00000000
     atom   22 type  2   force =     0.00000000    0.00000000    0.00000000
     atom   23 type  2   force =     0.00000000    0.00000000    0.00000000
     atom   24 type  1   force =     0.00000000    0.00000000    0.00000000
     atom   25 type  2   force =     0.00000000    0.00000000    0.00000000
     atom   26 type  2   force =     0.00000000    0.00000000    0.00000000
     atom   27 type  1   force =     0.00000000    0.00000000    0.00000000
     atom   28 type  2   force =     0.00000000    0.00000000    0.00000000
     atom   29 type  2   force =     0.00000000    0.00000000    0.00000000
     atom   30 type  1   force =     0.00000000    0.00000000    0.00000000
     atom   31 type  2   force =     0.00000000    0.00000000    0.00000000
     atom   32 type  2   force =     0.00000000    0.00000000    0.00000000
     atom   33 type  1   force =     0.00000000    0.00000000    0.00000000
     atom   34 type  2   force =     0.00000000    0.00000000    0.00000000
     atom   35 type  2   force =     0.00000000    0.00000000    0.00000000
     atom   36 type  3   force =     0.00000000    0.00000000    0.00000000
     The SCF correction term to forces
     atom    1 type  1   force =     0.00006185    0.00008024    0.00029675
     atom    2 type  2   force =    -0.00000374   -0.00001860    0.00033079
     atom    3 type  2   force =     0.00001085   -0.00002016   -0.00017784
     atom    4 type  1   force =     0.00005042    0.00016144    0.00018873
     atom    5 type  2   force =    -0.00002633    0.00008002    0.00037057
     atom    6 type  2   force =     0.00001208    0.00003883   -0.00017919
     atom    7 type  1   force =    -0.00008444   -0.00025062    0.00061114
     atom    8 type  2   force =    -0.00012765    0.00006675    0.00033688
     atom    9 type  2   force =    -0.00000235   -0.00001373   -0.00010565
     atom   10 type  1   force =    -0.00018022   -0.00011585    0.00031015
     atom   11 type  2   force =     0.00001136   -0.00017363    0.00031132
     atom   12 type  2   force =     0.00000768   -0.00000267   -0.00016257
     atom   13 type  1   force =    -0.00012369    0.00017878    0.00025761
     atom   14 type  2   force =    -0.00001585   -0.00001955    0.00032710
     atom   15 type  2   force =    -0.00001920   -0.00003028   -0.00019518
     atom   16 type  1   force =    -0.00009443    0.00051452    0.00032595
     atom   17 type  2   force =    -0.00002245    0.00005020    0.00031490
     atom   18 type  2   force =    -0.00004233    0.00001207   -0.00011534
     atom   19 type  1   force =     0.00017262   -0.00037292    0.00033595
     atom   20 type  2   force =     0.00003868   -0.00006170   -0.00012334
     atom   21 type  1   force =     0.00016506    0.00001874    0.00023328
     atom   22 type  2   force =     0.00000616   -0.00001373    0.00040197
     atom   23 type  2   force =     0.00000603    0.00005846   -0.00022467
     atom   24 type  1   force =     0.00015433    0.00012512    0.00023391
     atom   25 type  2   force =     0.00001309    0.00001670    0.00033557
     atom   26 type  2   force =    -0.00001181    0.00000955   -0.00016597
     atom   27 type  1   force =     0.00002945   -0.00002828    0.00024624
     atom   28 type  2   force =     0.00006062    0.00005669    0.00029802
     atom   29 type  2   force =     0.00002094    0.00001045   -0.00013603
     atom   30 type  1   force =    -0.00010103   -0.00008018    0.00031001
     atom   31 type  2   force =     0.00000773   -0.00005854    0.00036325
     atom   32 type  2   force =    -0.00003982   -0.00007609   -0.00014917
     atom   33 type  1   force =    -0.00006127    0.00002758    0.00020105
     atom   34 type  2   force =    -0.00000120   -0.00007788    0.00036881
     atom   35 type  2   force =    -0.00000928   -0.00000069   -0.00019601
     atom   36 type  3   force =     0.00000848    0.00000459    0.00001889

     Total force =     0.117571     Total SCF correction =     0.001908

     BFGS Geometry Optimization
     Energy error            =      0.0E+00 Ry
     Gradient error          =      4.2E-02 Ry/Bohr

     number of scf cycles    =   1
     number of bfgs steps    =   0

     energy             new  =   -2205.4909566468 Ry

     new trust radius        =       0.0431595945 bohr
     new conv_thr            =       0.0000010000 Ry


ATOMIC_POSITIONS (angstrom)
Mo            6.5811570479        1.7744817448        2.8264498128
S             8.1685014874        0.8186513057        4.4354275954
S             8.1871189520        0.8151789705        1.2766728015
Mo            8.1000934903        4.4976324365        2.7190044969
S             6.4988137056        3.7187468434        4.3424505718
S             6.5549250114        3.5173408123        1.1207194169
Mo            6.4938089621        7.2063134753        2.6755495207
S             8.0889154967        6.3385386793        4.2520259260
S             8.0871420993        6.3078718603        1.0901192845
Mo            8.1557612613        9.9083620712        2.8252046616
S             6.4974923681        8.9431596376        4.3947663697
S             6.6169753838        9.0499870247        1.1431198584
Mo            3.4245877590        1.7487677302        2.7728238053
S             4.9788532253        0.8172302463        4.3573145125
S             5.0509920680        0.8477201520        1.2215038274
Mo            4.9750680954        4.5179556799        2.6329770083
S             3.4308093083        3.6725200536        4.2809601631
S             3.4364699888        3.5447418378        1.0659691566
Mo            3.4518448418        7.2057658809        2.6263208602
S             4.9840969334        6.3241073238        1.0384556142
Mo            5.0116150925        9.9062536809        2.7469025395
S             3.4681310368        8.9436603105        4.3229752660
S             3.4084536535        9.0659548281        1.0992857662
Mo            0.2911042263        1.7460363715        2.8384234316
S             1.8591194049        0.8025037385        4.4019283874
S             1.8544954435        0.8542004194        1.2074441553
Mo            1.8602988064        4.4960001411        2.6633473836
S             0.2720254826        3.6536334576        4.3343652273
S             0.2326466933        3.5267681002        1.1707136002
Mo            0.2695373077        7.2223520631        2.6967046234
S             1.9031199839        6.3126032140        4.2317564973
S             1.8578018094        6.3143173945        1.0489786724
Mo            1.8534759404        9.9365357810        2.7678233694
S             0.2980927019        9.0678076434        4.4089230033
S             0.2726914557        9.0472695754        1.1592509904
H             6.3008171540        7.2959092587        5.3296646426



     Writing config-only to output data dir ./MoS2-V-O.save/
     NEW-OLD atomic charge density approx. for the potential

     negative rho (up, down):  1.421E-04 0.000E+00

     total cpu time spent up to now is       78.0 secs

     Self-consistent Calculation

     iteration #  1     ecut=    80.00 Ry     beta= 0.70
     Davidson diagonalization with overlap
     ethr =  1.00E-06,  avg # of iterations =  9.0

     negative rho (up, down):  8.709E-05 0.000E+00

     total cpu time spent up to now is       90.2 secs

     total energy              =   -2205.50252453 Ry
     estimated scf accuracy    <       0.00157024 Ry

     iteration #  2     ecut=    80.00 Ry     beta= 0.70
     Davidson diagonalization with overlap
     ethr =  5.11E-07,  avg # of iterations =  5.0

     negative rho (up, down):  9.205E-05 0.000E+00

     total cpu time spent up to now is      105.1 secs

     total energy              =   -2205.50264587 Ry
     estimated scf accuracy    <       0.00035222 Ry

     iteration #  3     ecut=    80.00 Ry     beta= 0.70
     Davidson diagonalization with overlap
     ethr =  1.15E-07,  avg # of iterations =  3.0

     negative rho (up, down):  8.750E-05 0.000E+00

     total cpu time spent up to now is      122.0 secs

     total energy              =   -2205.50267300 Ry
     estimated scf accuracy    <       0.00007769 Ry

     iteration #  4     ecut=    80.00 Ry     beta= 0.70
     Davidson diagonalization with overlap
     ethr =  2.53E-08,  avg # of iterations =  6.0

     negative rho (up, down):  8.733E-05 0.000E+00

     total cpu time spent up to now is      139.7 secs

     total energy              =   -2205.50269056 Ry
     estimated scf accuracy    <       0.00000654 Ry

     iteration #  5     ecut=    80.00 Ry     beta= 0.70
     Davidson diagonalization with overlap
     ethr =  2.13E-09,  avg # of iterations =  5.0

     negative rho (up, down):  8.828E-05 0.000E+00

     total cpu time spent up to now is      158.7 secs

     total energy              =   -2205.50269329 Ry
     estimated scf accuracy    <       0.00000252 Ry

     iteration #  6     ecut=    80.00 Ry     beta= 0.70
     Davidson diagonalization with overlap
     ethr =  8.21E-10,  avg # of iterations =  2.0

     negative rho (up, down):  1.374E-04 0.000E+00

     total cpu time spent up to now is      160.7 secs

     End of self-consistent calculation

          k = 0.0000 0.0000 0.0000 (105382 PWs)   bands (ev):

   -62.9012 -62.8903 -62.8672 -62.8552 -62.8447 -62.8339 -62.8244 -62.8219
   -62.8114 -62.7982 -62.7763 -62.7510 -37.2453 -37.1744 -37.1506 -37.1478
   -37.1412 -37.1141 -37.1106 -37.0853 -37.0797 -37.0746 -37.0673 -37.0551
   -37.0473 -37.0411 -37.0376 -37.0181 -37.0161 -37.0126 -37.0084 -37.0030
   -36.9917 -36.9793 -36.9549 -36.9419 -36.9403 -36.9285 -36.9242 -36.9165
   -36.9097 -36.8898 -36.8760 -36.8578 -36.8482 -36.8113 -36.7563 -36.7339
   -15.9976 -15.2401 -15.1516 -15.0055 -14.9052 -14.8735 -14.5724 -14.4864
   -14.4666 -14.4443 -14.3938 -14.3666 -14.3326 -14.2895 -14.1804 -14.1337
   -14.1128 -14.1118 -14.0377 -13.8720 -13.8578 -13.8430 -13.8276  -7.8070
    -7.5383  -7.3997  -7.2984  -7.2606  -7.2196  -7.2011  -7.1367  -7.0550
    -6.8420  -6.7876  -6.7597  -6.7233  -6.6160  -6.5199  -6.4478  -6.4064
    -6.3309  -6.2748  -6.0159  -5.9938  -5.9103  -5.8991  -5.8342  -5.7873
    -5.7550  -5.7112  -5.6765  -5.6635  -5.6328  -5.5523  -5.5412  -5.4832
    -5.4646  -5.3769  -5.1966  -5.1525  -5.0737  -5.0194  -5.0096  -4.9309
    -4.9162  -4.8531  -4.7247  -4.5802  -4.3696  -4.3210  -4.3012  -4.2311
    -4.2109  -4.0990  -4.0372  -3.8655  -3.8098  -3.7720  -3.7301  -3.6836
    -3.6601  -3.5665  -3.5497  -3.5162  -3.4928  -3.4715  -3.4295  -3.3946
    -3.3732  -3.2131  -3.1244  -2.9296  -2.8986  -2.8279  -2.7854  -2.7354
    -2.7156  -2.6858  -2.6593  -2.6373  -2.5806  -2.3431  -2.0483  -1.9969
    -1.9799  -1.0185  -0.7956  -0.7054  -0.1837  -0.1539  -0.1218  -0.0190
     0.0291   0.1338   0.1756   0.2210   0.2587   0.2683   0.3363   0.4274
     0.4729   0.5255   0.5324   0.5559   0.5958   0.6623   0.7016   0.7234
     0.7483   0.7742   0.8429   0.8617   0.9381   0.9545   0.9872   1.0499
     1.3790

     the Fermi energy is    -1.0209 ev

!    total energy              =   -2205.50269310 Ry
     estimated scf accuracy    <       0.00000063 Ry
     smearing contrib. (-TS)   =      -0.00602903 Ry
     internal energy E=F+TS    =   -2205.49666407 Ry

     The total energy is F=E-TS. E is the sum of the following terms:
     one-electron contribution =  -18044.65347361 Ry
     hartree contribution      =    9009.01961780 Ry
     xc contribution           =    -385.18670572 Ry
     ewald contribution        =    7215.32389747 Ry

     convergence has been achieved in   6 iterations

     negative rho (up, down):  1.374E-04 0.000E+00

     Forces acting on atoms (cartesian axes, Ry/au):

     atom    1 type  1   force =     0.00298292   -0.01255322   -0.00015130
     atom    2 type  2   force =    -0.00948148    0.01026691   -0.00112377
     atom    3 type  2   force =    -0.01052991    0.00658622   -0.00903840
     atom    4 type  1   force =     0.00759813    0.00199950    0.00215098
     atom    5 type  2   force =    -0.00105674   -0.00674149   -0.00825898
     atom    6 type  2   force =     0.00283633    0.00739357    0.00214855
     atom    7 type  1   force =     0.00601201   -0.01390961    0.01208951
     atom    8 type  2   force =     0.01395762   -0.00870563    0.01404093
     atom    9 type  2   force =     0.00961099    0.00483389    0.00829972
     atom   10 type  1   force =    -0.00311355    0.00803504   -0.01241562
     atom   11 type  2   force =     0.00470472   -0.00119675    0.01599307
     atom   12 type  2   force =    -0.00490595   -0.00041419    0.00525337
     atom   13 type  1   force =     0.00425818    0.00240525   -0.00243439
     atom   14 type  2   force =     0.00487294    0.00093015    0.00950394
     atom   15 type  2   force =    -0.00905171    0.00167731   -0.00737686
     atom   16 type  1   force =    -0.00638236    0.00556023    0.00092468
     atom   17 type  2   force =     0.00438481    0.00161328    0.00285632
     atom   18 type  2   force =    -0.00231092   -0.00452460    0.01069748
     atom   19 type  1   force =    -0.00345794   -0.01482764   -0.00203320
     atom   20 type  2   force =     0.00276564   -0.00476515   -0.00014577
     atom   21 type  1   force =     0.00013411    0.00379794    0.00823844
     atom   22 type  2   force =    -0.00360424   -0.00181705   -0.00623281
     atom   23 type  2   force =     0.00264655    0.00008805    0.00328537
     atom   24 type  1   force =    -0.00579234   -0.00208227   -0.00847626
     atom   25 type  2   force =     0.01132479    0.01383867   -0.00011903
     atom   26 type  2   force =    -0.00788516   -0.00100452   -0.00437111
     atom   27 type  1   force =    -0.00085035    0.00052422    0.00615495
     atom   28 type  2   force =    -0.00010651   -0.00288925   -0.00601560
     atom   29 type  2   force =     0.00240541    0.00092374   -0.00357806
     atom   30 type  1   force =    -0.00106536    0.00302337    0.00066923
     atom   31 type  2   force =     0.00041111   -0.00048712    0.01226998
     atom   32 type  2   force =    -0.00791342    0.00550970    0.00486786
     atom   33 type  1   force =     0.00819546   -0.00261683    0.00006817
     atom   34 type  2   force =     0.00103591   -0.02984156   -0.01519079
     atom   35 type  2   force =    -0.00493705    0.00831259    0.00846077
     atom   36 type  3   force =    -0.00769262    0.02105726   -0.04101137
     The non-local contrib.  to forces
     atom    1 type  1   force =     0.00091728    0.02876987   -0.01211221
     atom    2 type  2   force =    -0.00762529   -0.00271558   -0.27178425
     atom    3 type  2   force =    -0.01174835   -0.00484823    0.26577309
     atom    4 type  1   force =     0.00116575    0.00441597    0.00170980
     atom    5 type  2   force =     0.00728559   -0.03253564   -0.25413704
     atom    6 type  2   force =    -0.00102855    0.00828394    0.26572206
     atom    7 type  1   force =    -0.02191359   -0.00397677   -0.03027782
     atom    8 type  2   force =    -0.02214512   -0.00856017   -0.24937065
     atom    9 type  2   force =     0.00347262   -0.00833722    0.27600211
     atom   10 type  1   force =    -0.00181341    0.00004231   -0.00173432
     atom   11 type  2   force =    -0.02771251   -0.16190212   -0.19560291
     atom   12 type  2   force =    -0.01400531   -0.01899869    0.26420426
     atom   13 type  1   force =    -0.00093790    0.02306925   -0.00614521
     atom   14 type  2   force =     0.00996957   -0.00881369   -0.26398990
     atom   15 type  2   force =    -0.01063739   -0.00652731    0.26211579
     atom   16 type  1   force =    -0.00061666    0.03356764   -0.02504942
     atom   17 type  2   force =     0.00379619   -0.02794963   -0.25324107
     atom   18 type  2   force =    -0.00284959   -0.00221993    0.27263557
     atom   19 type  1   force =     0.01667227    0.00054358   -0.01515824
     atom   20 type  2   force =     0.00000477   -0.02075464    0.26333924
     atom   21 type  1   force =    -0.00035290    0.02082634    0.00215080
     atom   22 type  2   force =    -0.00208616    0.00188741   -0.26118207
     atom   23 type  2   force =     0.00828065   -0.01641095    0.26821493
     atom   24 type  1   force =     0.00483108    0.01418666   -0.01119124
     atom   25 type  2   force =     0.00648573    0.00182825   -0.26465533
     atom   26 type  2   force =    -0.00048924   -0.01369136    0.26365315
     atom   27 type  1   force =     0.00031464    0.00954314    0.00748533
     atom   28 type  2   force =    -0.00538908   -0.02277398   -0.27368785
     atom   29 type  2   force =     0.00636172    0.00233087    0.26426166
     atom   30 type  1   force =     0.00117078    0.01618777    0.00988838
     atom   31 type  2   force =    -0.00639068    0.00205596   -0.25755657
     atom   32 type  2   force =    -0.00311348   -0.01073442    0.27098955
     atom   33 type  1   force =    -0.00619746    0.00639148    0.00589313
     atom   34 type  2   force =     0.00252739   -0.02609569   -0.27495936
     atom   35 type  2   force =    -0.00408040   -0.01149005    0.26377468
     atom   36 type  3   force =     0.00151711    0.00799366   -0.00990450
     The ionic contribution  to forces
     atom    1 type  1   force =     0.14756673    0.58513569    5.73885768
     atom    2 type  2   force =    -0.42823489    0.32321194   39.35291837
     atom    3 type  2   force =    -0.14005950    0.08156787  -36.21733347
     atom    4 type  1   force =     0.08012935    0.23452190    0.58302337
     atom    5 type  2   force =    -0.96507867    1.29469802   38.58618139
     atom    6 type  2   force =     0.31423219   -0.57007592  -37.94044569
     atom    7 type  1   force =    -2.66650596   -2.46464030    1.90218488
     atom    8 type  2   force =    -0.51609155   -0.17592052   37.25146612
     atom    9 type  2   force =     0.32830867   -0.07428380  -38.06454861
     atom   10 type  1   force =    -0.78170799   -0.20029451    5.00278951
     atom   11 type  2   force =    -0.41906052   -0.83507756   38.72111700
     atom   12 type  2   force =     0.32077526    0.60845753  -37.85542351
     atom   13 type  1   force =     0.38586493    0.91808977    2.77174153
     atom   14 type  2   force =    -0.04560787    0.09411726   38.59616946
     atom   15 type  2   force =     0.16432585   -0.01974724  -36.87122331
     atom   16 type  1   force =     0.06931213    3.47451770    0.32693845
     atom   17 type  2   force =     0.75426629    1.36500927   37.95787097
     atom   18 type  2   force =    -0.16632873   -0.65288948  -38.52149368
     atom   19 type  1   force =     2.58607310   -2.17117688    0.26352639
     atom   20 type  2   force =     0.24430715   -0.15321765  -38.60241049
     atom   21 type  1   force =    -0.05788662    0.07084755    1.20259309
     atom   22 type  2   force =     0.29775459   -1.62158802   38.32431324
     atom   23 type  2   force =    -0.02877228    0.64448203  -38.28093065
     atom   24 type  1   force =    -0.29964383    0.99179872    5.56342806
     atom   25 type  2   force =     0.51921308    0.24721046   39.23372530
     atom   26 type  2   force =    -0.24715689    0.06576412  -37.29586870
     atom   27 type  1   force =    -0.03901559    0.26831630   -2.08169183
     atom   28 type  2   force =     0.10776703    0.84344730   38.18876112
     atom   29 type  2   force =    -0.24321922   -0.40205536  -37.29818646
     atom   30 type  1   force =    -0.13655676   -0.93982357   -0.33321703
     atom   31 type  2   force =     1.16648580   -0.05407580   37.40256603
     atom   32 type  2   force =    -0.48988680   -0.05688547  -38.65795862
     atom   33 type  1   force =     0.59155058   -0.53962920    2.07784960
     atom   34 type  2   force =     0.27638520   -1.12582446   39.21344815
     atom   35 type  2   force =    -0.22100288    0.51989945  -37.77484855
     atom   36 type  3   force =    -0.46250138   -0.57388714    7.53411089
     The local contribution  to forces
     atom    1 type  1   force =    -0.14528299   -0.62679516   -5.72720445
     atom    2 type  2   force =     0.42632767   -0.31039816  -39.10330818
     atom    3 type  2   force =     0.14076792   -0.07027305   35.96323536
     atom    4 type  1   force =    -0.07334023   -0.23726807   -0.58293840
     atom    5 type  2   force =     0.95744843   -1.27094847  -38.36104681
     atom    6 type  2   force =    -0.31048216    0.56997958   37.69768613
     atom    7 type  1   force =     2.69448924    2.45531203   -1.86012703
     atom    8 type  2   force =     0.55108653    0.17536917  -37.00830374
     atom    9 type  2   force =    -0.32218233    0.08703245   37.81775722
     atom   10 type  1   force =     0.78044616    0.20842755   -5.01352212
     atom   11 type  2   force =     0.45015753    0.98761121  -38.52652809
     atom   12 type  2   force =    -0.31289235   -0.59128972   37.61738129
     atom   13 type  1   force =    -0.38067998   -0.93896841   -2.76828825
     atom   14 type  2   force =     0.04106822   -0.08436232  -38.34358078
     atom   15 type  2   force =    -0.16334131    0.02752556   36.62220802
     atom   16 type  1   force =    -0.07510143   -3.50285263   -0.30135051
     atom   17 type  2   force =    -0.75367130   -1.33715280  -37.72232224
     atom   18 type  2   force =     0.16678523    0.65093917   38.28047546
     atom   19 type  1   force =    -2.60628278    2.15624458   -0.25080795
     atom   20 type  2   force =    -0.24166098    0.16860797   38.35990351
     atom   21 type  1   force =     0.05845769   -0.08794527   -1.19675238
     atom   22 type  2   force =    -0.29917563    1.61836812  -38.09041270
     atom   23 type  2   force =     0.02376900   -0.62924741   38.03688144
     atom   24 type  1   force =     0.28906317   -1.00848371   -5.56095477
     atom   25 type  2   force =    -0.51455427   -0.23495290  -38.99026607
     atom   26 type  2   force =     0.23992643   -0.05382706   37.04871886
     atom   27 type  1   force =     0.03745848   -0.27744377    2.08005154
     atom   28 type  2   force =    -0.10277353   -0.82539164  -37.94229845
     atom   29 type  2   force =     0.23985082    0.40113457   37.05087150
     atom   30 type  1   force =     0.13441836    0.92701432    0.32369041
     atom   31 type  2   force =    -1.16016830    0.05157432  -37.15359610
     atom   32 type  2   force =     0.48514242    0.07256793   38.41272260
     atom   33 type  1   force =    -0.57724994    0.53085339   -2.08390986
     atom   34 type  2   force =    -0.27817356    1.12162177  -38.97507596
     atom   35 type  2   force =     0.22015497   -0.50106058   37.54037088
     atom   36 type  3   force =     0.45332065    0.58700220   -7.56531959
     The core correction contribution to forces
     atom    1 type  1   force =     0.00000000    0.00000000    0.00000000
     atom    2 type  2   force =     0.00028483   -0.00000591    0.02084726
     atom    3 type  2   force =     0.00053139    0.00019771   -0.02084027
     atom    4 type  1   force =     0.00000000    0.00000000    0.00000000
     atom    5 type  2   force =    -0.00068574    0.00176100    0.02035774
     atom    6 type  2   force =     0.00019099   -0.00099342   -0.02087217
     atom    7 type  1   force =     0.00000000    0.00000000    0.00000000
     atom    8 type  2   force =     0.00124066    0.00060479    0.02000788
     atom    9 type  2   force =     0.00006638    0.00046335   -0.02104937
     atom   10 type  1   force =     0.00000000    0.00000000    0.00000000
     atom   11 type  2   force =     0.00145434    0.00826045    0.01657745
     atom   12 type  2   force =     0.00110979    0.00140522   -0.02089709
     atom   13 type  1   force =     0.00000000    0.00000000    0.00000000
     atom   14 type  2   force =    -0.00060503    0.00004952    0.02069640
     atom   15 type  2   force =     0.00063212    0.00043531   -0.02061450
     atom   16 type  1   force =     0.00000000    0.00000000    0.00000000
     atom   17 type  2   force =    -0.00007076    0.00144636    0.02039566
     atom   18 type  2   force =    -0.00000850   -0.00050469   -0.02103683
     atom   19 type  1   force =     0.00000000    0.00000000    0.00000000
     atom   20 type  2   force =     0.00015773    0.00081777   -0.02116175
     atom   21 type  1   force =     0.00000000    0.00000000    0.00000000
     atom   22 type  2   force =    -0.00014499   -0.00045199    0.02064411
     atom   23 type  2   force =    -0.00055287    0.00126499   -0.02091117
     atom   24 type  1   force =     0.00000000    0.00000000    0.00000000
     atom   25 type  2   force =    -0.00003027   -0.00027652    0.02077980
     atom   26 type  2   force =    -0.00021199    0.00073058   -0.02085381
     atom   27 type  1   force =     0.00000000    0.00000000    0.00000000
     atom   28 type  2   force =     0.00038074    0.00160615    0.02093541
     atom   29 type  2   force =    -0.00053702   -0.00056065   -0.02063686
     atom   30 type  1   force =     0.00000000    0.00000000    0.00000000
     atom   31 type  2   force =     0.00036545    0.00005182    0.02062148
     atom   32 type  2   force =    -0.00015209    0.00057384   -0.02095199
     atom   33 type  1   force =     0.00000000    0.00000000    0.00000000
     atom   34 type  2   force =     0.00018638    0.00077474    0.02109934
     atom   35 type  2   force =     0.00005979    0.00106003   -0.02081752
     atom   36 type  3   force =     0.00000000    0.00000000    0.00000000
     The Hubbard contrib.    to forces
     atom    1 type  1   force =     0.00000000    0.00000000    0.00000000
     atom    2 type  2   force =     0.00000000    0.00000000    0.00000000
     atom    3 type  2   force =     0.00000000    0.00000000    0.00000000
     atom    4 type  1   force =     0.00000000    0.00000000    0.00000000
     atom    5 type  2   force =     0.00000000    0.00000000    0.00000000
     atom    6 type  2   force =     0.00000000    0.00000000    0.00000000
     atom    7 type  1   force =     0.00000000    0.00000000    0.00000000
     atom    8 type  2   force =     0.00000000    0.00000000    0.00000000
     atom    9 type  2   force =     0.00000000    0.00000000    0.00000000
     atom   10 type  1   force =     0.00000000    0.00000000    0.00000000
     atom   11 type  2   force =     0.00000000    0.00000000    0.00000000
     atom   12 type  2   force =     0.00000000    0.00000000    0.00000000
     atom   13 type  1   force =     0.00000000    0.00000000    0.00000000
     atom   14 type  2   force =     0.00000000    0.00000000    0.00000000
     atom   15 type  2   force =     0.00000000    0.00000000    0.00000000
     atom   16 type  1   force =     0.00000000    0.00000000    0.00000000
     atom   17 type  2   force =     0.00000000    0.00000000    0.00000000
     atom   18 type  2   force =     0.00000000    0.00000000    0.00000000
     atom   19 type  1   force =     0.00000000    0.00000000    0.00000000
     atom   20 type  2   force =     0.00000000    0.00000000    0.00000000
     atom   21 type  1   force =     0.00000000    0.00000000    0.00000000
     atom   22 type  2   force =     0.00000000    0.00000000    0.00000000
     atom   23 type  2   force =     0.00000000    0.00000000    0.00000000
     atom   24 type  1   force =     0.00000000    0.00000000    0.00000000
     atom   25 type  2   force =     0.00000000    0.00000000    0.00000000
     atom   26 type  2   force =     0.00000000    0.00000000    0.00000000
     atom   27 type  1   force =     0.00000000    0.00000000    0.00000000
     atom   28 type  2   force =     0.00000000    0.00000000    0.00000000
     atom   29 type  2   force =     0.00000000    0.00000000    0.00000000
     atom   30 type  1   force =     0.00000000    0.00000000    0.00000000
     atom   31 type  2   force =     0.00000000    0.00000000    0.00000000
     atom   32 type  2   force =     0.00000000    0.00000000    0.00000000
     atom   33 type  1   force =     0.00000000    0.00000000    0.00000000
     atom   34 type  2   force =     0.00000000    0.00000000    0.00000000
     atom   35 type  2   force =     0.00000000    0.00000000    0.00000000
     atom   36 type  3   force =     0.00000000    0.00000000    0.00000000
     The SCF correction term to forces
     atom    1 type  1   force =    -0.00021445    0.00033549    0.00029554
     atom    2 type  2   force =    -0.00023015    0.00017372    0.00019089
     atom    3 type  2   force =    -0.00001773   -0.00005897    0.00011475
     atom    4 type  1   force =    -0.00035308    0.00032880    0.00034407
     atom    5 type  2   force =    -0.00002269    0.00028271    0.00037359
     atom    6 type  2   force =    -0.00007248    0.00019851    0.00004606
     atom    7 type  1   force =    -0.00005403   -0.00060547    0.00029734
     atom    8 type  2   force =    -0.00012924   -0.00019980    0.00022918
     atom    9 type  2   force =    -0.00005070   -0.00004178    0.00012623
     atom   10 type  1   force =    -0.00003465   -0.00014120    0.00003917
     atom   11 type  2   force =    -0.00013047   -0.00008961    0.00041748
     atom   12 type  2   force =     0.00011032    0.00001058   -0.00002373
     atom   13 type  1   force =     0.00001479    0.00021375    0.00024540
     atom   14 type  2   force =     0.00005171   -0.00006152    0.00019662
     atom   15 type  2   force =    -0.00002732   -0.00000991    0.00012499
     atom   16 type  1   force =     0.00002726    0.00032662    0.00037402
     atom   17 type  2   force =     0.00006803    0.00025919    0.00014086
     atom   18 type  2   force =     0.00009431    0.00014943    0.00010482
     atom   19 type  1   force =     0.00008312   -0.00043982    0.00039446
     atom   20 type  2   force =    -0.00003937   -0.00021949    0.00017157
     atom   21 type  1   force =    -0.00008042    0.00006842    0.00023480
     atom   22 type  2   force =     0.00005161   -0.00003346    0.00039247
     atom   23 type  2   force =    -0.00007431   -0.00000150    0.00001868
     atom   24 type  1   force =    -0.00003912    0.00041518    0.00022954
     atom   25 type  2   force =     0.00021417    0.00002849    0.00028512
     atom   26 type  2   force =     0.00005019    0.00001832   -0.00003275
     atom   27 type  1   force =     0.00039578    0.00010765    0.00029776
     atom   28 type  2   force =    -0.00008801    0.00022203    0.00026203
     atom   29 type  2   force =    -0.00004724    0.00007342    0.00009996
     atom   30 type  1   force =    -0.00009408   -0.00035604    0.00029532
     atom   31 type  2   force =     0.00012250   -0.00009431    0.00022300
     atom   32 type  2   force =     0.00010018   -0.00001307    0.00005417
     atom   33 type  1   force =     0.00009592   -0.00023340    0.00022316
     atom   34 type  2   force =     0.00011415   -0.00031881    0.00028491
     atom   35 type  2   force =    -0.00006489   -0.00009715   -0.00003087
     atom   36 type  3   force =    -0.00002534   -0.00005235    0.00008968

     Total force =     0.088445     Total SCF correction =     0.002107
     Energy error            =      1.2E-02 Ry
     Gradient error          =      4.1E-02 Ry/Bohr

     number of scf cycles    =   2
     number of bfgs steps    =   1

     energy             old  =   -2205.4909566468 Ry
     energy             new  =   -2205.5026931020 Ry

     CASE: energy            _new < energy            _old

     new trust radius        =       0.0474755539 bohr
     new conv_thr            =       0.0000000410 Ry


ATOMIC_POSITIONS (angstrom)
Mo            6.5838901079        1.7661422978        2.8269970260
S             8.1626078488        0.8250461516        4.4351355186
S             8.1812287471        0.8188878169        1.2724982263
Mo            8.1044570322        4.4990596717        2.7201939892
S             6.4981173856        3.7150303199        4.3379584724
S             6.5564959457        3.5217626133        1.1215265351
Mo            6.4972453865        7.1976492923        2.6815798641
S             8.0965229972        6.3336083780        4.2601882368
S             8.0926588248        6.3106550187        1.0950756591
Mo            8.1533538650        9.9131876490        2.8158480418
S             6.5000352440        8.9426927042        4.4042308692
S             6.6146407753        9.0500863201        1.1460938884
Mo            3.4270691449        1.7502038257        2.7709744534
S             4.9817663902        0.8176957515        4.3629065040
S             5.0455825710        0.8487640771        1.2171871806
Mo            4.9712834335        4.5214041047        2.6333972380
S             3.4333541089        3.6734189142        4.2824688828
S             3.4351535659        3.5420232246        1.0722600105
Mo            3.4499085688        7.1970461715        2.6244903919
S             4.9854817656        6.3214291186        1.0386548973
Mo            5.0115314837        9.9089126023        2.7512311017
S             3.4659546179        8.9428543377        4.3197077044
S             3.4096039849        9.0662035306        1.1014094460
Mo            0.2875098496        1.7448139475        2.8323505641
S             1.8659086040        0.8106321076        4.4026886712
S             1.8497078770        0.8537166076        1.2051259533
Mo            1.8598452407        4.4962997063        2.6666978122
S             0.2719382864        3.6522164051        4.3310600513
S             0.2339963289        3.5270627206        1.1688809081
Mo            0.2687239068        7.2249055882        2.6959045317
S             1.9034903135        6.3123497677        4.2390976353
S             1.8534098070        6.3175684414        1.0520493484
Mo            1.8590143341        9.9346170976        2.7667346287
S             0.2990166836        9.0500534472        4.4012712305
S             0.2696649405        9.0516831036        1.1648432515
H             6.2966837112        7.3071969114        5.3076040956



     Writing config-only to output data dir ./MoS2-V-O.save/
     NEW-OLD atomic charge density approx. for the potential

     negative rho (up, down):  1.410E-04 0.000E+00

     total cpu time spent up to now is      164.0 secs

     Self-consistent Calculation

     iteration #  1     ecut=    80.00 Ry     beta= 0.70
     Davidson diagonalization with overlap
     ethr =  1.00E-06,  avg # of iterations =  9.0

     negative rho (up, down):  8.402E-05 0.000E+00

     total cpu time spent up to now is      180.8 secs

     total energy              =   -2205.51020978 Ry
     estimated scf accuracy    <       0.00132538 Ry

     iteration #  2     ecut=    80.00 Ry     beta= 0.70
     Davidson diagonalization with overlap
     ethr =  4.32E-07,  avg # of iterations =  5.0

     negative rho (up, down):  8.427E-05 0.000E+00

     total cpu time spent up to now is      196.0 secs

     total energy              =   -2205.51038715 Ry
     estimated scf accuracy    <       0.00024966 Ry

     iteration #  3     ecut=    80.00 Ry     beta= 0.70
     Davidson diagonalization with overlap
     ethr =  8.13E-08,  avg # of iterations =  4.0

     negative rho (up, down):  7.690E-05 0.000E+00

     total cpu time spent up to now is      210.4 secs

     total energy              =   -2205.51042856 Ry
     estimated scf accuracy    <       0.00004414 Ry

     iteration #  4     ecut=    80.00 Ry     beta= 0.70
     Davidson diagonalization with overlap
     ethr =  1.44E-08,  avg # of iterations =  4.0

     negative rho (up, down):  7.499E-05 0.000E+00

     total cpu time spent up to now is      230.0 secs

     total energy              =   -2205.51044289 Ry
     estimated scf accuracy    <       0.00000692 Ry

     iteration #  5     ecut=    80.00 Ry     beta= 0.70
     Davidson diagonalization with overlap
     ethr =  2.26E-09,  avg # of iterations =  5.0

     negative rho (up, down):  7.618E-05 0.000E+00

     total cpu time spent up to now is      246.3 secs

     total energy              =   -2205.51044391 Ry
     estimated scf accuracy    <       0.00000203 Ry

     iteration #  6     ecut=    80.00 Ry     beta= 0.70
     Davidson diagonalization with overlap
     ethr =  6.63E-10,  avg # of iterations =  5.0

     negative rho (up, down):  8.098E-05 0.000E+00

     total cpu time spent up to now is      268.9 secs

     total energy              =   -2205.51044413 Ry
     estimated scf accuracy    <       0.00000034 Ry

     iteration #  7     ecut=    80.00 Ry     beta= 0.70
     Davidson diagonalization with overlap
     ethr =  1.09E-10,  avg # of iterations =  5.0

     negative rho (up, down):  8.895E-05 0.000E+00

     total cpu time spent up to now is      279.2 secs

     total energy              =   -2205.51044418 Ry
     estimated scf accuracy    <       0.00000011 Ry

     iteration #  8     ecut=    80.00 Ry     beta= 0.70
     Davidson diagonalization with overlap
     ethr =  3.69E-11,  avg # of iterations =  2.0

     negative rho (up, down):  1.050E-04 0.000E+00

     total cpu time spent up to now is      291.3 secs

     total energy              =   -2205.51044410 Ry
     estimated scf accuracy    <       0.00000005 Ry

     iteration #  9     ecut=    80.00 Ry     beta= 0.70
     Davidson diagonalization with overlap
     ethr =  1.78E-11,  avg # of iterations =  4.0

     negative rho (up, down):  1.379E-04 0.000E+00

     total cpu time spent up to now is      293.4 secs

     End of self-consistent calculation

          k = 0.0000 0.0000 0.0000 (105382 PWs)   bands (ev):

   -62.8989 -62.8855 -62.8598 -62.8488 -62.8348 -62.8273 -62.8197 -62.8163
   -62.8068 -62.7907 -62.7654 -62.7408 -37.2366 -37.1646 -37.1444 -37.1409
   -37.1347 -37.1085 -37.1066 -37.0799 -37.0732 -37.0686 -37.0609 -37.0488
   -37.0409 -37.0340 -37.0306 -37.0123 -37.0097 -37.0067 -37.0030 -36.9973
   -36.9854 -36.9711 -36.9497 -36.9322 -36.9310 -36.9218 -36.9180 -36.9084
   -36.9021 -36.8829 -36.8686 -36.8524 -36.8426 -36.8057 -36.7457 -36.7245
   -15.9923 -15.2385 -15.1465 -14.9997 -14.9010 -14.8672 -14.5713 -14.4784
   -14.4520 -14.4367 -14.3952 -14.3615 -14.3270 -14.2878 -14.1724 -14.1309
   -14.1102 -14.1062 -14.0319 -13.8663 -13.8524 -13.8383 -13.8235  -7.8230
    -7.5333  -7.4031  -7.2967  -7.2471  -7.2174  -7.1947  -7.1333  -7.0619
    -6.8346  -6.7832  -6.7558  -6.7225  -6.6067  -6.5160  -6.4419  -6.3952
    -6.3314  -6.2697  -6.0178  -5.9897  -5.9022  -5.8944  -5.8305  -5.7786
    -5.7531  -5.7017  -5.6656  -5.6552  -5.6356  -5.5455  -5.5430  -5.4715
    -5.4551  -5.3628  -5.1951  -5.1412  -5.0613  -5.0156  -4.9937  -4.9328
    -4.9183  -4.8533  -4.7166  -4.5743  -4.3624  -4.3200  -4.2913  -4.2228
    -4.2116  -4.0992  -4.0310  -3.8624  -3.8028  -3.7694  -3.7171  -3.6801
    -3.6564  -3.5513  -3.5463  -3.5219  -3.4897  -3.4646  -3.4247  -3.3894
    -3.3697  -3.2136  -3.1203  -2.9177  -2.8944  -2.8169  -2.7830  -2.7344
    -2.7107  -2.6848  -2.6566  -2.6358  -2.5685  -2.3343  -2.0470  -1.9900
    -1.9852  -1.0193  -0.7734  -0.6813  -0.1776  -0.1553  -0.1131  -0.0137
     0.0500   0.1368   0.1774   0.2239   0.2718   0.2842   0.3458   0.4329
     0.4767   0.5376   0.5408   0.5567   0.6044   0.6666   0.7002   0.7227
     0.7541   0.7784   0.8505   0.8688   0.9421   0.9679   0.9916   1.0496
     1.3885

     the Fermi energy is    -1.0206 ev

!    total energy              =   -2205.51044402 Ry
     estimated scf accuracy    <       0.00000001 Ry
     smearing contrib. (-TS)   =      -0.00586037 Ry
     internal energy E=F+TS    =   -2205.50458365 Ry

     The total energy is F=E-TS. E is the sum of the following terms:
     one-electron contribution =  -18045.48192688 Ry
     hartree contribution      =    9009.48127523 Ry
     xc contribution           =    -385.18918187 Ry
     ewald contribution        =    7215.68524987 Ry

     convergence has been achieved in   9 iterations

     negative rho (up, down):  1.379E-04 0.000E+00

     Forces acting on atoms (cartesian axes, Ry/au):

     atom    1 type  1   force =    -0.00222039   -0.00500317   -0.00354098
     atom    2 type  2   force =    -0.00569981    0.00624052   -0.00192918
     atom    3 type  2   force =    -0.00911246    0.00537228   -0.01119161
     atom    4 type  1   force =     0.00615230    0.00006833    0.00138979
     atom    5 type  2   force =    -0.00040184   -0.00618245   -0.00751811
     atom    6 type  2   force =     0.00258721    0.00560492    0.00352046
     atom    7 type  1   force =     0.00484232   -0.00841553    0.01364867
     atom    8 type  2   force =     0.01374190   -0.00820024    0.01170025
     atom    9 type  2   force =     0.00747004    0.00384925    0.00660671
     atom   10 type  1   force =    -0.00080830    0.00559546   -0.00215086
     atom   11 type  2   force =     0.00458409   -0.00196215    0.01348915
     atom   12 type  2   force =    -0.00605203   -0.00208088    0.00590506
     atom   13 type  1   force =     0.00293092    0.00141261   -0.00037752
     atom   14 type  2   force =     0.00335494    0.00117041    0.00722224
     atom   15 type  2   force =    -0.00655145    0.00033986   -0.00521722
     atom   16 type  1   force =    -0.00463356    0.00317790    0.00121528
     atom   17 type  2   force =     0.00338510    0.00155926    0.00349207
     atom   18 type  2   force =    -0.00202950   -0.00285940    0.00793667
     atom   19 type  1   force =    -0.00275678   -0.01103548    0.00058529
     atom   20 type  2   force =     0.00369867   -0.00382556   -0.00035985
     atom   21 type  1   force =     0.00070636    0.00093438    0.00782279
     atom   22 type  2   force =    -0.00246867   -0.00285018   -0.00558677
     atom   23 type  2   force =     0.00391796   -0.00101308    0.00256758
     atom   24 type  1   force =    -0.00386030   -0.00129531   -0.00348793
     atom   25 type  2   force =     0.00780474    0.01038984   -0.00297401
     atom   26 type  2   force =    -0.00492580   -0.00127833   -0.00359018
     atom   27 type  1   force =    -0.00083321    0.00030927    0.00523843
     atom   28 type  2   force =     0.00012216   -0.00365547   -0.00480503
     atom   29 type  2   force =     0.00231562    0.00175090   -0.00352971
     atom   30 type  1   force =     0.00021040   -0.00079322    0.00419890
     atom   31 type  2   force =     0.00003475   -0.00110166    0.00946853
     atom   32 type  2   force =    -0.00710802    0.00382666    0.00307218
     atom   33 type  1   force =     0.00308437   -0.00022550    0.00300025
     atom   34 type  2   force =    -0.00030500   -0.02093682   -0.01538400
     atom   35 type  2   force =    -0.00293703    0.00794452    0.00420940
     atom   36 type  3   force =    -0.00823970    0.02316807   -0.04464671
     The non-local contrib.  to forces
     atom    1 type  1   force =     0.00173137    0.02645023   -0.01198465
     atom    2 type  2   force =    -0.00487876   -0.00569050   -0.27106971
     atom    3 type  2   force =    -0.00951888   -0.00622998    0.26323296
     atom    4 type  1   force =     0.00195809    0.00515109    0.00148290
     atom    5 type  2   force =     0.00809346   -0.03183163   -0.25474087
     atom    6 type  2   force =    -0.00134400    0.00630384    0.26758815
     atom    7 type  1   force =    -0.02363903   -0.00509357   -0.03113173
     atom    8 type  2   force =    -0.02223334   -0.00862544   -0.25108099
     atom    9 type  2   force =     0.00202891   -0.00896368    0.27446679
     atom   10 type  1   force =    -0.00190649    0.00093823   -0.00155656
     atom   11 type  2   force =    -0.03278468   -0.17401377   -0.19642597
     atom   12 type  2   force =    -0.01370938   -0.02053746    0.26531034
     atom   13 type  1   force =    -0.00001146    0.02405382   -0.00571393
     atom   14 type  2   force =     0.00886341   -0.00867154   -0.26464727
     atom   15 type  2   force =    -0.00862671   -0.00743177    0.26267874
     atom   16 type  1   force =    -0.00059840    0.03521677   -0.02551772
     atom   17 type  2   force =     0.00307325   -0.02779630   -0.25321565
     atom   18 type  2   force =    -0.00255124   -0.00112634    0.27103394
     atom   19 type  1   force =     0.01831309    0.00110140   -0.01517462
     atom   20 type  2   force =     0.00026970   -0.01946822    0.26258357
     atom   21 type  1   force =    -0.00107370    0.02124446    0.00112781
     atom   22 type  2   force =    -0.00011078    0.00021587   -0.26126630
     atom   23 type  2   force =     0.00912414   -0.01763134    0.26844040
     atom   24 type  1   force =     0.00346098    0.01464337   -0.01049913
     atom   25 type  2   force =     0.00382481   -0.00121494   -0.26653626
     atom   26 type  2   force =     0.00169058   -0.01345097    0.26434577
     atom   27 type  1   force =     0.00065988    0.00978135    0.00684716
     atom   28 type  2   force =    -0.00505063   -0.02266348   -0.27318402
     atom   29 type  2   force =     0.00602567    0.00188053    0.26493849
     atom   30 type  1   force =     0.00157406    0.01734474    0.00984611
     atom   31 type  2   force =    -0.00729525    0.00147771   -0.25905517
     atom   32 type  2   force =    -0.00232422   -0.01179031    0.26933570
     atom   33 type  1   force =    -0.00491245    0.00560917    0.00523249
     atom   34 type  2   force =     0.00181261   -0.01905135   -0.27559351
     atom   35 type  2   force =    -0.00289084   -0.01134435    0.26189730
     atom   36 type  3   force =     0.00156139    0.00886357   -0.01056787
     The ionic contribution  to forces
     atom    1 type  1   force =     0.00772946    0.78043721    5.68649330
     atom    2 type  2   force =    -0.30819852    0.23979924   39.39144182
     atom    3 type  2   force =    -0.12433543    0.09410156  -36.33486498
     atom    4 type  1   force =    -0.04556159    0.15411528    0.60291220
     atom    5 type  2   force =    -0.96712239    1.28525889   38.48491902
     atom    6 type  2   force =     0.29157419   -0.57886499  -37.87102302
     atom    7 type  1   force =    -2.76841404   -2.23898068    2.19419704
     atom    8 type  2   force =    -0.52683028   -0.15477919   37.36809176
     atom    9 type  2   force =     0.27777666   -0.06613393  -38.05551642
     atom   10 type  1   force =    -0.71805070   -0.28144157    4.71983275
     atom   11 type  2   force =    -0.38628966   -0.80765662   38.73250869
     atom   12 type  2   force =     0.24640046    0.51250443  -37.78275804
     atom   13 type  1   force =     0.34214888    0.84442671    2.69833154
     atom   14 type  2   force =    -0.09052965    0.11033585   38.66014238
     atom   15 type  2   force =     0.16922296   -0.02966787  -36.92825140
     atom   16 type  1   force =     0.22345042    3.34430968    0.32609014
[...]
     atom   27 type  1   force =    -0.00339977    0.00691832    0.00137846
     atom   28 type  2   force =    -0.00008871   -0.01410643   -0.26918070
     atom   29 type  2   force =    -0.00000615   -0.00771719    0.26800696
     atom   30 type  1   force =     0.00014429    0.02007847   -0.00136374
     atom   31 type  2   force =    -0.00866910   -0.00023002   -0.26408691
     atom   32 type  2   force =     0.00557015   -0.01198980    0.26762168
     atom   33 type  1   force =    -0.00216574    0.00953192    0.00171222
     atom   34 type  2   force =    -0.00033688   -0.00874055   -0.27216552
     atom   35 type  2   force =     0.00048136   -0.01371072    0.26776748
     atom   36 type  3   force =     0.00051625    0.00189888   -0.01754619
     The ionic contribution  to forces
     atom    1 type  1   force =    -0.06006618    0.40532240    2.18328024
     atom    2 type  2   force =    -0.11826542    0.09049623   38.92030685
     atom    3 type  2   force =     0.10032838   -0.13214301  -37.50221981
     atom    4 type  1   force =    -0.06434127    0.53568958    0.87665322
     atom    5 type  2   force =    -0.77666401    1.12561212   38.54939041
     atom    6 type  2   force =     0.24015345   -0.23978548  -38.22398191
     atom    7 type  1   force =    -1.94343139   -1.73277722    2.91574249
     atom    8 type  2   force =    -1.06048227    0.03052108   38.45928621
     atom    9 type  2   force =     0.24594572    0.05163018  -37.70581387
     atom   10 type  1   force =    -0.23235771   -0.33133253    3.31284712
     atom   11 type  2   force =    -0.44367025   -1.24853335   38.88180418
     atom   12 type  2   force =     0.23324301    0.24116305  -37.86720479
     atom   13 type  1   force =    -0.02269525    0.54564022    2.02211506
     atom   14 type  2   force =    -0.02886217   -0.00128760   38.63817785
     atom   15 type  2   force =     0.00473786   -0.14674920  -37.65269636
     atom   16 type  1   force =    -0.32664861    3.08682386    0.68174323
     atom   17 type  2   force =     0.70971474    1.19575579   38.36151066
     atom   18 type  2   force =    -0.24184928   -0.18443318  -38.09450061
     atom   19 type  1   force =     1.91347348   -2.10669968    1.54930913
     atom   20 type  2   force =    -0.02161662   -0.04320171  -38.61120069
     atom   21 type  1   force =     0.07073484   -0.15004064    1.29561318
     atom   22 type  2   force =     0.42997915   -1.28584193   38.86883803
     atom   23 type  2   force =    -0.18013785    0.31091306  -38.10476503
     atom   24 type  1   force =     0.04058995    0.34350042    2.34114306
     atom   25 type  2   force =     0.17284896    0.10798580   38.84099885
     atom   26 type  2   force =    -0.09138620   -0.08977530  -37.51894594
     atom   27 type  1   force =     0.36927245    0.52290507    0.87271740
     atom   28 type  2   force =     0.06511761    0.46527528   38.33804269
     atom   29 type  2   force =     0.02517845   -0.06414207  -37.66013855
     atom   30 type  1   force =    -0.03088300   -0.59187995    2.62811137
     atom   31 type  2   force =     1.18688366   -0.02163112   38.31275375
     atom   32 type  2   force =    -0.25592866   -0.02927014  -37.81607961
     atom   33 type  1   force =     0.11096707   -0.23300228    3.02642637
     atom   34 type  2   force =     0.03692631   -0.39241764   38.99070049
     atom   35 type  2   force =    -0.02691169    0.11268367  -37.36678165
     atom   36 type  3   force =    -0.02989726   -0.14697379    5.25681698
     The local contribution  to forces
     atom    1 type  1   force =     0.05894746   -0.42624565   -2.17929701
     atom    2 type  2   force =     0.11964826   -0.07750377  -38.67531694
     atom    3 type  2   force =    -0.09794677    0.14289269   37.25607615
     atom    4 type  1   force =     0.06208585   -0.54238653   -0.87806454
     atom    5 type  2   force =     0.77384944   -1.10586831  -38.31298994
     atom    6 type  2   force =    -0.23770328    0.24719773   37.97997054
     atom    7 type  1   force =     1.93642804    1.72038321   -2.90185075
     atom    8 type  2   force =     1.05441664   -0.03204684  -38.21534338
     atom    9 type  2   force =    -0.24197474   -0.03823573   37.45914847
     atom   10 type  1   force =     0.23013825    0.32179121   -3.31512924
     atom   11 type  2   force =     0.43853315    1.25362212  -38.64236371
     atom   12 type  2   force =    -0.22689827   -0.22865769   37.62372773
     atom   13 type  1   force =     0.02365607   -0.56869562   -2.01624175
     atom   14 type  2   force =     0.02860938    0.01202937  -38.39130959
     atom   15 type  2   force =    -0.00434406    0.15724256   37.40947503
     atom   16 type  1   force =     0.32858428   -3.09903978   -0.66586277
     atom   17 type  2   force =    -0.70563780   -1.17754528  -38.12650535
     atom   18 type  2   force =     0.23748483    0.19025702   37.84917573
     atom   19 type  1   force =    -1.90614439    2.09771832   -1.53994277
     atom   20 type  2   force =     0.02265698    0.05688619   38.36988877
     atom   21 type  1   force =    -0.07041708    0.12686385   -1.29986888
     atom   22 type  2   force =    -0.42471353    1.28796664  -38.62922591
     atom   23 type  2   force =     0.17597858   -0.29787203   37.86228236
     atom   24 type  1   force =    -0.04075509   -0.36018649   -2.34000499
     atom   25 type  2   force =    -0.17380084   -0.09509440  -38.59457335
     atom   26 type  2   force =     0.08850180    0.10031366   37.27219833
     atom   27 type  1   force =    -0.36632611   -0.53014199   -0.87408793
     atom   28 type  2   force =    -0.06513777   -0.45218306  -38.09016860
     atom   29 type  2   force =    -0.02529930    0.07158257   37.41372773
     atom   30 type  1   force =     0.03116303    0.57259232   -2.62708331
     atom   31 type  2   force =    -1.17900102    0.02144343  -38.06904017
     atom   32 type  2   force =     0.25043175    0.04011773   37.56904727
     atom   33 type  1   force =    -0.10837739    0.22362048   -3.02852492
     atom   34 type  2   force =    -0.03617866    0.40226478  -38.74080629
     atom   35 type  2   force =     0.02641081   -0.09906452   37.12034524
     atom   36 type  3   force =     0.03029096    0.14391283   -5.23899108
     The core correction contribution to forces
     atom    1 type  1   force =     0.00000000    0.00000000    0.00000000
     atom    2 type  2   force =     0.00003603    0.00069379    0.02083802
     atom    3 type  2   force =     0.00020608    0.00043541   -0.02091024
     atom    4 type  1   force =     0.00000000    0.00000000    0.00000000
     atom    5 type  2   force =    -0.00035448    0.00088106    0.02049871
     atom    6 type  2   force =     0.00037076   -0.00007800   -0.02088097
     atom    7 type  1   force =     0.00000000    0.00000000    0.00000000
     atom    8 type  2   force =    -0.00039443   -0.00003080    0.02078447
     atom    9 type  2   force =     0.00032156    0.00072147   -0.02084451
     atom   10 type  1   force =     0.00000000    0.00000000    0.00000000
     atom   11 type  2   force =    -0.00021650    0.00001520    0.02061366
     atom   12 type  2   force =     0.00051828    0.00083692   -0.02089080
     atom   13 type  1   force =     0.00000000    0.00000000    0.00000000
     atom   14 type  2   force =    -0.00003176    0.00035550    0.02092037
     atom   15 type  2   force =     0.00006430    0.00052701   -0.02074036
     atom   16 type  1   force =     0.00000000    0.00000000    0.00000000
     atom   17 type  2   force =     0.00043014    0.00093915    0.02039977
     atom   18 type  2   force =    -0.00034154    0.00002931   -0.02088543
     atom   19 type  1   force =     0.00000000    0.00000000    0.00000000
     atom   20 type  2   force =     0.00000541    0.00059386   -0.02091426
     atom   21 type  1   force =     0.00000000    0.00000000    0.00000000
     atom   22 type  2   force =     0.00018130   -0.00022355    0.02067019
     atom   23 type  2   force =    -0.00039366    0.00098119   -0.02087109
     atom   24 type  1   force =     0.00000000    0.00000000    0.00000000
     atom   25 type  2   force =     0.00005785    0.00066276    0.02085047
     atom   26 type  2   force =    -0.00017703    0.00049412   -0.02092373
     atom   27 type  1   force =     0.00000000    0.00000000    0.00000000
     atom   28 type  2   force =     0.00001944    0.00086903    0.02092703
     atom   29 type  2   force =     0.00002585    0.00019300   -0.02083003
     atom   30 type  1   force =     0.00000000    0.00000000    0.00000000
     atom   31 type  2   force =     0.00057336    0.00014235    0.02075354
     atom   32 type  2   force =    -0.00047764    0.00062646   -0.02088029
     atom   33 type  1   force =     0.00000000    0.00000000    0.00000000
     atom   34 type  2   force =     0.00006907    0.00039941    0.02111410
     atom   35 type  2   force =    -0.00000615    0.00074559   -0.02093592
     atom   36 type  3   force =     0.00000000    0.00000000    0.00000000
     The Hubbard contrib.    to forces
     atom    1 type  1   force =     0.00000000    0.00000000    0.00000000
     atom    2 type  2   force =     0.00000000    0.00000000    0.00000000
     atom    3 type  2   force =     0.00000000    0.00000000    0.00000000
     atom    4 type  1   force =     0.00000000    0.00000000    0.00000000
     atom    5 type  2   force =     0.00000000    0.00000000    0.00000000
     atom    6 type  2   force =     0.00000000    0.00000000    0.00000000
     atom    7 type  1   force =     0.00000000    0.00000000    0.00000000
     atom    8 type  2   force =     0.00000000    0.00000000    0.00000000
     atom    9 type  2   force =     0.00000000    0.00000000    0.00000000
     atom   10 type  1   force =     0.00000000    0.00000000    0.00000000
     atom   11 type  2   force =     0.00000000    0.00000000    0.00000000
     atom   12 type  2   force =     0.00000000    0.00000000    0.00000000
     atom   13 type  1   force =     0.00000000    0.00000000    0.00000000
     atom   14 type  2   force =     0.00000000    0.00000000    0.00000000
     atom   15 type  2   force =     0.00000000    0.00000000    0.00000000
     atom   16 type  1   force =     0.00000000    0.00000000    0.00000000
     atom   17 type  2   force =     0.00000000    0.00000000    0.00000000
     atom   18 type  2   force =     0.00000000    0.00000000    0.00000000
     atom   19 type  1   force =     0.00000000    0.00000000    0.00000000
     atom   20 type  2   force =     0.00000000    0.00000000    0.00000000
     atom   21 type  1   force =     0.00000000    0.00000000    0.00000000
     atom   22 type  2   force =     0.00000000    0.00000000    0.00000000
     atom   23 type  2   force =     0.00000000    0.00000000    0.00000000
     atom   24 type  1   force =     0.00000000    0.00000000    0.00000000
     atom   25 type  2   force =     0.00000000    0.00000000    0.00000000
     atom   26 type  2   force =     0.00000000    0.00000000    0.00000000
     atom   27 type  1   force =     0.00000000    0.00000000    0.00000000
     atom   28 type  2   force =     0.00000000    0.00000000    0.00000000
     atom   29 type  2   force =     0.00000000    0.00000000    0.00000000
     atom   30 type  1   force =     0.00000000    0.00000000    0.00000000
     atom   31 type  2   force =     0.00000000    0.00000000    0.00000000
     atom   32 type  2   force =     0.00000000    0.00000000    0.00000000
     atom   33 type  1   force =     0.00000000    0.00000000    0.00000000
     atom   34 type  2   force =     0.00000000    0.00000000    0.00000000
     atom   35 type  2   force =     0.00000000    0.00000000    0.00000000
     atom   36 type  3   force =     0.00000000    0.00000000    0.00000000
     The SCF correction term to forces
     atom    1 type  1   force =     0.00000437   -0.00003874   -0.00000815
     atom    2 type  2   force =     0.00000110   -0.00000701   -0.00000615
     atom    3 type  2   force =    -0.00000110   -0.00000100    0.00000273
     atom    4 type  1   force =     0.00001648   -0.00002451    0.00000095
     atom    5 type  2   force =     0.00001845   -0.00001828    0.00001232
     atom    6 type  2   force =     0.00001223   -0.00002069   -0.00001847
     atom    7 type  1   force =    -0.00001616    0.00003700    0.00001207
     atom    8 type  2   force =    -0.00000676    0.00000424    0.00000482
     atom    9 type  2   force =    -0.00000641    0.00000216   -0.00000175
     atom   10 type  1   force =    -0.00000550    0.00002580    0.00000531
     atom   11 type  2   force =    -0.00000720    0.00000582   -0.00000348
     atom   12 type  2   force =    -0.00000328    0.00000778    0.00001102
     atom   13 type  1   force =    -0.00001399   -0.00004348   -0.00001136
     atom   14 type  2   force =     0.00000093   -0.00001246   -0.00000593
     atom   15 type  2   force =    -0.00000045   -0.00000417    0.00000072
     atom   16 type  1   force =    -0.00000250   -0.00000916   -0.00001483
     atom   17 type  2   force =    -0.00001302   -0.00001658    0.00001336
     atom   18 type  2   force =    -0.00001245   -0.00001872   -0.00001891
     atom   19 type  1   force =     0.00001078    0.00004877    0.00001265
     atom   20 type  2   force =    -0.00000511    0.00002487   -0.00000293
     atom   21 type  1   force =    -0.00001477    0.00000384    0.00001058
     atom   22 type  2   force =     0.00000623   -0.00000001   -0.00000834
     atom   23 type  2   force =     0.00000226    0.00000246    0.00001253
     atom   24 type  1   force =    -0.00000259   -0.00001987   -0.00000218
     atom   25 type  2   force =     0.00000155   -0.00000654   -0.00000243
     atom   26 type  2   force =     0.00000429   -0.00000138    0.00000186
     atom   27 type  1   force =    -0.00001419   -0.00001528   -0.00000769
     atom   28 type  2   force =    -0.00000262   -0.00001091    0.00000207
     atom   29 type  2   force =    -0.00000004   -0.00001153   -0.00000356
     atom   30 type  1   force =     0.00001415    0.00002721    0.00000559
     atom   31 type  2   force =     0.00000775    0.00001097    0.00000554
     atom   32 type  2   force =     0.00000730    0.00000649   -0.00000346
     atom   33 type  1   force =     0.00001819    0.00001337    0.00000351
     atom   34 type  2   force =    -0.00000008    0.00001137    0.00000027
     atom   35 type  2   force =     0.00000244    0.00001193    0.00000258
     atom   36 type  3   force =    -0.00000159    0.00000938    0.00000102

     Total force =     0.006778     Total SCF correction =     0.000137
     Energy error            =      9.7E-05 Ry
     Gradient error          =      2.0E-03 Ry/Bohr

     bfgs converged in  45 scf cycles and  44 bfgs steps
     (criteria: energy <  1.0E-04 Ry, force <  1.0E-02 Ry/Bohr)

     End of BFGS Geometry Optimization

     Final energy             =   -2205.7083911759 Ry

     File ./MoS2-V-O.bfgs deleted, as requested
Begin final coordinates

ATOMIC_POSITIONS (angstrom)
Mo            6.6054125080        1.7798946037        2.8045023246
S             8.1739494636        0.8773638075        4.4185927664
S             8.1874649552        0.8575527924        1.2259662348
Mo            8.1663450601        4.5124203173        2.7709575759
S             6.5748994558        3.6614161927        4.3649571137
S             6.6139185913        3.5792773052        1.1571447865
Mo            6.5565954697        7.2270987160        2.7445051756
S             8.1160779659        6.3268127054        4.3672549011
S             8.1720569331        6.3488825001        1.1828634583
Mo            8.1724978524        9.9594456826        2.8303021070
S             6.5624907627        9.0026381133        4.3964735223
S             6.6238395170        9.0616133193        1.1874299919
Mo            3.4661394957        1.7874561389        2.8007578719
S             5.0314484141        0.8553034257        4.3923212687
S             5.0362622531        0.8708066146        1.2090264611
Mo            5.0504814720        4.5326592185        2.7018097179
S             3.5105016444        3.6757498690        4.3557068598
S             3.4644819771        3.5934941913        1.1586794228
Mo            3.4913858409        7.2487033169        2.7198441222
S             5.0296703091        6.3448025037        1.0891172200
Mo            5.0290094150        9.9426919348        2.7865658581
S             3.4929938043        9.0052591503        4.3905918637
S             3.4338471105        9.0801548328        1.1750656313
Mo            0.3054486343        1.7722455119        2.8171152043
S             1.8965750195        0.8814899081        4.4120466198
S             1.8818393682        0.8679432985        1.2233495831
Mo            1.9043242216        4.5202777620        2.7690286869
S             0.3109567330        3.6340949836        4.3726351416
S             0.3080601856        3.5896697884        1.1973282683
Mo            0.2976280535        7.2335674666        2.8042499639
S             1.9431028034        6.3410029013        4.3565421043
S             1.8713935436        6.3526534787        1.1724586303
Mo            1.8870858425        9.9636010748        2.8234812526
S             0.3019946394        9.0482194230        4.4204423001
S             0.2981204834        9.0680967834        1.2321817163
H             5.0085538797        6.3625201116        3.6950270925
End final coordinates



     Writing all to output data dir ./MoS2-V-O.save/
 
     init_run     :      3.08s CPU      3.37s WALL (       1 calls)
     electrons    :   4408.52s CPU   4880.85s WALL (      45 calls)
     update_pot   :     61.22s CPU     64.59s WALL (      44 calls)
     forces       :     58.69s CPU     66.46s WALL (      45 calls)

     Called by init_run:
     wfcinit      :      0.39s CPU      0.43s WALL (       1 calls)
     potinit      :      2.01s CPU      2.14s WALL (       1 calls)
     hinit0       :      0.16s CPU      0.18s WALL (       1 calls)

     Called by electrons:
     c_bands      :    485.74s CPU    492.55s WALL (     382 calls)
     sum_band     :    110.92s CPU    135.35s WALL (     382 calls)
     v_of_rho     :    160.26s CPU    192.17s WALL (     417 calls)
     newd         :     52.81s CPU     76.61s WALL (     417 calls)
     mix_rho      :   3616.69s CPU   4001.92s WALL (     382 calls)

     Called by c_bands:
     init_us_2    :      8.09s CPU      8.80s WALL (     765 calls)
     init_us_2:cp :      8.08s CPU      8.80s WALL (     765 calls)
     regterg      :    457.17s CPU    463.13s WALL (     382 calls)

     Called by *egterg:
     rdiaghg      :     38.66s CPU     39.10s WALL (    2214 calls)
     h_psi        :    261.18s CPU    263.47s WALL (    2269 calls)
     s_psi        :     32.93s CPU     33.05s WALL (    2269 calls)
     g_psi        :      1.70s CPU      1.72s WALL (    1886 calls)

     Called by h_psi:
     h_psi:calbec :     38.19s CPU     38.41s WALL (    2269 calls)
     vloc_psi     :    187.00s CPU    188.83s WALL (    2269 calls)
     add_vuspsi   :     32.28s CPU     32.50s WALL (    2269 calls)

     General routines
     calbec       :     53.78s CPU     54.06s WALL (    2831 calls)
     fft          :    104.38s CPU    122.79s WALL (   28056 calls)
     ffts         :   1607.70s CPU   1980.31s WALL (  879228 calls)
     fftw         :    160.94s CPU    162.33s WALL (  238006 calls)
     interpolate  :      3.02s CPU      3.57s WALL (     417 calls)
 
     Parallel routines
 
     PWSCF        :      1h15m CPU      1h23m WALL

 
   This run was terminated on:   7:42:10   4Nov2023            

=------------------------------------------------------------------------------=
   JOB DONE.
=------------------------------------------------------------------------------=
