
     Program PWSCF v.7.2 starts on  4Nov2023 at  8:15: 3 

     This program is part of the open-source Quantum ESPRESSO suite
     for quantum simulation of materials; please cite
         "P. Giannozzi et al., J. Phys.:Condens. Matter 21 395502 (2009);
         "P. Giannozzi et al., J. Phys.:Condens. Matter 29 465901 (2017);
         "P. Giannozzi et al., J. Chem. Phys. 152 154105 (2020);
          URL http://www.quantum-espresso.org", 
     in publications or presentations arising from this work. More details at
     http://www.quantum-espresso.org/quote

     Parallel version (MPI & OpenMP), running on      48 processor cores
     Number of MPI processes:                48
     Threads/MPI process:                     1

     MPI processes distributed on     1 nodes
     20444 MiB available memory on the printing compute node when the environment starts
 
     Waiting for input...
     Reading input from standard input
Warning: card &CELL ignored
Warning: card CELL_DYNAMICS = 'BFGS', ignored
Warning: card CELL_DOFREE = '2DXY' ignored
Warning: card / ignored

     Current dimensions of program PWSCF are:
     Max number of different atomic species (ntypx) = 10
     Max number of k-points (npk) =  40000
     Max angular momentum in pseudopotentials (lmaxx) =  4

     IMPORTANT: XC functional enforced from input :
     Exchange-correlation= RVV10
                           (   1   4  13   4  26   0   0)
     Any further DFT definition will be discarded
     Please, verify this is what you really want


     gamma-point specific algorithms are used
     signal trapping enabled: kill the code with -SIGUSR1 to stop cleanly the simulation 
 
     R & G space division:  proc/nbgrp/npool/nimage =      48
     Subspace diagonalization in iterative solution of the eigenvalue problem:
     one sub-group per band group will be used
     scalapack distributed-memory algorithm (size of sub-group:  2*  2 procs)

 
     Parallelization info
     --------------------
     sticks:   dense  smooth     PW     G-vecs:    dense   smooth      PW
     Min         243     194     47                49060    35090    4376
     Max         246     196     50                49086    35128    4410
     Sum       11735    9389   2349              2355467  1685513  210763
 
     Using Slab Decomposition
 


     bravais-lattice index     =            0
     lattice parameter (alat)  =      17.8707  a.u.
     unit-cell volume          =   17436.2743 (a.u.)^3
     number of atoms/cell      =           36
     number of atomic types    =            3
     number of electrons       =       307.00
     number of Kohn-Sham states=          185
     kinetic-energy cutoff     =      80.0000  Ry
     charge density cutoff     =     400.0000  Ry
     scf convergence threshold =      1.0E-06
     mixing beta               =       0.7000
     number of iterations used =            8  local-TF  mixing
     energy convergence thresh.=      1.0E-04
     force convergence thresh. =      1.0E-02
     Exchange-correlation= RVV10
                           (   1   4  13   4  26   0   0)
     nstep                     =          200


     celldm(1)=  17.870686  celldm(2)=   0.000000  celldm(3)=   0.000000
     celldm(4)=   0.000000  celldm(5)=   0.000000  celldm(6)=   0.000000

     crystal axes: (cart. coord. in units of alat)
               a(1) = (   1.000000   0.000000   0.000000 )  
               a(2) = (   0.000000   1.155671   0.000000 )  
               a(3) = (   0.000000   0.000000   2.643601 )  

     reciprocal axes: (cart. coord. in units 2 pi/alat)
               b(1) = (  1.000000  0.000000  0.000000 )  
               b(2) = (  0.000000  0.865298  0.000000 )  
               b(3) = (  0.000000  0.000000  0.378272 )  


     PseudoPot. # 1 for Mo read from file:
     ../pseudo/Mo_ONCV_PBE-1.0.oncvpsp.upf
     MD5 check sum: 1b5d28e075c9ccadda658a603575cd1f
     Pseudo is Norm-conserving, Zval = 14.0
     Generated using ONCVPSP code by D. R. Hamann
     Using radial grid of 1526 points,  6 beta functions with: 
                l(1) =   0
                l(2) =   0
                l(3) =   1
                l(4) =   1
                l(5) =   2
                l(6) =   2

     PseudoPot. # 2 for S  read from file:
     ../pseudo/s_pbe_v1.4.uspp.F.UPF
     MD5 check sum: 88d86576ff6df21479756cfb9bdac1df
     Pseudo is Ultrasoft + core correction, Zval =  6.0
     Generated by new atomic code, or converted to UPF format
     Using radial grid of  907 points,  6 beta functions with: 
                l(1) =   0
                l(2) =   0
                l(3) =   1
                l(4) =   1
                l(5) =   2
                l(6) =   2
     Q(r) pseudized with  8 coefficients,  rinner =    1.300   1.300   1.300
                                                       1.300   1.300

     PseudoPot. # 3 for H  read from file:
     ../pseudo/H_ONCV_PBE-1.0.oncvpsp.upf
     MD5 check sum: 1790becc920ee074925cf490c71280fe
     Pseudo is Norm-conserving, Zval =  1.0
     Generated using ONCVPSP code by D. R. Hamann
     Using radial grid of 1166 points,  2 beta functions with: 
                l(1) =   0
                l(2) =   0

     atomic species   valence    mass     pseudopotential
        Mo            14.00    95.94000     Mo( 1.00)
        S              6.00    32.06500     S ( 1.00)
        H              1.00     1.00794     H ( 1.00)

     No symmetry found



   Cartesian axes

     site n.     atom                  positions (alat units)
         1           Mo  tau(   1) = (   0.6952221   0.1890506   0.2985846  )
         2           S   tau(   2) = (   0.8646417   0.0856217   0.4689279  )
         3           S   tau(   3) = (   0.8663890   0.0857843   0.1351291  )
         4           Mo  tau(   4) = (   0.8560186   0.4753274   0.2873942  )
         5           S   tau(   5) = (   0.6873294   0.3936244   0.4596353  )
         6           S   tau(   6) = (   0.6929804   0.3713468   0.1185692  )
         7           Mo  tau(   7) = (   0.6862796   0.7633098   0.2825370  )
         8           S   tau(   8) = (   0.8545980   0.6708292   0.4486168  )
         9           S   tau(   9) = (   0.8545123   0.6666874   0.1146125  )
        10           Mo  tau(  10) = (   0.8629403   1.0471007   0.3006803  )
        11           S   tau(  11) = (   0.6868280   0.9456650   0.4634891  )
        12           S   tau(  12) = (   0.6998113   0.9568511   0.1205389  )
        13           Mo  tau(  13) = (   0.3618216   0.1847309   0.2935964  )
        14           S   tau(  14) = (   0.5260962   0.0863870   0.4600448  )
        15           S   tau(  15) = (   0.5348379   0.0894875   0.1297123  )
        16           Mo  tau(  16) = (   0.5265817   0.4772436   0.2784130  )
        17           S   tau(  17) = (   0.3624753   0.3882513   0.4525556  )
        18           S   tau(  18) = (   0.3635411   0.3752055   0.1119148  )
        19           Mo  tau(  19) = (   0.3652268   0.7630864   0.2781795  )
        20           S   tau(  20) = (   0.5269494   0.6690381   0.1096838  )
        21           Mo  tau(  21) = (   0.5300192   1.0470394   0.2900995  )
        22           S   tau(  22) = (   0.3670346   0.9457522   0.4574073  )
        23           S   tau(  23) = (   0.3604225   0.9585725   0.1159032  )
        24           Mo  tau(  24) = (   0.0313099   0.1847895   0.3013130  )
        25           S   tau(  25) = (   0.1956761   0.0838230   0.4650863  )
        26           S   tau(  26) = (   0.1967693   0.0903508   0.1278874  )
        27           Mo  tau(  27) = (   0.1967578   0.4753919   0.2813011  )
        28           S   tau(  28) = (   0.0287851   0.3864324   0.4586755  )
        29           S   tau(  29) = (   0.0244514   0.3729871   0.1239344  )
        30           Mo  tau(  30) = (   0.0286728   0.7631204   0.2856894  )
        31           S   tau(  31) = (   0.2011512   0.6675435   0.4465001  )
        32           S   tau(  32) = (   0.1969214   0.6672839   0.1104564  )
        33           Mo  tau(  33) = (   0.1950294   1.0511147   0.2932237  )
        34           S   tau(  34) = (   0.0312912   0.9612169   0.4667423  )
        35           S   tau(  35) = (   0.0292670   0.9563028   0.1216485  )
        36           H   tau(  36) = (   0.7777778   0.8988550   0.5656742  )

     number of k points=     1  Gaussian smearing, width (Ry)=  0.0100
                       cart. coord. in units 2pi/alat
        k(    1) = (   0.0000000   0.0000000   0.0000000), wk =   2.0000000

     Dense  grid:  1177734 G-vectors     FFT dimensions: ( 120, 135, 320)

     Smooth grid:   842757 G-vectors     FFT dimensions: ( 108, 120, 270)

     Estimated max dynamical RAM per process >     146.59 MB

     Estimated total dynamical RAM >       6.87 GB

     Initial potential from superposition of free atoms

     starting charge     306.9873, renormalised to     307.0000

     negative rho (up, down):  1.409E-04 0.000E+00


---------------------------------------------------------------------------------
Carrying out rVV10 run using the following parameters:
Nqs =      20    Nr_points =    1024   r_max =   100.000
b_value =  6.30000    beta =  0.00901
     q_mesh =  0.00010000  0.00030000  0.00058939  0.00100810
               0.00161396  0.00249058  0.00375900  0.00559430
               0.00824984  0.01209221  0.01765183  0.02569619
               0.03733578  0.05417739  0.07854596  0.11380545
               0.16482331  0.23864234  0.34545298  0.50000000

Gradients computed in Reciprocal space

---------------------------------------------------------------------------------


     Starting wfcs are  213 randomized atomic wfcs

     total cpu time spent up to now is        2.8 secs

     Self-consistent Calculation

     iteration #  1     ecut=    80.00 Ry     beta= 0.70
     Davidson diagonalization with overlap
     ethr =  1.00E-02,  avg # of iterations =  2.0

     Threshold (ethr) on eigenvalues was too large:
     Diagonalizing with lowered threshold

     Davidson diagonalization with overlap
     ethr =  3.68E-04,  avg # of iterations =  4.0

     negative rho (up, down):  1.894E-08 0.000E+00

     total cpu time spent up to now is       17.6 secs

     total energy              =   -2205.62535410 Ry
     estimated scf accuracy    <       1.41036508 Ry

     iteration #  2     ecut=    80.00 Ry     beta= 0.70
     Davidson diagonalization with overlap
     ethr =  4.59E-04,  avg # of iterations =  1.0

     total cpu time spent up to now is       20.0 secs

     total energy              =   -2205.46164768 Ry
     estimated scf accuracy    <       0.58366806 Ry

     iteration #  3     ecut=    80.00 Ry     beta= 0.70
     Davidson diagonalization with overlap
     ethr =  1.90E-04,  avg # of iterations =  3.0

     total cpu time spent up to now is       22.5 secs

     total energy              =   -2205.54774473 Ry
     estimated scf accuracy    <       0.07312544 Ry

     iteration #  4     ecut=    80.00 Ry     beta= 0.70
     Davidson diagonalization with overlap
     c_bands:  2 eigenvalues not converged
     ethr =  2.38E-05,  avg # of iterations = 20.0

     total cpu time spent up to now is       25.9 secs

     total energy              =   -2205.55244842 Ry
     estimated scf accuracy    <       0.02967109 Ry

     iteration #  5     ecut=    80.00 Ry     beta= 0.70
     Davidson diagonalization with overlap
     ethr =  9.66E-06,  avg # of iterations = 10.0

     total cpu time spent up to now is       28.4 secs

     total energy              =   -2205.55259568 Ry
     estimated scf accuracy    <       0.01916667 Ry

     iteration #  6     ecut=    80.00 Ry     beta= 0.70
     Davidson diagonalization with overlap
     ethr =  6.24E-06,  avg # of iterations =  1.0

     total cpu time spent up to now is       30.7 secs

     total energy              =   -2205.55152167 Ry
     estimated scf accuracy    <       0.01357818 Ry

     iteration #  7     ecut=    80.00 Ry     beta= 0.70
     Davidson diagonalization with overlap
     ethr =  4.42E-06,  avg # of iterations =  1.0

     negative rho (up, down):  5.649E-05 0.000E+00

     total cpu time spent up to now is       35.9 secs

     total energy              =   -2205.54921013 Ry
     estimated scf accuracy    <       0.00851154 Ry

     iteration #  8     ecut=    80.00 Ry     beta= 0.70
     Davidson diagonalization with overlap
     ethr =  2.77E-06,  avg # of iterations =  2.0

     negative rho (up, down):  1.025E-02 0.000E+00

     total cpu time spent up to now is       40.2 secs

     total energy              =   -2205.54927704 Ry
     estimated scf accuracy    <       0.00387564 Ry

     iteration #  9     ecut=    80.00 Ry     beta= 0.70
     Davidson diagonalization with overlap
     ethr =  1.26E-06,  avg # of iterations =  2.0

     negative rho (up, down):  3.213E-02 0.000E+00

     total cpu time spent up to now is       44.5 secs

     total energy              =   -2205.54897226 Ry
     estimated scf accuracy    <       0.00245800 Ry

     iteration # 10     ecut=    80.00 Ry     beta= 0.70
     Davidson diagonalization with overlap
     ethr =  8.01E-07,  avg # of iterations =  2.0

     negative rho (up, down):  3.093E-02 0.000E+00

     total cpu time spent up to now is       48.7 secs

     total energy              =   -2205.54911519 Ry
     estimated scf accuracy    <       0.00078002 Ry

     iteration # 11     ecut=    80.00 Ry     beta= 0.70
     Davidson diagonalization with overlap
     ethr =  2.54E-07,  avg # of iterations =  2.0

     negative rho (up, down):  1.376E-02 0.000E+00

     total cpu time spent up to now is       54.2 secs

     total energy              =   -2205.54910039 Ry
     estimated scf accuracy    <       0.00027510 Ry

     iteration # 12     ecut=    80.00 Ry     beta= 0.70
     Davidson diagonalization with overlap
     ethr =  8.96E-08,  avg # of iterations =  2.0

     negative rho (up, down):  3.568E-03 0.000E+00

     total cpu time spent up to now is       61.0 secs

     total energy              =   -2205.54915875 Ry
     estimated scf accuracy    <       0.00005137 Ry

     iteration # 13     ecut=    80.00 Ry     beta= 0.70
     Davidson diagonalization with overlap
     ethr =  1.67E-08,  avg # of iterations = 10.0

     negative rho (up, down):  1.570E-03 0.000E+00

     total cpu time spent up to now is       71.0 secs

     total energy              =   -2205.54917737 Ry
     estimated scf accuracy    <       0.00000831 Ry

     iteration # 14     ecut=    80.00 Ry     beta= 0.70
     Davidson diagonalization with overlap
     ethr =  2.71E-09,  avg # of iterations =  2.0

     negative rho (up, down):  3.508E-04 0.000E+00

     total cpu time spent up to now is       80.6 secs

     total energy              =   -2205.54917712 Ry
     estimated scf accuracy    <       0.00000254 Ry

     iteration # 15     ecut=    80.00 Ry     beta= 0.70
     Davidson diagonalization with overlap
     ethr =  8.26E-10,  avg # of iterations =  2.0

     negative rho (up, down):  1.372E-04 0.000E+00

     total cpu time spent up to now is       82.9 secs

     End of self-consistent calculation

          k = 0.0000 0.0000 0.0000 (105382 PWs)   bands (ev):

   -62.8480 -62.8334 -62.8204 -62.8142 -62.8033 -62.7998 -62.7886 -62.7578
   -62.7466 -62.7023 -62.6661 -62.6160 -37.1767 -37.1195 -37.1079 -37.0941
   -37.0915 -37.0717 -37.0569 -37.0352 -37.0325 -37.0261 -37.0172 -37.0021
   -36.9922 -36.9900 -36.9802 -36.9760 -36.9674 -36.9618 -36.9566 -36.9383
   -36.9139 -36.9005 -36.8809 -36.8757 -36.8651 -36.8574 -36.8441 -36.8296
   -36.8222 -36.8167 -36.8109 -36.7860 -36.7647 -36.7603 -36.6704 -36.6073
   -16.2268 -15.6876 -15.0916 -15.0432 -14.8673 -14.8627 -14.6392 -14.4401
   -14.4244 -14.3898 -14.3527 -14.3081 -14.2778 -14.2333 -14.1573 -14.0772
   -14.0643 -14.0514 -13.9794 -13.8544 -13.8129 -13.7886 -13.7545  -8.9659
    -7.5805  -7.4215  -7.2595  -7.2263  -7.1976  -7.1655  -7.1027  -7.0356
    -6.8344  -6.7537  -6.7023  -6.6713  -6.6036  -6.4802  -6.4568  -6.3878
    -6.2728  -6.2304  -6.1692  -5.9433  -5.8947  -5.8644  -5.7924  -5.7504
    -5.7099  -5.6842  -5.6405  -5.6029  -5.5805  -5.4943  -5.4854  -5.4416
    -5.4044  -5.3573  -5.1590  -5.1063  -5.0206  -4.9748  -4.9404  -4.8872
    -4.8735  -4.8023  -4.6535  -4.6071  -4.4445  -4.2745  -4.2586  -4.1780
    -4.1331  -4.0686  -3.9769  -3.8240  -3.7836  -3.7617  -3.7009  -3.6521
    -3.6052  -3.5433  -3.5009  -3.4945  -3.4445  -3.4145  -3.3818  -3.3377
    -3.3187  -3.1789  -3.0826  -2.9017  -2.8525  -2.7925  -2.7240  -2.6872
    -2.6667  -2.6103  -2.5997  -2.5830  -2.5147  -2.2290  -1.9718  -1.9494
    -1.8758  -0.9957  -0.7547  -0.4328  -0.1470  -0.0996  -0.0409   0.0535
     0.0633   0.1857   0.1925   0.2558   0.2783   0.3411   0.3950   0.4898
     0.5441   0.5685   0.5889   0.6239   0.6813   0.7093   0.7422   0.7881
     0.8183   0.8267   0.8823   0.9297   0.9987   1.0247   1.0938   1.3093
     1.3945

     the Fermi energy is    -0.9971 ev

!    total energy              =   -2205.54917738 Ry
     estimated scf accuracy    <       0.00000086 Ry
     smearing contrib. (-TS)   =      -0.00587699 Ry
     internal energy E=F+TS    =   -2205.54330039 Ry

     The total energy is F=E-TS. E is the sum of the following terms:
     one-electron contribution =  -18048.56970834 Ry
     hartree contribution      =    9011.46371882 Ry
     xc contribution           =    -385.36192269 Ry
     ewald contribution        =    7216.92461182 Ry

     convergence has been achieved in  15 iterations

     negative rho (up, down):  1.372E-04 0.000E+00

     Forces acting on atoms (cartesian axes, Ry/au):

     atom    1 type  1   force =     0.01532292   -0.02481881    0.00721704
     atom    2 type  2   force =    -0.01480328    0.01820031    0.00155367
     atom    3 type  2   force =    -0.01255455    0.00972909   -0.00175525
     atom    4 type  1   force =     0.00336968    0.00383052   -0.00261178
     atom    5 type  2   force =    -0.00103326   -0.00837661   -0.00635891
     atom    6 type  2   force =     0.00257183    0.01134052   -0.00054644
     atom    7 type  1   force =     0.01708007   -0.02004170   -0.01156614
     atom    8 type  2   force =    -0.00208551   -0.00155333    0.02019892
     atom    9 type  2   force =     0.01148170    0.00611091    0.01067796
     atom   10 type  1   force =    -0.00333334    0.01689256   -0.03927951
     atom   11 type  2   force =     0.02900840   -0.02979934    0.00787302
     atom   12 type  2   force =    -0.00382566    0.00476940    0.00706491
     atom   13 type  1   force =     0.00423253    0.01021671   -0.00659335
     atom   14 type  2   force =     0.00658622    0.00351975    0.01182592
     atom   15 type  2   force =    -0.01353251    0.00019991   -0.00814462
     atom   16 type  1   force =    -0.00279171    0.01205069    0.00842050
     atom   17 type  2   force =     0.00541172    0.00026188    0.00200828
     atom   18 type  2   force =    -0.00321759   -0.00662041    0.01209505
     atom   19 type  1   force =    -0.00288085   -0.00926230   -0.01092331
     atom   20 type  2   force =     0.00315496   -0.00405613   -0.00038864
     atom   21 type  1   force =    -0.04227838    0.01560481   -0.04175215
     atom   22 type  2   force =    -0.00894094   -0.00203264    0.00012276
     atom   23 type  2   force =     0.00409192    0.00593802    0.01262442
     atom   24 type  1   force =    -0.00877599   -0.00403919   -0.02067022
     atom   25 type  2   force =     0.01711464    0.01824913    0.00771284
     atom   26 type  2   force =    -0.01040990   -0.00186663   -0.00435131
     atom   27 type  1   force =    -0.00061254    0.00046058    0.00688271
     atom   28 type  2   force =     0.00085256   -0.00152408   -0.00550194
     atom   29 type  2   force =     0.00222049   -0.00032004   -0.00207403
     atom   30 type  1   force =    -0.00316333    0.01345689   -0.00694846
     atom   31 type  2   force =     0.00260059    0.00026184    0.01746419
     atom   32 type  2   force =    -0.00830175    0.00607602    0.00800807
     atom   33 type  1   force =     0.01258717   -0.00390363   -0.00633864
     atom   34 type  2   force =     0.00258045   -0.04317556   -0.01221802
     atom   35 type  2   force =    -0.00942932    0.00622949    0.01489305
     atom   36 type  3   force =     0.01170255   -0.00200865    0.03137943
     The non-local contrib.  to forces
     atom    1 type  1   force =    -0.00181523    0.03490971   -0.01072308
     atom    2 type  2   force =    -0.01013259   -0.00224303   -0.26512950
     atom    3 type  2   force =    -0.01314726   -0.00302253    0.27155529
     atom    4 type  1   force =     0.00193176    0.00236598    0.00219287
     atom    5 type  2   force =     0.00266269   -0.03539239   -0.25338205
     atom    6 type  2   force =     0.00113612    0.01194006    0.26118638
     atom    7 type  1   force =    -0.03541449    0.00805852   -0.01254981
     atom    8 type  2   force =     0.00841962    0.00133222   -0.23683486
     atom    9 type  2   force =     0.00456235   -0.00470285    0.27777033
     atom   10 type  1   force =     0.00184785    0.00336740    0.00196728
     atom   11 type  2   force =     0.21469823   -0.07878094    0.03788810
     atom   12 type  2   force =    -0.00830384   -0.01818195    0.26811110
     atom   13 type  1   force =     0.00012348    0.01820843   -0.00576220
     atom   14 type  2   force =     0.00614648   -0.00314678   -0.25593345
     atom   15 type  2   force =    -0.01368286   -0.01007722    0.26290586
     atom   16 type  1   force =     0.00033906    0.03554121   -0.03089262
     atom   17 type  2   force =     0.00165682   -0.02706292   -0.24878016
     atom   18 type  2   force =    -0.00472454   -0.00400988    0.27169980
     atom   19 type  1   force =     0.02022994    0.00072621   -0.01211929
     atom   20 type  2   force =    -0.00054364   -0.02353170    0.26489210
     atom   21 type  1   force =     0.01338409    0.02026216   -0.00339128
     atom   22 type  2   force =    -0.02545638    0.00116567   -0.24577681
     atom   23 type  2   force =     0.01066110   -0.00959066    0.27140522
     atom   24 type  1   force =     0.00889228    0.01716231   -0.00965621
     atom   25 type  2   force =     0.00940361    0.00637231   -0.25916836
     atom   26 type  2   force =    -0.00174974   -0.01299157    0.26428215
     atom   27 type  1   force =    -0.00255168    0.00766477    0.00995645
     atom   28 type  2   force =    -0.00446963   -0.02461092   -0.27490430
     atom   29 type  2   force =     0.00656420    0.00191254    0.26389025
     atom   30 type  1   force =     0.00117069    0.01660439    0.01073331
     atom   31 type  2   force =    -0.00815851    0.00257849   -0.25078721
     atom   32 type  2   force =    -0.00210622   -0.00722994    0.27405926
     atom   33 type  1   force =    -0.00352603    0.00909962    0.00364006
     atom   34 type  2   force =     0.00138470   -0.03879666   -0.25885852
     atom   35 type  2   force =    -0.00336479   -0.00908811    0.27126676
     atom   36 type  3   force =    -0.03740980    0.01986273   -0.04147094
     The ionic contribution  to forces
     atom    1 type  1   force =     0.35160055    0.36986671    5.63743681
     atom    2 type  2   force =    -0.60692446    0.62390932   39.23340424
     atom    3 type  2   force =    -0.15178170    0.06131504  -36.11716261
     atom    4 type  1   force =     0.12876089    0.41983326    0.59426263
     atom    5 type  2   force =    -0.98661741    1.44325222   38.74133106
     atom    6 type  2   force =     0.33958696   -0.51102195  -38.02777553
     atom    7 type  1   force =    -2.81537087   -3.08622131    1.98722422
     atom    8 type  2   force =    -0.84571772   -0.39253459   37.19016615
     atom    9 type  2   force =     0.35575270   -0.08204842  -38.06332536
     atom   10 type  1   force =    -0.88905357    0.06950031    5.05330669
     atom   11 type  2   force =    -1.67761358   -1.02710842   37.89903974
     atom   12 type  2   force =     0.42021318    0.71260341  -37.96157463
     atom   13 type  1   force =     0.44972416    1.05088449    2.85657647
     atom   14 type  2   force =    -0.02031469    0.11259830   38.49682142
     atom   15 type  2   force =     0.13763625   -0.03030130  -36.81983880
     atom   16 type  1   force =    -0.09112668    3.83969866    0.44811433
     atom   17 type  2   force =     0.79632202    1.47885576   37.93887205
     atom   18 type  2   force =    -0.16641646   -0.65252734  -38.55451936
     atom   19 type  1   force =     2.62370983   -2.52198423    0.55614294
     atom   20 type  2   force =     0.20273053   -0.22924901  -38.51083069
     atom   21 type  1   force =    -0.21588376    0.23459642    0.90373979
     atom   22 type  2   force =     0.35643580   -1.69066432   38.39753420
     atom   23 type  2   force =    -0.10341582    0.67520303  -38.31494034
     atom   24 type  1   force =    -0.48260231    1.24039828    5.81388594
     atom   25 type  2   force =     0.68908693    0.34614677   39.26670581
     atom   26 type  2   force =    -0.27981448    0.08799530  -37.33298835
     atom   27 type  1   force =     0.05511354    0.33409002   -2.25401957
     atom   28 type  2   force =     0.08387656    0.97379991   38.20752929
     atom   29 type  2   force =    -0.25407697   -0.43663879  -37.26156826
     atom   30 type  1   force =    -0.08500053   -1.06299187   -0.30262921
     atom   31 type  2   force =     1.27534221   -0.12364889   37.31097263
     atom   32 type  2   force =    -0.46915681   -0.02820420  -38.64646007
     atom   33 type  1   force =     0.88627666   -0.76017256    1.97926656
     atom   34 type  2   force =     0.62754843   -1.33621469   39.20966728
     atom   35 type  2   force =    -0.25986502    0.49165064  -37.87548157
     atom   36 type  3   force =     0.62103564   -0.59466598    8.32111409
     The local contribution  to forces
     atom    1 type  1   force =    -0.33442000   -0.42945524   -5.61830479
     atom    2 type  2   force =     0.60195543   -0.60363971  -38.98681670
     atom    3 type  2   force =     0.15179703   -0.04857182   35.86538699
     atom    4 type  1   force =    -0.12732604   -0.41827032   -0.59791555
     atom    5 type  2   force =     0.98338645   -1.41820859  -38.51434403
     atom    6 type  2   force =    -0.33829715    0.51159401   37.78736570
     atom    7 type  1   force =     2.86800716    3.05801868   -1.98511335
     atom    8 type  2   force =     0.83538667    0.38973290  -36.95218964
     atom    9 type  2   force =    -0.34885584    0.09251593   37.81782710
     atom   10 type  1   force =     0.88391206   -0.05606904   -5.09333945
     atom   11 type  2   force =     1.50602599    1.07057466  -37.93059445
     atom   12 type  2   force =    -0.41662492   -0.69115885   37.72216877
     atom   13 type  1   force =    -0.44566218   -1.05872227   -2.85620878
     atom   14 type  2   force =     0.02117632   -0.10566445  -38.24895573
     atom   15 type  2   force =    -0.13821250    0.04011647   36.56994290
     atom   16 type  1   force =     0.08806852   -3.86323966   -0.40766363
     atom   17 type  2   force =    -0.79261132   -1.45299029  -37.70790167
     atom   18 type  2   force =     0.16781782    0.65036461   38.31637445
     atom   19 type  1   force =    -2.64678583    2.51188737   -0.55383901
     atom   20 type  2   force =    -0.19907760    0.24782560   38.26725658
     atom   21 type  1   force =     0.16025983   -0.23928358   -0.94099123
     atom   22 type  2   force =    -0.34091745    1.68783202  -38.17109550
     atom   23 type  2   force =     0.09754644   -0.66065306   38.07767233
     atom   24 type  1   force =     0.46494227   -1.26152990   -5.82365375
     atom   25 type  2   force =    -0.68130653   -0.33378375  -39.02009294
     atom   26 type  2   force =     0.27135148   -0.07757214   37.08582361
     atom   27 type  1   force =    -0.05322346   -0.34133326    2.25209515
     atom   28 type  2   force =    -0.07884499   -0.95250330  -37.95872865
     atom   29 type  2   force =     0.25030710    0.43500898   37.01676764
     atom   30 type  1   force =     0.08049874    1.05975146    0.28607664
     atom   31 type  2   force =    -1.26514514    0.12128373  -37.06273225
     atom   32 type  2   force =     0.46307954    0.04097649   38.40195938
     atom   33 type  1   force =    -0.87027409    0.74722862   -1.98803204
     atom   34 type  2   force =    -0.62694045    1.33060062  -38.98300556
     atom   35 type  2   force =     0.25382691   -0.47725446   37.64076620
     atom   36 type  3   force =    -0.57191963    0.57278991   -8.24820991
     The core correction contribution to forces
     atom    1 type  1   force =     0.00000000    0.00000000    0.00000000
     atom    2 type  2   force =     0.00032561    0.00019340    0.02040409
     atom    3 type  2   force =     0.00058787    0.00003482   -0.02096392
     atom    4 type  1   force =     0.00000000    0.00000000    0.00000000
     atom    5 type  2   force =    -0.00045592    0.00196799    0.02035828
     atom    6 type  2   force =     0.00013677   -0.00112780   -0.02079323
     atom    7 type  1   force =     0.00000000    0.00000000    0.00000000
     atom    8 type  2   force =    -0.00020837   -0.00008923    0.01930749
     atom    9 type  2   force =    -0.00003713    0.00035772   -0.02100621
     atom   10 type  1   force =     0.00000000    0.00000000    0.00000000
     atom   11 type  2   force =    -0.01402091    0.00542734    0.00183298
     atom   12 type  2   force =     0.00094150    0.00136253   -0.02108178
     atom   13 type  1   force =     0.00000000    0.00000000    0.00000000
     atom   14 type  2   force =    -0.00043851   -0.00017284    0.02026954
     atom   15 type  2   force =     0.00071807    0.00054590   -0.02064158
     atom   16 type  1   force =     0.00000000    0.00000000    0.00000000
     atom   17 type  2   force =     0.00002193    0.00142830    0.02017037
     atom   18 type  2   force =     0.00010314   -0.00043051   -0.02092476
     atom   19 type  1   force =     0.00000000    0.00000000    0.00000000
     atom   20 type  2   force =     0.00013297    0.00088387   -0.02116136
     atom   21 type  1   force =     0.00000000    0.00000000    0.00000000
     atom   22 type  2   force =     0.00094070   -0.00036448    0.01982371
     atom   23 type  2   force =    -0.00073501    0.00093954   -0.02103364
     atom   24 type  1   force =     0.00000000    0.00000000    0.00000000
     atom   25 type  2   force =    -0.00008555   -0.00044608    0.02060481
     atom   26 type  2   force =    -0.00019198    0.00073310   -0.02089532
     atom   27 type  1   force =     0.00000000    0.00000000    0.00000000
     atom   28 type  2   force =     0.00030233    0.00178405    0.02095264
     atom   29 type  2   force =    -0.00055922   -0.00056011   -0.02061035
     atom   30 type  1   force =     0.00000000    0.00000000    0.00000000
     atom   31 type  2   force =     0.00051318   -0.00001953    0.02036202
     atom   32 type  2   force =    -0.00014778    0.00047933   -0.02103998
     atom   33 type  1   force =     0.00000000    0.00000000    0.00000000
     atom   34 type  2   force =     0.00057010    0.00125121    0.02028611
     atom   35 type  2   force =    -0.00004484    0.00088157   -0.02111428
     atom   36 type  3   force =     0.00000000    0.00000000    0.00000000
     The Hubbard contrib.    to forces
     atom    1 type  1   force =     0.00000000    0.00000000    0.00000000
     atom    2 type  2   force =     0.00000000    0.00000000    0.00000000
     atom    3 type  2   force =     0.00000000    0.00000000    0.00000000
     atom    4 type  1   force =     0.00000000    0.00000000    0.00000000
     atom    5 type  2   force =     0.00000000    0.00000000    0.00000000
     atom    6 type  2   force =     0.00000000    0.00000000    0.00000000
     atom    7 type  1   force =     0.00000000    0.00000000    0.00000000
     atom    8 type  2   force =     0.00000000    0.00000000    0.00000000
     atom    9 type  2   force =     0.00000000    0.00000000    0.00000000
     atom   10 type  1   force =     0.00000000    0.00000000    0.00000000
     atom   11 type  2   force =     0.00000000    0.00000000    0.00000000
     atom   12 type  2   force =     0.00000000    0.00000000    0.00000000
     atom   13 type  1   force =     0.00000000    0.00000000    0.00000000
     atom   14 type  2   force =     0.00000000    0.00000000    0.00000000
     atom   15 type  2   force =     0.00000000    0.00000000    0.00000000
     atom   16 type  1   force =     0.00000000    0.00000000    0.00000000
     atom   17 type  2   force =     0.00000000    0.00000000    0.00000000
     atom   18 type  2   force =     0.00000000    0.00000000    0.00000000
     atom   19 type  1   force =     0.00000000    0.00000000    0.00000000
     atom   20 type  2   force =     0.00000000    0.00000000    0.00000000
     atom   21 type  1   force =     0.00000000    0.00000000    0.00000000
     atom   22 type  2   force =     0.00000000    0.00000000    0.00000000
     atom   23 type  2   force =     0.00000000    0.00000000    0.00000000
     atom   24 type  1   force =     0.00000000    0.00000000    0.00000000
     atom   25 type  2   force =     0.00000000    0.00000000    0.00000000
     atom   26 type  2   force =     0.00000000    0.00000000    0.00000000
     atom   27 type  1   force =     0.00000000    0.00000000    0.00000000
     atom   28 type  2   force =     0.00000000    0.00000000    0.00000000
     atom   29 type  2   force =     0.00000000    0.00000000    0.00000000
     atom   30 type  1   force =     0.00000000    0.00000000    0.00000000
     atom   31 type  2   force =     0.00000000    0.00000000    0.00000000
     atom   32 type  2   force =     0.00000000    0.00000000    0.00000000
     atom   33 type  1   force =     0.00000000    0.00000000    0.00000000
     atom   34 type  2   force =     0.00000000    0.00000000    0.00000000
     atom   35 type  2   force =     0.00000000    0.00000000    0.00000000
     atom   36 type  3   force =     0.00000000    0.00000000    0.00000000
     The SCF correction term to forces
     atom    1 type  1   force =    -0.00004210   -0.00014399   -0.00115902
     atom    2 type  2   force =    -0.00002697   -0.00002368   -0.00027559
     atom    3 type  2   force =    -0.00001018   -0.00003043   -0.00053813
     atom    4 type  1   force =     0.00000336   -0.00010241   -0.00111885
     atom    5 type  2   force =    -0.00000876    0.00000016   -0.00028930
     atom    6 type  2   force =     0.00000944   -0.00004781   -0.00049688
     atom    7 type  1   force =    -0.00014141    0.00009841   -0.00109433
     atom    8 type  2   force =     0.00003460    0.00000135   -0.00021734
     atom    9 type  2   force =     0.00005992   -0.00001549   -0.00055503
     atom   10 type  1   force =    -0.00003937    0.00008988   -0.00118116
     atom   11 type  2   force =    -0.00008103    0.00008401   -0.00026047
     atom   12 type  2   force =    -0.00005128    0.00014024   -0.00052567
     atom   13 type  1   force =     0.00004737   -0.00015795   -0.00116597
     atom   14 type  2   force =     0.00001690   -0.00009849   -0.00034299
     atom   15 type  2   force =     0.00000883   -0.00008796   -0.00048011
     atom   16 type  1   force =    -0.00007230    0.00004647   -0.00110471
     atom   17 type  2   force =     0.00002258    0.00002703   -0.00031944
     atom   18 type  2   force =     0.00000276   -0.00002130   -0.00050221
     atom   19 type  1   force =    -0.00003449    0.00010433   -0.00107507
     atom   20 type  2   force =    -0.00008700    0.00001109   -0.00051239
     atom   21 type  1   force =    -0.00003823    0.00002580   -0.00107655
     atom   22 type  2   force =     0.00005669   -0.00000554   -0.00032997
     atom   23 type  2   force =     0.00003552    0.00003515   -0.00044627
     atom   24 type  1   force =    -0.00000793   -0.00007389   -0.00121333
     atom   25 type  2   force =     0.00001647   -0.00004412   -0.00030361
     atom   26 type  2   force =    -0.00000488   -0.00003533   -0.00054052
     atom   27 type  1   force =     0.00004936    0.00003503   -0.00111645
     atom   28 type  2   force =    -0.00001140    0.00000217   -0.00031804
     atom   29 type  2   force =    -0.00001431   -0.00004666   -0.00052042
     atom   30 type  1   force =     0.00016808    0.00008890   -0.00109633
     atom   31 type  2   force =     0.00004916    0.00006402   -0.00031812
     atom   32 type  2   force =     0.00002982    0.00005033   -0.00047765
     atom   33 type  1   force =     0.00011093   -0.00006331   -0.00118034
     atom   34 type  2   force =     0.00001798   -0.00002005   -0.00027445
     atom   35 type  2   force =     0.00001873    0.00003583   -0.00051118
     atom   36 type  3   force =    -0.00000335    0.00000068   -0.00002093

     Total force =     0.135905     Total SCF correction =     0.004446

     BFGS Geometry Optimization
     Energy error            =      0.0E+00 Ry
     Gradient error          =      4.3E-02 Ry/Bohr

     number of scf cycles    =   1
     number of bfgs steps    =   0

     energy             new  =   -2205.5491773757 Ry

     new trust radius        =       0.0614346251 bohr
     new conv_thr            =       0.0000010000 Ry


ATOMIC_POSITIONS (angstrom)
Mo            6.5826569499        1.7746726793        2.8274621267
S             8.1688757780        0.8193352163        4.4353605185
S             8.1865895056        0.8163901583        1.2769545875
Mo            8.0969457211        4.4970839666        2.7164362966
S             6.4993624812        3.7179787772        4.3432956570
S             6.5547107514        3.5177386981        1.1209910630
Mo            6.4990200798        7.2078316749        2.6657639470
S             8.0806241234        6.3430490054        4.2531503724
S             8.0869935021        6.3079360682        1.0895135307
Mo            8.1588551221        9.9111195691        2.8226759396
S             6.5105181782        8.9271576845        4.3872717560
S             6.6159227451        9.0512350716        1.1436458913
Mo            3.4238994195        1.7523623030        2.7729821101
S             4.9786507659        0.8188037807        4.3567911013
S             5.0506726605        0.8463678987        1.2223485112
Mo            4.9782793727        4.5195549539        2.6373404866
S             3.4307054218        3.6717382682        4.2807723170
S             3.4362179061        3.5447253296        1.0647521051
Mo            3.4523372597        7.2114231416        2.6248964946
S             4.9849037279        6.3247858732        1.0370480736
Mo            4.9898911657        9.9098577630        2.7213066767
S             3.4662267745        8.9426756419        4.3256562745
S             3.4105945166        9.0681322483        1.1027488531
Mo            0.2914464317        1.7453720834        2.8385064969
S             1.8595188882        0.8023510324        4.4022908960
S             1.8552913517        0.8534381380        1.2070982396
Mo            1.8603671683        4.4959104916        2.6638395523
S             0.2726650044        3.6535923172        4.3346725962
S             0.2324062405        3.5270798694        1.1709203569
Mo            0.2694781913        7.2237671744        2.6980194586
S             1.9036144219        6.3129373933        4.2316857733
S             1.8578451190        6.3135591061        1.0487969701
Mo            1.8510075054        9.9380734436        2.7695919891
S             0.2972784168        9.0671503050        4.4074039692
S             0.2717816193        9.0468222168        1.1582818446
H             7.3614505025        8.4991926233        5.3660499865



     Writing config-only to output data dir ./MoS2-V-O.save/
     NEW-OLD atomic charge density approx. for the potential

     negative rho (up, down):  1.426E-04 0.000E+00

     total cpu time spent up to now is       86.5 secs

     Self-consistent Calculation

     iteration #  1     ecut=    80.00 Ry     beta= 0.70
     Davidson diagonalization with overlap
     ethr =  1.00E-06,  avg # of iterations =  8.0

     negative rho (up, down):  1.365E-04 0.000E+00

     total cpu time spent up to now is      100.8 secs

     total energy              =   -2205.56372912 Ry
     estimated scf accuracy    <       0.00161932 Ry

     iteration #  2     ecut=    80.00 Ry     beta= 0.70
     Davidson diagonalization with overlap
     ethr =  5.27E-07,  avg # of iterations =  5.0

     negative rho (up, down):  1.424E-04 0.000E+00

     total cpu time spent up to now is      119.4 secs

     total energy              =   -2205.56374508 Ry
     estimated scf accuracy    <       0.00034733 Ry

     iteration #  3     ecut=    80.00 Ry     beta= 0.70
     Davidson diagonalization with overlap
     ethr =  1.13E-07,  avg # of iterations =  3.0

     negative rho (up, down):  1.470E-04 0.000E+00

     total cpu time spent up to now is      134.3 secs

     total energy              =   -2205.56378631 Ry
     estimated scf accuracy    <       0.00004595 Ry

     iteration #  4     ecut=    80.00 Ry     beta= 0.70
     Davidson diagonalization with overlap
     ethr =  1.50E-08,  avg # of iterations = 10.0

     negative rho (up, down):  1.435E-04 0.000E+00

     total cpu time spent up to now is      152.2 secs

     total energy              =   -2205.56379939 Ry
     estimated scf accuracy    <       0.00000773 Ry

     iteration #  5     ecut=    80.00 Ry     beta= 0.70
     Davidson diagonalization with overlap
     ethr =  2.52E-09,  avg # of iterations =  2.0

     negative rho (up, down):  1.365E-04 0.000E+00

     total cpu time spent up to now is      164.1 secs

     total energy              =   -2205.56380024 Ry
     estimated scf accuracy    <       0.00000156 Ry

     iteration #  6     ecut=    80.00 Ry     beta= 0.70
     Davidson diagonalization with overlap
     ethr =  5.07E-10,  avg # of iterations =  5.0

     negative rho (up, down):  1.339E-04 0.000E+00

     total cpu time spent up to now is      178.5 secs

     total energy              =   -2205.56380058 Ry
     estimated scf accuracy    <       0.00000107 Ry

     iteration #  7     ecut=    80.00 Ry     beta= 0.70
     Davidson diagonalization with overlap
     ethr =  3.48E-10,  avg # of iterations =  1.0

     negative rho (up, down):  1.376E-04 0.000E+00

     total cpu time spent up to now is      180.6 secs

     End of self-consistent calculation

          k = 0.0000 0.0000 0.0000 (105382 PWs)   bands (ev):

   -62.8394 -62.8345 -62.8208 -62.8115 -62.7998 -62.7953 -62.7864 -62.7589
   -62.7428 -62.7086 -62.6638 -62.6227 -37.1740 -37.1116 -37.1045 -37.0925
   -37.0823 -37.0719 -37.0476 -37.0339 -37.0275 -37.0242 -37.0163 -37.0007
   -36.9918 -36.9861 -36.9780 -36.9722 -36.9667 -36.9602 -36.9560 -36.9398
   -36.9124 -36.8999 -36.8832 -36.8780 -36.8658 -36.8555 -36.8409 -36.8302
   -36.8194 -36.8158 -36.8114 -36.7917 -36.7690 -36.7618 -36.6731 -36.6121
   -16.1884 -15.6696 -15.0893 -15.0472 -14.8727 -14.8544 -14.6331 -14.4298
   -14.4239 -14.3887 -14.3589 -14.3169 -14.2804 -14.2372 -14.1545 -14.0789
   -14.0675 -14.0549 -13.9847 -13.8418 -13.8018 -13.7968 -13.7798  -8.9005
    -7.5787  -7.4146  -7.2476  -7.2209  -7.1920  -7.1626  -7.1145  -7.0459
    -6.8132  -6.7545  -6.6981  -6.6515  -6.6174  -6.4816  -6.4562  -6.3765
    -6.2736  -6.2277  -6.1689  -5.9406  -5.8819  -5.8705  -5.7865  -5.7521
    -5.7127  -5.6859  -5.6392  -5.6154  -5.5873  -5.4970  -5.4850  -5.4423
    -5.3872  -5.3345  -5.1463  -5.1045  -5.0162  -4.9699  -4.9444  -4.8947
    -4.8776  -4.8078  -4.6583  -4.5961  -4.4447  -4.2753  -4.2568  -4.1818
    -4.1524  -4.0735  -3.9869  -3.8238  -3.7882  -3.7647  -3.6962  -3.6531
    -3.6174  -3.5334  -3.5029  -3.4960  -3.4569  -3.4146  -3.3843  -3.3334
    -3.3220  -3.1821  -3.0833  -2.8841  -2.8462  -2.7811  -2.7262  -2.6905
    -2.6595  -2.6175  -2.6173  -2.5830  -2.5080  -2.2170  -1.9713  -1.9526
    -1.8970  -1.0371  -0.7349  -0.4342  -0.1294  -0.1046  -0.0335   0.0588
     0.0789   0.1860   0.1916   0.2596   0.2778   0.3624   0.3972   0.4903
     0.5472   0.5761   0.5970   0.6399   0.6804   0.7041   0.7550   0.7806
     0.8247   0.8410   0.8974   0.9349   1.0170   1.0334   1.0862   1.2982
     1.3980

     the Fermi energy is    -1.0373 ev

!    total energy              =   -2205.56380016 Ry
     estimated scf accuracy    <       0.00000063 Ry
     smearing contrib. (-TS)   =      -0.00568229 Ry
     internal energy E=F+TS    =   -2205.55811787 Ry

     The total energy is F=E-TS. E is the sum of the following terms:
     one-electron contribution =  -18048.84679412 Ry
     hartree contribution      =    9011.59887207 Ry
     xc contribution           =    -385.36262406 Ry
     ewald contribution        =    7217.05242825 Ry

     convergence has been achieved in   7 iterations

     negative rho (up, down):  1.376E-04 0.000E+00

     Forces acting on atoms (cartesian axes, Ry/au):

     atom    1 type  1   force =     0.00388608   -0.01382654    0.00185720
     atom    2 type  2   force =    -0.00862662    0.01105436   -0.00130522
     atom    3 type  2   force =    -0.01059345    0.00934089   -0.00982533
     atom    4 type  1   force =     0.00412867    0.00346856    0.00048477
     atom    5 type  2   force =     0.00050639   -0.00783219   -0.00581037
     atom    6 type  2   force =     0.00111663    0.00780433    0.00244771
     atom    7 type  1   force =     0.01177714   -0.01610881   -0.00353645
     atom    8 type  2   force =     0.00021773   -0.00371111    0.01357416
     atom    9 type  2   force =     0.01185340    0.00458117    0.00459367
     atom   10 type  1   force =    -0.00014836    0.01106472   -0.01276322
     atom   11 type  2   force =     0.01771537   -0.01890560   -0.00170507
     atom   12 type  2   force =    -0.00670962    0.00355040    0.00191636
     atom   13 type  1   force =     0.00350927    0.00674349   -0.00256232
     atom   14 type  2   force =     0.00397580    0.00029803    0.00538446
     atom   15 type  2   force =    -0.01120940    0.00470266   -0.01047554
     atom   16 type  1   force =    -0.00082168    0.00860456    0.00548225
     atom   17 type  2   force =     0.00442919    0.00109343    0.00288234
     atom   18 type  2   force =    -0.00209395   -0.00324137    0.01008275
     atom   19 type  1   force =    -0.00170439   -0.00499416   -0.00296918
     atom   20 type  2   force =     0.00333638   -0.00394365   -0.00305595
     atom   21 type  1   force =    -0.02166806    0.00628907   -0.01577287
     atom   22 type  2   force =    -0.00486415   -0.00169930   -0.00377368
     atom   23 type  2   force =    -0.00111015    0.00271312    0.00195791
     atom   24 type  1   force =    -0.00554407   -0.00236518   -0.00873457
     atom   25 type  2   force =     0.01199267    0.01439726    0.00092327
     atom   26 type  2   force =    -0.00680554   -0.00126086   -0.00500881
     atom   27 type  1   force =    -0.00076933    0.00070700    0.00645617
     atom   28 type  2   force =     0.00003368   -0.00266402   -0.00599489
     atom   29 type  2   force =     0.00213494    0.00134973   -0.00306380
     atom   30 type  1   force =    -0.00238786    0.00365052    0.00277920
     atom   31 type  2   force =     0.00142782    0.00076037    0.01116258
     atom   32 type  2   force =    -0.00790525    0.00469327    0.00499577
     atom   33 type  1   force =     0.00523450   -0.00161083    0.00256687
     atom   34 type  2   force =    -0.00036853   -0.03002506   -0.01767250
     atom   35 type  2   force =    -0.00633350    0.00774542    0.00596575
     atom   36 type  3   force =     0.01238827   -0.00242368    0.02851660
     The non-local contrib.  to forces
     atom    1 type  1   force =     0.00018861    0.03052954   -0.01156684
     atom    2 type  2   force =    -0.00587823   -0.00640160   -0.26490318
     atom    3 type  2   force =    -0.01039620   -0.00394946    0.26474493
     atom    4 type  1   force =     0.00283979    0.00437765    0.00139023
     atom    5 type  2   force =     0.00329318   -0.03556399   -0.25464992
     atom    6 type  2   force =     0.00048003    0.00888361    0.26411539
     atom    7 type  1   force =    -0.03528009    0.00782148   -0.01584252
     atom    8 type  2   force =     0.01146287   -0.00049406   -0.24128759
     atom    9 type  2   force =     0.00489053   -0.00623985    0.27386920
     atom   10 type  1   force =     0.00228506    0.00399127    0.00044733
     atom   11 type  2   force =     0.21657415   -0.07761336    0.03016866
     atom   12 type  2   force =    -0.01154044   -0.01807523    0.26785399
     atom   13 type  1   force =     0.00117886    0.01955811   -0.00646334
     atom   14 type  2   force =     0.00390711   -0.00257318   -0.25878561
     atom   15 type  2   force =    -0.01163693   -0.00808027    0.26081552
     atom   16 type  1   force =    -0.00099645    0.03654120   -0.03246659
     atom   17 type  2   force =     0.00110465   -0.02531982   -0.24883505
     atom   18 type  2   force =    -0.00370521   -0.00120961    0.27069508
     atom   19 type  1   force =     0.02069038    0.00184305   -0.01399933
     atom   20 type  2   force =    -0.00070162   -0.02212332    0.26326407
     atom   21 type  1   force =     0.00589026    0.02205050   -0.00423294
     atom   22 type  2   force =    -0.02373454   -0.00016485   -0.24784012
     atom   23 type  2   force =     0.00728661   -0.01209182    0.26437304
     atom   24 type  1   force =     0.00720437    0.01729768   -0.00887511
     atom   25 type  2   force =     0.00571999    0.00319414   -0.26345649
     atom   26 type  2   force =     0.00092291   -0.01212176    0.26420484
     atom   27 type  1   force =    -0.00226510    0.00729029    0.00903760
     atom   28 type  2   force =    -0.00505183   -0.02427671   -0.27592103
     atom   29 type  2   force =     0.00601224    0.00177837    0.26430283
     atom   30 type  1   force =     0.00107120    0.01770780    0.00918281
     atom   31 type  2   force =    -0.00950723    0.00288685   -0.25487617
     atom   32 type  2   force =    -0.00177376   -0.00793042    0.27259196
     atom   33 type  1   force =    -0.00113161    0.00769823    0.00144386
     atom   34 type  2   force =    -0.00006818   -0.02883859   -0.26310442
     atom   35 type  2   force =    -0.00185567   -0.00753333    0.26616312
     atom   36 type  3   force =    -0.03723536    0.01922928   -0.04264792
     The ionic contribution  to forces
     atom    1 type  1   force =     0.05086988    0.61514975    5.85793122
     atom    2 type  2   force =    -0.46637810    0.43981240   39.33794470
     atom    3 type  2   force =    -0.15649732    0.12413320  -36.23668560
     atom    4 type  1   force =     0.09866056    0.32895966    0.64400630
     atom    5 type  2   force =    -0.97701371    1.41651585   38.66698722
     atom    6 type  2   force =     0.26971283   -0.56360692  -37.92149719
     atom    7 type  1   force =    -3.04430809   -2.64434862    1.88592111
     atom    8 type  2   force =    -0.82689454   -0.39026985   37.34169447
     atom    9 type  2   force =     0.37356397   -0.12670845  -38.06931742
     atom   10 type  1   force =    -1.00027653   -0.04081169    4.58077902
     atom   11 type  2   force =    -1.83298674   -0.88167084   37.69412775
     atom   12 type  2   force =     0.35069377    0.62028495  -37.81085352
     atom   13 type  1   force =     0.43365154    1.04530225    2.86505414
     atom   14 type  2   force =    -0.02462547   -0.00982582   38.56652613
     atom   15 type  2   force =     0.21852441    0.14847987  -36.87352368
     atom   16 type  1   force =    -0.00362019    3.68207448    0.73337029
     atom   17 type  2   force =     0.78998749    1.44960202   37.98716321
     atom   18 type  2   force =    -0.13225557   -0.59063977  -38.49012375
     atom   19 type  1   force =     2.75568711   -2.45919087    0.45179920
     atom   20 type  2   force =     0.19430671   -0.22085751  -38.52960307
     atom   21 type  1   force =     0.35577575   -0.06856889    0.43450429
     atom   22 type  2   force =     0.51863727   -1.70273439   38.44728816
     atom   23 type  2   force =    -0.17482796    0.53137608  -38.35869658
     atom   24 type  1   force =    -0.28460296    1.16353498    5.57567071
     atom   25 type  2   force =     0.57345782    0.29410384   39.27066794
     atom   26 type  2   force =    -0.25411419    0.10852145  -37.30936375
     atom   27 type  1   force =     0.02031045    0.36495652   -1.99290623
     atom   28 type  2   force =     0.07735042    0.90529299   38.18967751
     atom   29 type  2   force =    -0.23152910   -0.37871140  -37.26706243
     atom   30 type  1   force =    -0.04125430   -1.21650831   -0.30102114
     atom   31 type  2   force =     1.26509386   -0.09929830   37.40165764
     atom   32 type  2   force =    -0.46854981   -0.08816141  -38.61219811
     atom   33 type  1   force =     0.62776594   -0.56494585    2.21530596
     atom   34 type  2   force =     0.52820673   -1.11838932   39.12752585
     atom   35 type  2   force =    -0.19292779    0.48877285  -37.83114413
     atom   36 type  3   force =     0.61040583   -0.56162495    8.32839379
     The local contribution  to forces
     atom    1 type  1   force =    -0.04708496   -0.65974123   -5.84555340
     atom    2 type  2   force =     0.46331620   -0.42252906  -39.09518232
     atom    3 type  2   force =     0.15584720   -0.11106165   35.98256142
     atom    4 type  1   force =    -0.09730109   -0.33000304   -0.64604906
     atom    5 type  2   force =     0.97469779   -1.39081864  -38.43880226
     atom    6 type  2   force =    -0.26915082    0.56350618   37.68025093
     atom    7 type  1   force =     3.09132254    2.62040145   -1.87489875
     atom    8 type  2   force =     0.81599241    0.38706579  -37.10668449
     atom    9 type  2   force =    -0.36653666    0.13722941   37.82056071
     atom   10 type  1   force =     0.99801013    0.04804772   -4.59545389
     atom   11 type  2   force =     1.64831103    0.93500715  -37.72791436
     atom   12 type  2   force =    -0.34687979   -0.59981879   37.56545177
     atom   13 type  1   force =    -0.43137739   -1.05836054   -2.86224854
     atom   14 type  2   force =     0.02504453    0.01298588  -38.32305690
     atom   15 type  2   force =    -0.21885195   -0.13645088   36.62242707
     atom   16 type  1   force =     0.00369599   -3.71001318   -0.69647275
     atom   17 type  2   force =    -0.78670502   -1.42456018  -37.75594338
     atom   18 type  2   force =     0.13376595    0.58904646   38.25006323
     atom   19 type  1   force =    -2.77825273    2.45255499   -0.44199063
     atom   20 type  2   force =    -0.19048458    0.23827154   38.28399690
     atom   21 type  1   force =    -0.38359988    0.05303287   -0.44748687
     atom   22 type  2   force =    -0.50080920    1.70159315  -38.22355227
     atom   23 type  2   force =     0.16708954   -0.51743765   38.11682261
     atom   24 type  1   force =     0.27184854   -1.18331482   -5.57671930
     atom   25 type  2   force =    -0.56713289   -0.28258015  -39.02731822
     atom   26 type  2   force =     0.24666455   -0.09842100   37.06063515
     atom   27 type  1   force =    -0.01878454   -0.37157269    1.98919532
     atom   28 type  2   force =    -0.07256704   -0.88543742  -37.94107213
     atom   29 type  2   force =     0.22815696    0.37872092   37.01994758
     atom   30 type  1   force =     0.03796816    1.20267272    0.29331871
     atom   31 type  2   force =    -1.25465860    0.09722352  -37.15650103
     atom   32 type  2   force =     0.46263387    0.10046665   38.36524378
     atom   33 type  1   force =    -0.62127533    0.55556491   -2.21548608
     atom   34 type  2   force =    -0.52894766    1.11623310  -38.90291202
     atom   35 type  2   force =     0.18851156   -0.47428117   37.59151574
     atom   36 type  3   force =    -0.56079068    0.53998165   -8.25727084
     The core correction contribution to forces
     atom    1 type  1   force =     0.00000000    0.00000000    0.00000000
     atom    2 type  2   force =     0.00023944    0.00025291    0.02045701
     atom    3 type  2   force =     0.00045361    0.00014878   -0.02082244
     atom    4 type  1   force =     0.00000000    0.00000000    0.00000000
     atom    5 type  2   force =    -0.00048070    0.00195399    0.02036142
     atom    6 type  2   force =     0.00011329   -0.00102195   -0.02082823
     atom    7 type  1   force =     0.00000000    0.00000000    0.00000000
     atom    8 type  2   force =    -0.00030338   -0.00000201    0.01949024
     atom    9 type  2   force =     0.00000606    0.00037313   -0.02094867
     atom   10 type  1   force =     0.00000000    0.00000000    0.00000000
     atom   11 type  2   force =    -0.01417638    0.00542042    0.00178765
     atom   12 type  2   force =     0.00103606    0.00127872   -0.02104832
     atom   13 type  1   force =     0.00000000    0.00000000    0.00000000
     atom   14 type  2   force =    -0.00035831   -0.00028362    0.02036598
     atom   15 type  2   force =     0.00070258    0.00061368   -0.02058703
     atom   16 type  1   force =     0.00000000    0.00000000    0.00000000
     atom   17 type  2   force =     0.00003977    0.00131573    0.02019411
     atom   18 type  2   force =     0.00007142   -0.00051067   -0.02092055
     atom   19 type  1   force =     0.00000000    0.00000000    0.00000000
     atom   20 type  2   force =     0.00013632    0.00082687   -0.02112607
     atom   21 type  1   force =     0.00000000    0.00000000    0.00000000
     atom   22 type  2   force =     0.00095853   -0.00034567    0.01993355
     atom   23 type  2   force =    -0.00067478    0.00093079   -0.02089084
     atom   24 type  1   force =     0.00000000    0.00000000    0.00000000
     atom   25 type  2   force =     0.00003809   -0.00032214    0.02070212
     atom   26 type  2   force =    -0.00027540    0.00067700   -0.02087408
     atom   27 type  1   force =     0.00000000    0.00000000    0.00000000
     atom   28 type  2   force =     0.00032041    0.00169697    0.02099882
     atom   29 type  2   force =    -0.00050836   -0.00050886   -0.02063795
     atom   30 type  1   force =     0.00000000    0.00000000    0.00000000
     atom   31 type  2   force =     0.00054736    0.00000687    0.02046449
     atom   32 type  2   force =    -0.00019976    0.00045170   -0.02100263
     atom   33 type  1   force =     0.00000000    0.00000000    0.00000000
     atom   34 type  2   force =     0.00054657    0.00091157    0.02043148
     atom   35 type  2   force =    -0.00004141    0.00080977   -0.02096866
     atom   36 type  3   force =     0.00000000    0.00000000    0.00000000
     The Hubbard contrib.    to forces
     atom    1 type  1   force =     0.00000000    0.00000000    0.00000000
     atom    2 type  2   force =     0.00000000    0.00000000    0.00000000
     atom    3 type  2   force =     0.00000000    0.00000000    0.00000000
     atom    4 type  1   force =     0.00000000    0.00000000    0.00000000
     atom    5 type  2   force =     0.00000000    0.00000000    0.00000000
     atom    6 type  2   force =     0.00000000    0.00000000    0.00000000
     atom    7 type  1   force =     0.00000000    0.00000000    0.00000000
     atom    8 type  2   force =     0.00000000    0.00000000    0.00000000
     atom    9 type  2   force =     0.00000000    0.00000000    0.00000000
     atom   10 type  1   force =     0.00000000    0.00000000    0.00000000
     atom   11 type  2   force =     0.00000000    0.00000000    0.00000000
     atom   12 type  2   force =     0.00000000    0.00000000    0.00000000
     atom   13 type  1   force =     0.00000000    0.00000000    0.00000000
     atom   14 type  2   force =     0.00000000    0.00000000    0.00000000
     atom   15 type  2   force =     0.00000000    0.00000000    0.00000000
     atom   16 type  1   force =     0.00000000    0.00000000    0.00000000
     atom   17 type  2   force =     0.00000000    0.00000000    0.00000000
     atom   18 type  2   force =     0.00000000    0.00000000    0.00000000
     atom   19 type  1   force =     0.00000000    0.00000000    0.00000000
     atom   20 type  2   force =     0.00000000    0.00000000    0.00000000
     atom   21 type  1   force =     0.00000000    0.00000000    0.00000000
     atom   22 type  2   force =     0.00000000    0.00000000    0.00000000
     atom   23 type  2   force =     0.00000000    0.00000000    0.00000000
     atom   24 type  1   force =     0.00000000    0.00000000    0.00000000
     atom   25 type  2   force =     0.00000000    0.00000000    0.00000000
     atom   26 type  2   force =     0.00000000    0.00000000    0.00000000
     atom   27 type  1   force =     0.00000000    0.00000000    0.00000000
     atom   28 type  2   force =     0.00000000    0.00000000    0.00000000
     atom   29 type  2   force =     0.00000000    0.00000000    0.00000000
     atom   30 type  1   force =     0.00000000    0.00000000    0.00000000
     atom   31 type  2   force =     0.00000000    0.00000000    0.00000000
     atom   32 type  2   force =     0.00000000    0.00000000    0.00000000
     atom   33 type  1   force =     0.00000000    0.00000000    0.00000000
     atom   34 type  2   force =     0.00000000    0.00000000    0.00000000
     atom   35 type  2   force =     0.00000000    0.00000000    0.00000000
     atom   36 type  3   force =     0.00000000    0.00000000    0.00000000
     The SCF correction term to forces
     atom    1 type  1   force =    -0.00008536    0.00023323    0.00102265
     atom    2 type  2   force =     0.00007617   -0.00008245    0.00035500
     atom    3 type  2   force =     0.00000134    0.00006785    0.00035280
     atom    4 type  1   force =    -0.00006849    0.00013212    0.00111374
     atom    5 type  2   force =     0.00001192    0.00007844    0.00026960
     atom    6 type  2   force =    -0.00003660    0.00004124    0.00038324
     atom    7 type  1   force =     0.00004487    0.00001472    0.00126014
     atom    8 type  2   force =    -0.00003754   -0.00001314    0.00033797
     atom    9 type  2   force =    -0.00006841   -0.00007524    0.00040628
     atom   10 type  1   force =    -0.00016493   -0.00016474    0.00144074
     atom   11 type  2   force =    -0.00000461   -0.00005113    0.00010166
     atom   12 type  2   force =    -0.00001713   -0.00012141    0.00048887
     atom   13 type  1   force =     0.00005834    0.00024150    0.00107186
     atom   14 type  2   force =     0.00001002   -0.00000740    0.00031129
     atom   15 type  2   force =     0.00005457    0.00013811    0.00036902
     atom   16 type  1   force =     0.00010106   -0.00000011    0.00102774
     atom   17 type  2   force =     0.00000439    0.00005351    0.00027988
     atom   18 type  2   force =     0.00003155    0.00007004    0.00034518
     atom   19 type  1   force =     0.00017293   -0.00020349    0.00119801
     atom   20 type  2   force =     0.00008164   -0.00006340    0.00038865
     atom   21 type  1   force =     0.00026789   -0.00022758    0.00141907
     atom   22 type  2   force =     0.00008589   -0.00004970    0.00037343
     atom   23 type  2   force =     0.00001853   -0.00006645    0.00032610
     atom   24 type  1   force =     0.00000806    0.00011482    0.00116556
     atom   25 type  2   force =    -0.00008826   -0.00000059    0.00030436
     atom   26 type  2   force =    -0.00000132    0.00008129    0.00036547
     atom   27 type  1   force =    -0.00002805    0.00003072    0.00110592
     atom   28 type  2   force =    -0.00001619    0.00005798    0.00029837
     atom   29 type  2   force =     0.00000529    0.00006854    0.00036260
     atom   30 type  1   force =    -0.00017084   -0.00022385    0.00127526
     atom   31 type  2   force =    -0.00004547   -0.00006075    0.00039409
     atom   32 type  2   force =    -0.00001369   -0.00013542    0.00033720
     atom   33 type  1   force =    -0.00012241    0.00006972    0.00127956
     atom   34 type  2   force =    -0.00010389    0.00005601    0.00036304
     atom   35 type  2   force =    -0.00001810   -0.00002486    0.00037611
     atom   36 type  3   force =     0.00001056   -0.00001183    0.00001799

     Total force =     0.086437     Total SCF correction =     0.004578
     Energy error            =      1.5E-02 Ry
     Gradient error          =      3.0E-02 Ry/Bohr

     number of scf cycles    =   2
     number of bfgs steps    =   1

     energy             old  =   -2205.5491773757 Ry
     energy             new  =   -2205.5638001642 Ry

     CASE: energy            _new < energy            _old

     new trust radius        =       0.0675780876 bohr
     new conv_thr            =       0.0000000300 Ry


ATOMIC_POSITIONS (angstrom)
Mo            6.5880285586        1.7594889951        2.8300152584
S             8.1594925628        0.8312573786        4.4344425697
S             8.1758108126        0.8257170113        1.2682654422
Mo            8.1009451044        4.5005761258        2.7165080974
S             6.4996616837        3.7101294008        4.3374533985
S             6.5560120442        3.5259561247        1.1230256113
Mo            6.5114161958        7.1913154184        2.6611901773
S             8.0805356818        6.3396492741        4.2675057662
S             8.0987147723        6.3126875102        1.0948797989
Mo            8.1582865292        9.9228776792        2.8064948005
S             6.5296032534        8.9069435215        4.3868454947
S             6.6096415431        9.0549218599        1.1462298270
Mo            3.4274797863        1.7595179895        2.7699045500
S             4.9829440098        0.8195258518        4.3629898678
S             5.0392344486        0.8504420785        1.2122546011
Mo            4.9772028697        4.5285550983        2.6431730033
S             3.4352335690        3.6727140549        4.2835188771
S             3.4339899931        3.5410597066        1.0750304447
Mo            3.4504891916        7.2058993963        2.6208960189
S             4.9881927601        6.3208549524        1.0343663115
Mo            4.9656486867        9.9173349827        2.7022079871
S             3.4608574404        8.9409441459        4.3224243850
S             3.4101802011        9.0712529260        1.1061038925
Mo            0.2855136865        1.7428020440        2.8282543638
S             1.8721050851        0.8171570031        4.4041057436
S             1.8480567027        0.8521059821        1.2022114569
Mo            1.8596239604        4.4965799520        2.6703069548
S             0.2728067587        3.6510977207        4.3287848659
S             0.2345375521        3.5281992927        1.1680089149
Mo            0.2670044765        7.2286892126        2.6994925506
S             1.9051873684        6.3136264996        4.2436037193
S             1.8499427594        6.3184024199        1.0541562011
Mo            1.8571778849        9.9361706223        2.7709629780
S             0.2973025243        9.0355960155        4.3905766135
S             0.2650829717        9.0543129165        1.1653866318
H             7.3736613609        8.4968408029        5.3947456442



     Writing config-only to output data dir ./MoS2-V-O.save/
     NEW-OLD atomic charge density approx. for the potential

     negative rho (up, down):  1.483E-04 0.000E+00

     total cpu time spent up to now is      184.3 secs

     Self-consistent Calculation

     iteration #  1     ecut=    80.00 Ry     beta= 0.70
     Davidson diagonalization with overlap
     ethr =  1.00E-06,  avg # of iterations = 16.0

     negative rho (up, down):  1.213E-04 0.000E+00

     total cpu time spent up to now is      198.1 secs

     total energy              =   -2205.57449410 Ry
     estimated scf accuracy    <       0.00150754 Ry

     iteration #  2     ecut=    80.00 Ry     beta= 0.70
     Davidson diagonalization with overlap
     ethr =  4.91E-07,  avg # of iterations =  2.0

     negative rho (up, down):  1.117E-04 0.000E+00

     total cpu time spent up to now is      212.2 secs

     total energy              =   -2205.57452276 Ry
     estimated scf accuracy    <       0.00028032 Ry

     iteration #  3     ecut=    80.00 Ry     beta= 0.70
     Davidson diagonalization with overlap
     ethr =  9.13E-08,  avg # of iterations =  4.0

     negative rho (up, down):  1.065E-04 0.000E+00

     total cpu time spent up to now is      226.8 secs

     total energy              =   -2205.57456194 Ry
     estimated scf accuracy    <       0.00002519 Ry

     iteration #  4     ecut=    80.00 Ry     beta= 0.70
     Davidson diagonalization with overlap
     ethr =  8.21E-09,  avg # of iterations =  5.0

     negative rho (up, down):  1.061E-04 0.000E+00

     total cpu time spent up to now is      243.2 secs

     total energy              =   -2205.57457155 Ry
     estimated scf accuracy    <       0.00000321 Ry

     iteration #  5     ecut=    80.00 Ry     beta= 0.70
     Davidson diagonalization with overlap
     ethr =  1.04E-09,  avg # of iterations =  5.0

     negative rho (up, down):  1.076E-04 0.000E+00

     total cpu time spent up to now is      259.0 secs

     total energy              =   -2205.57457194 Ry
     estimated scf accuracy    <       0.00000059 Ry

     iteration #  6     ecut=    80.00 Ry     beta= 0.70
     Davidson diagonalization with overlap
     ethr =  1.91E-10,  avg # of iterations =  5.0

     negative rho (up, down):  1.099E-04 0.000E+00

     total cpu time spent up to now is      275.8 secs

     total energy              =   -2205.57457209 Ry
     estimated scf accuracy    <       0.00000014 Ry

     iteration #  7     ecut=    80.00 Ry     beta= 0.70
     Davidson diagonalization with overlap
     ethr =  4.57E-11,  avg # of iterations =  2.0

     negative rho (up, down):  1.381E-04 0.000E+00

     total cpu time spent up to now is      278.1 secs

     End of self-consistent calculation

          k = 0.0000 0.0000 0.0000 (105382 PWs)   bands (ev):

   -62.8376 -62.8329 -62.8203 -62.8101 -62.7973 -62.7916 -62.7845 -62.7613
   -62.7363 -62.7109 -62.6635 -62.6293 -37.1729 -37.1098 -37.1024 -37.0924
   -37.0841 -37.0631 -37.0430 -37.0351 -37.0235 -37.0221 -37.0127 -36.9989
   -36.9910 -36.9829 -36.9766 -36.9695 -36.9652 -36.9596 -36.9550 -36.9425
   -36.9121 -36.8988 -36.8848 -36.8778 -36.8667 -36.8526 -36.8379 -36.8314
   -36.8184 -36.8143 -36.8123 -36.7959 -36.7732 -36.7623 -36.6719 -36.6173
   -16.1431 -15.6399 -15.0867 -15.0525 -14.8764 -14.8415 -14.6265 -14.4245
   -14.4215 -14.3876 -14.3722 -14.3199 -14.2766 -14.2428 -14.1491 -14.0849
   -14.0753 -14.0516 -13.9868 -13.8433 -13.8074 -13.7942 -13.7838  -8.8096
    -7.5785  -7.4099  -7.2410  -7.2168  -7.1872  -7.1605  -7.1239  -7.0482
    -6.7960  -6.7533  -6.6992  -6.6359  -6.6265  -6.4844  -6.4561  -6.3635
    -6.2766  -6.2262  -6.1707  -5.9393  -5.8826  -5.8693  -5.7848  -5.7530
    -5.7164  -5.6785  -5.6307  -5.6231  -5.6014  -5.5069  -5.4783  -5.4451
    -5.3685  -5.3125  -5.1368  -5.1062  -5.0122  -4.9690  -4.9429  -4.8998
    -4.8845  -4.8135  -4.6541  -4.5823  -4.4462  -4.2892  -4.2539  -4.1831
    -4.1755  -4.0741  -3.9923  -3.8169  -3.8013  -3.7642  -3.6919  -3.6563
    -3.6279  -3.5208  -3.5114  -3.4940  -3.4678  -3.4215  -3.3926  -3.3266
    -3.3142  -3.1886  -3.0832  -2.8768  -2.8325  -2.7643  -2.7322  -2.6987
    -2.6507  -2.6370  -2.6224  -2.5752  -2.4969  -2.2068  -1.9747  -1.9485
    -1.9140  -1.0809  -0.7078  -0.4414  -0.1213  -0.1127  -0.0273   0.0508
     0.1120   0.1778   0.1923   0.2515   0.2835   0.3670   0.4091   0.4930
     0.5446   0.5778   0.6078   0.6571   0.6761   0.7037   0.7596   0.7857
     0.8267   0.8614   0.9071   0.9430   1.0178   1.0478   1.0824   1.2864
     1.4047

     the Fermi energy is    -1.0809 ev

!    total energy              =   -2205.57457197 Ry
     estimated scf accuracy    <       0.00000003 Ry
     smearing contrib. (-TS)   =      -0.00564495 Ry
     internal energy E=F+TS    =   -2205.56892702 Ry

     The total energy is F=E-TS. E is the sum of the following terms:
     one-electron contribution =  -18048.98136379 Ry
     hartree contribution      =    9011.68627197 Ry
     xc contribution           =    -385.35980357 Ry
     ewald contribution        =    7217.08596838 Ry

     convergence has been achieved in   7 iterations

     negative rho (up, down):  1.381E-04 0.000E+00

     Forces acting on atoms (cartesian axes, Ry/au):

     atom    1 type  1   force =    -0.00677474   -0.00155166   -0.00567748
     atom    2 type  2   force =    -0.00193308    0.00354354   -0.00188084
     atom    3 type  2   force =    -0.00722439    0.00697257   -0.01343298
     atom    4 type  1   force =     0.00431812    0.00136188    0.00124241
     atom    5 type  2   force =     0.00189591   -0.00634029   -0.00398262
     atom    6 type  2   force =    -0.00016212    0.00432452    0.00503432
     atom    7 type  1   force =     0.00468024   -0.00834503    0.00151678
     atom    8 type  2   force =     0.00215271   -0.00623755    0.00810404
     atom    9 type  2   force =     0.01081968    0.00219323   -0.00100500
     atom   10 type  1   force =    -0.00027189    0.00488539    0.00459835
     atom   11 type  2   force =     0.01248203   -0.01090311   -0.00229577
     atom   12 type  2   force =    -0.00767257    0.00120360    0.00029828
     atom   13 type  1   force =     0.00157529    0.00224377   -0.00013786
     atom   14 type  2   force =     0.00065311   -0.00251939   -0.00014897
     atom   15 type  2   force =    -0.00807570    0.00640303   -0.00974276
     atom   16 type  1   force =     0.00095878    0.00394651    0.00202452
     atom   17 type  2   force =     0.00333252    0.00221875    0.00409706
     atom   18 type  2   force =    -0.00087005    0.00140291    0.00719129
     atom   19 type  1   force =     0.00027652   -0.00110246    0.00150578
     atom   20 type  2   force =     0.00284317   -0.00284828   -0.00363214
     atom   21 type  1   force =    -0.00034825    0.00002691    0.00510240
     atom   22 type  2   force =    -0.00069077   -0.00138193   -0.00468811
     atom   23 type  2   force =    -0.00675886   -0.00135764   -0.00629971
     atom   24 type  1   force =    -0.00271208    0.00010416   -0.00143308
     atom   25 type  2   force =     0.00553217    0.00913657   -0.00352247
     atom   26 type  2   force =    -0.00239143   -0.00060484   -0.00273584
     atom   27 type  1   force =    -0.00057893    0.00096107    0.00415911
     atom   28 type  2   force =    -0.00061134   -0.00340866   -0.00417116
     atom   29 type  2   force =     0.00206029    0.00273784   -0.00248533
     atom   30 type  1   force =    -0.00109490   -0.00457664    0.00573464
     atom   31 type  2   force =     0.00072792    0.00026796    0.00575062
     atom   32 type  2   force =    -0.00622244    0.00263657    0.00320124
     atom   33 type  1   force =    -0.00174477    0.00104942    0.00426316
     atom   34 type  2   force =    -0.00250220   -0.01342697   -0.01497012
     atom   35 type  2   force =    -0.00242644    0.00695684   -0.00017924
     atom   36 type  3   force =     0.00675851    0.00002736    0.01859746
     The non-local contrib.  to forces
     atom    1 type  1   force =     0.00189778    0.02597895   -0.01191146
     atom    2 type  2   force =    -0.00110616   -0.01137486   -0.26299706
     atom    3 type  2   force =    -0.00653719   -0.00587756    0.25998273
     atom    4 type  1   force =     0.00393393    0.00692060    0.00076721
     atom    5 type  2   force =     0.00380692   -0.03482340   -0.25545780
     atom    6 type  2   force =    -0.00005800    0.00567193    0.26694695
     atom    7 type  1   force =    -0.03465762    0.00672148   -0.01848698
     atom    8 type  2   force =     0.01434013   -0.00212282   -0.24424379
     atom    9 type  2   force =     0.00381116   -0.00847973    0.26958198
     atom   10 type  1   force =     0.00313684    0.00510944    0.00014882
     atom   11 type  2   force =     0.22131094   -0.07720968    0.03497135
     atom   12 type  2   force =    -0.01306601   -0.01889357    0.26998843
     atom   13 type  1   force =     0.00231827    0.02173218   -0.00664490
     atom   14 type  2   force =     0.00103624   -0.00237188   -0.26082069
     atom   15 type  2   force =    -0.00904920   -0.00825848    0.26008426
     atom   16 type  1   force =    -0.00212635    0.03819232   -0.03382757
     atom   17 type  2   force =     0.00027655   -0.02326578   -0.24877969
     atom   18 type  2   force =    -0.00251264    0.00243863    0.26905387
     atom   19 type  1   force =     0.02121394    0.00325518   -0.01546484
     atom   20 type  2   force =    -0.00155735   -0.01932372    0.26254144
     atom   21 type  1   force =    -0.00173425    0.02293313   -0.00462749
     atom   22 type  2   force =    -0.02122523   -0.00147655   -0.24796719
     atom   23 type  2   force =     0.00336384   -0.01518919    0.25840280
     atom   24 type  1   force =     0.00522460    0.01746223   -0.00719971
     atom   25 type  2   force =     0.00098417   -0.00156997   -0.26624686
     atom   26 type  2   force =     0.00439088   -0.01075786    0.26576058
     atom   27 type  1   force =    -0.00204682    0.00673258    0.00822720
     atom   28 type  2   force =    -0.00540708   -0.02340996   -0.27559046
     atom   29 type  2   force =     0.00533028    0.00094037    0.26593998
     atom   30 type  1   force =     0.00046118    0.01886518    0.00847786
     atom   31 type  2   force =    -0.01080628    0.00256519   -0.25822048
     atom   32 type  2   force =     0.00014639   -0.00912072    0.27150016
     atom   33 type  1   force =     0.00110841    0.00598675   -0.00006079
     atom   34 type  2   force =    -0.00069180   -0.01606184   -0.26181743
     atom   35 type  2   force =     0.00034351   -0.00813423    0.26315774
     atom   36 type  3   force =    -0.03555657    0.01763666   -0.04265862
     The ionic contribution  to forces
     atom    1 type  1   force =    -0.23434312    0.82281087    5.95273168
     atom    2 type  2   force =    -0.32314007    0.26205152   39.43943747
     atom    3 type  2   force =    -0.14981681    0.14964494  -36.43144124
     atom    4 type  1   force =     0.02709463    0.14930670    0.69272116
     atom    5 type  2   force =    -0.96514766    1.36942870   38.55597942
     atom    6 type  2   force =     0.20656988   -0.61459630  -37.78602142
     atom    7 type  1   force =    -3.35194018   -2.04576688    1.73502303
     atom    8 type  2   force =    -0.83544709   -0.38506899   37.56718128
     atom    9 type  2   force =     0.37976543   -0.14484238  -38.11627462
     atom   10 type  1   force =    -1.19295847   -0.14972575    4.19180075
     atom   11 type  2   force =    -1.98223996   -0.74115481   37.45165814
     atom   12 type  2   force =     0.29215077    0.51772462  -37.60848064
     atom   13 type  1   force =     0.39084265    0.98364023    2.84589590
     atom   14 type  2   force =    -0.03097538   -0.14527938   38.63378132
     atom   15 type  2   force =     0.30264748    0.26592088  -36.98468643
     atom   16 type  1   force =     0.06367593    3.51326182    1.05637858
     atom   17 type  2   force =     0.78883508    1.41238104   38.05185817
     atom   18 type  2   force =    -0.10489195   -0.50695996  -38.39471594
     atom   19 type  1   force =     2.94577335   -2.35933725    0.30725582
     atom   20 type  2   force =     0.16828248   -0.16706428  -38.57912137
[...]
     atom   27 type  1   force =    -0.00256671    0.00697587    0.00405593
     atom   28 type  2   force =    -0.00162367   -0.01437420   -0.27300812
     atom   29 type  2   force =    -0.00065782   -0.00666213    0.26831072
     atom   30 type  1   force =     0.00007765    0.01833028    0.00843858
     atom   31 type  2   force =    -0.01232635    0.00000654   -0.26102722
     atom   32 type  2   force =     0.00690406   -0.00789188    0.26900410
     atom   33 type  1   force =     0.00226871    0.00606462    0.00137213
     atom   34 type  2   force =     0.00028772   -0.00799378   -0.25441470
     atom   35 type  2   force =     0.00290054   -0.01135992    0.26579048
     atom   36 type  3   force =    -0.03147802    0.01278129   -0.04468454
     The ionic contribution  to forces
     atom    1 type  1   force =    -0.25615187    0.53581577    2.96591989
     atom    2 type  2   force =    -0.26646386    0.21133331   38.90297948
     atom    3 type  2   force =    -0.05658056   -0.06904927  -37.27974031
     atom    4 type  1   force =    -0.25763482   -0.10517125    0.15675696
     atom    5 type  2   force =    -0.84766981    1.06440703   38.31997658
     atom    6 type  2   force =     0.11806623   -0.44992244  -37.81195896
     atom    7 type  1   force =    -3.73023409   -1.08164279    3.04670941
     atom    8 type  2   force =    -0.87791338   -0.28225366   38.17413443
     atom    9 type  2   force =     0.23292791    0.04703416  -38.16462546
     atom   10 type  1   force =    -1.31499650   -0.11731072    3.46855196
     atom   11 type  2   force =    -2.16179154   -0.54415157   37.44964222
     atom   12 type  2   force =     0.19387563    0.27642913  -37.18193192
     atom   13 type  1   force =     0.30054848    0.75009455    3.01131575
     atom   14 type  2   force =     0.04491847   -0.25194147   38.46251923
     atom   15 type  2   force =     0.18872506    0.01626325  -37.42880406
     atom   16 type  1   force =    -0.10853912    3.37399054    2.70429681
     atom   17 type  2   force =     0.82757287    1.16338378   38.48482916
     atom   18 type  2   force =    -0.06640863   -0.35639772  -37.92413266
     atom   19 type  1   force =     3.25878061   -1.97581195    0.56982472
     atom   20 type  2   force =     0.06404772    0.05702050  -38.43821516
     atom   21 type  1   force =     1.28284643   -0.71692073    0.47296794
     atom   22 type  2   force =     0.73387687   -1.47841777   38.38766784
     atom   23 type  2   force =    -0.16640546    0.26984481  -38.36366208
     atom   24 type  1   force =    -0.11284640    0.43186893    2.75092651
     atom   25 type  2   force =     0.26957037    0.07381059   38.94892562
     atom   26 type  2   force =    -0.08702398    0.01497037  -37.43401072
     atom   27 type  1   force =     0.25931903    0.27235178    0.37728872
     atom   28 type  2   force =     0.07305859    0.49175911   38.15809212
     atom   29 type  2   force =    -0.01002577   -0.21921361  -37.62480330
     atom   30 type  1   force =     0.10439488   -0.66650263    0.93369922
     atom   31 type  2   force =     1.37189424    0.06734224   38.06699906
     atom   32 type  2   force =    -0.26975278   -0.10997075  -38.28432189
     atom   33 type  1   force =     0.47226169   -0.16597616    2.70255825
     atom   34 type  2   force =     0.41968168   -0.42880621   38.61876008
     atom   35 type  2   force =    -0.12767517    0.27732146  -37.57777567
     atom   36 type  3   force =     0.50174699   -0.37558062    8.37864024
     The local contribution  to forces
     atom    1 type  1   force =     0.26051714   -0.56033175   -2.96045214
     atom    2 type  2   force =     0.26684915   -0.19522098  -38.66437740
     atom    3 type  2   force =     0.05758651    0.07636143   37.03517378
     atom    4 type  1   force =     0.25138582    0.10049257   -0.15704925
     atom    5 type  2   force =     0.84926688   -1.04159193  -38.08501261
     atom    6 type  2   force =    -0.12094130    0.45310813   37.56796222
     atom    7 type  1   force =     3.76238335    1.07626029   -3.02527492
     atom    8 type  2   force =     0.86779093    0.27792545  -37.94163468
     atom    9 type  2   force =    -0.22881393   -0.03544329   37.91744338
     atom   10 type  1   force =     1.31052297    0.10994383   -3.46964413
     atom   11 type  2   force =     1.94952887    0.60675367  -37.52067372
     atom   12 type  2   force =    -0.18974720   -0.25925156   36.93217649
     atom   13 type  1   force =    -0.30376958   -0.77480587   -3.00614131
     atom   14 type  2   force =    -0.04236664    0.25331142  -38.22337894
     atom   15 type  2   force =    -0.18821709   -0.00262234   37.18355885
     atom   16 type  1   force =     0.11037014   -3.41830649   -2.66622606
     atom   17 type  2   force =    -0.82377752   -1.14389548  -38.25250853
     atom   18 type  2   force =     0.06748639    0.35872377   37.68068854
     atom   19 type  1   force =    -3.28216775    1.97104781   -0.55479415
     atom   20 type  2   force =    -0.05986563   -0.04391206   38.19611531
     atom   21 type  1   force =    -1.27828998    0.69885814   -0.46514769
     atom   22 type  2   force =    -0.71590570    1.48066060  -38.16201367
     atom   23 type  2   force =     0.15845926   -0.25980113   38.12129162
     atom   24 type  1   force =     0.11042932   -0.45075434   -2.75215832
     atom   25 type  2   force =    -0.26870087   -0.06492426  -38.70503480
     atom   26 type  2   force =     0.08353229   -0.00525624   37.18764491
     atom   27 type  1   force =    -0.25653275   -0.27930776   -0.38159973
     atom   28 type  2   force =    -0.07146861   -0.47846759  -37.90602521
     atom   29 type  2   force =     0.01007671    0.22614189   37.37771213
     atom   30 type  1   force =    -0.10422672    0.64762498   -0.94173387
     atom   31 type  2   force =    -1.36000045   -0.06910429  -37.82633899
     atom   32 type  2   force =     0.26450431    0.11781421   38.03664849
     atom   33 type  1   force =    -0.47434792    0.16027099   -2.70439369
     atom   34 type  2   force =    -0.42034111    0.43724609  -38.38486541
     atom   35 type  2   force =     0.12469892   -0.26651351   37.33293855
     atom   36 type  3   force =    -0.47107991    0.36502218   -8.33392071
     The core correction contribution to forces
     atom    1 type  1   force =     0.00000000    0.00000000    0.00000000
     atom    2 type  2   force =    -0.00002254    0.00104171    0.02036919
     atom    3 type  2   force =     0.00006112    0.00028292   -0.02088142
     atom    4 type  1   force =     0.00000000    0.00000000    0.00000000
     atom    5 type  2   force =    -0.00008999    0.00109502    0.02028632
     atom    6 type  2   force =    -0.00015332   -0.00030388   -0.02076606
     atom    7 type  1   force =     0.00000000    0.00000000    0.00000000
     atom    8 type  2   force =    -0.00017892   -0.00021071    0.02004171
     atom    9 type  2   force =     0.00049881    0.00062288   -0.02093423
     atom   10 type  1   force =     0.00000000    0.00000000    0.00000000
     atom   11 type  2   force =    -0.01443323    0.00461829   -0.00118678
     atom   12 type  2   force =     0.00062018    0.00086759   -0.02115408
     atom   13 type  1   force =     0.00000000    0.00000000    0.00000000
     atom   14 type  2   force =     0.00001748   -0.00030042    0.02045870
     atom   15 type  2   force =     0.00002416    0.00078022   -0.02078730
     atom   16 type  1   force =     0.00000000    0.00000000    0.00000000
     atom   17 type  2   force =     0.00036593    0.00097209    0.02026220
     atom   18 type  2   force =     0.00006724   -0.00035700   -0.02075123
     atom   19 type  1   force =     0.00000000    0.00000000    0.00000000
     atom   20 type  2   force =     0.00034184    0.00064545   -0.02114332
     atom   21 type  1   force =     0.00000000    0.00000000    0.00000000
     atom   22 type  2   force =     0.00071134   -0.00033528    0.02001254
     atom   23 type  2   force =    -0.00080387    0.00080941   -0.02093387
     atom   24 type  1   force =     0.00000000    0.00000000    0.00000000
     atom   25 type  2   force =     0.00013089    0.00041725    0.02073768
     atom   26 type  2   force =    -0.00018275    0.00052965   -0.02093640
     atom   27 type  1   force =     0.00000000    0.00000000    0.00000000
     atom   28 type  2   force =     0.00013347    0.00100692    0.02105680
     atom   29 type  2   force =     0.00008621    0.00013904   -0.02082860
     atom   30 type  1   force =     0.00000000    0.00000000    0.00000000
     atom   31 type  2   force =     0.00073308    0.00022859    0.02062847
     atom   32 type  2   force =    -0.00067913    0.00030290   -0.02096694
     atom   33 type  1   force =     0.00000000    0.00000000    0.00000000
     atom   34 type  2   force =     0.00033887    0.00018087    0.02018221
     atom   35 type  2   force =    -0.00019924    0.00072420   -0.02088952
     atom   36 type  3   force =     0.00000000    0.00000000    0.00000000
     The Hubbard contrib.    to forces
     atom    1 type  1   force =     0.00000000    0.00000000    0.00000000
     atom    2 type  2   force =     0.00000000    0.00000000    0.00000000
     atom    3 type  2   force =     0.00000000    0.00000000    0.00000000
     atom    4 type  1   force =     0.00000000    0.00000000    0.00000000
     atom    5 type  2   force =     0.00000000    0.00000000    0.00000000
     atom    6 type  2   force =     0.00000000    0.00000000    0.00000000
     atom    7 type  1   force =     0.00000000    0.00000000    0.00000000
     atom    8 type  2   force =     0.00000000    0.00000000    0.00000000
     atom    9 type  2   force =     0.00000000    0.00000000    0.00000000
     atom   10 type  1   force =     0.00000000    0.00000000    0.00000000
     atom   11 type  2   force =     0.00000000    0.00000000    0.00000000
     atom   12 type  2   force =     0.00000000    0.00000000    0.00000000
     atom   13 type  1   force =     0.00000000    0.00000000    0.00000000
     atom   14 type  2   force =     0.00000000    0.00000000    0.00000000
     atom   15 type  2   force =     0.00000000    0.00000000    0.00000000
     atom   16 type  1   force =     0.00000000    0.00000000    0.00000000
     atom   17 type  2   force =     0.00000000    0.00000000    0.00000000
     atom   18 type  2   force =     0.00000000    0.00000000    0.00000000
     atom   19 type  1   force =     0.00000000    0.00000000    0.00000000
     atom   20 type  2   force =     0.00000000    0.00000000    0.00000000
     atom   21 type  1   force =     0.00000000    0.00000000    0.00000000
     atom   22 type  2   force =     0.00000000    0.00000000    0.00000000
     atom   23 type  2   force =     0.00000000    0.00000000    0.00000000
     atom   24 type  1   force =     0.00000000    0.00000000    0.00000000
     atom   25 type  2   force =     0.00000000    0.00000000    0.00000000
     atom   26 type  2   force =     0.00000000    0.00000000    0.00000000
     atom   27 type  1   force =     0.00000000    0.00000000    0.00000000
     atom   28 type  2   force =     0.00000000    0.00000000    0.00000000
     atom   29 type  2   force =     0.00000000    0.00000000    0.00000000
     atom   30 type  1   force =     0.00000000    0.00000000    0.00000000
     atom   31 type  2   force =     0.00000000    0.00000000    0.00000000
     atom   32 type  2   force =     0.00000000    0.00000000    0.00000000
     atom   33 type  1   force =     0.00000000    0.00000000    0.00000000
     atom   34 type  2   force =     0.00000000    0.00000000    0.00000000
     atom   35 type  2   force =     0.00000000    0.00000000    0.00000000
     atom   36 type  3   force =     0.00000000    0.00000000    0.00000000
     The SCF correction term to forces
     atom    1 type  1   force =     0.00000249    0.00000835    0.00005263
     atom    2 type  2   force =    -0.00000363    0.00000571    0.00001815
     atom    3 type  2   force =    -0.00000351    0.00000599    0.00001099
     atom    4 type  1   force =     0.00001112   -0.00004661   -0.00000956
     atom    5 type  2   force =     0.00000373   -0.00002417   -0.00000085
     atom    6 type  2   force =     0.00000142    0.00000492    0.00000529
     atom    7 type  1   force =    -0.00000527   -0.00000926   -0.00004037
     atom    8 type  2   force =     0.00000800   -0.00001916    0.00000156
     atom    9 type  2   force =     0.00001150   -0.00001703   -0.00002719
     atom   10 type  1   force =     0.00000076    0.00003821    0.00003224
     atom   11 type  2   force =     0.00000284    0.00003394    0.00002122
     atom   12 type  2   force =     0.00000182    0.00000456   -0.00000827
     atom   13 type  1   force =     0.00001148    0.00001254    0.00004391
     atom   14 type  2   force =     0.00000884    0.00000603    0.00002140
     atom   15 type  2   force =     0.00000619    0.00001103    0.00000853
     atom   16 type  1   force =    -0.00000281   -0.00003866   -0.00001376
     atom   17 type  2   force =     0.00000168   -0.00001656    0.00000317
     atom   18 type  2   force =     0.00000133    0.00001246   -0.00000441
     atom   19 type  1   force =    -0.00001817   -0.00001333   -0.00003167
     atom   20 type  2   force =    -0.00001575   -0.00000894   -0.00002357
     atom   21 type  1   force =    -0.00000432    0.00003238    0.00001955
     atom   22 type  2   force =     0.00000070    0.00001448    0.00000491
     atom   23 type  2   force =    -0.00000570   -0.00001560   -0.00000525
     atom   24 type  1   force =    -0.00001251    0.00001383    0.00005550
     atom   25 type  2   force =    -0.00000450    0.00000432    0.00001727
     atom   26 type  2   force =    -0.00000265    0.00000399    0.00001061
     atom   27 type  1   force =    -0.00001494   -0.00000826   -0.00002561
     atom   28 type  2   force =    -0.00000515   -0.00001798   -0.00000254
     atom   29 type  2   force =    -0.00000215    0.00001538    0.00000505
     atom   30 type  1   force =     0.00003025   -0.00001512   -0.00004077
     atom   31 type  2   force =     0.00000336   -0.00000659   -0.00001399
     atom   32 type  2   force =     0.00000235   -0.00000835   -0.00001269
     atom   33 type  1   force =    -0.00000453    0.00001224    0.00002540
     atom   34 type  2   force =    -0.00000051    0.00002583    0.00000587
     atom   35 type  2   force =     0.00000370   -0.00000525   -0.00000492
     atom   36 type  3   force =     0.00000054    0.00000368    0.00000261

     Total force =     0.006551     Total SCF correction =     0.000184
     Energy error            =      9.4E-05 Ry
     Gradient error          =      2.2E-03 Ry/Bohr

     bfgs converged in  14 scf cycles and  13 bfgs steps
     (criteria: energy <  1.0E-04 Ry, force <  1.0E-02 Ry/Bohr)

     End of BFGS Geometry Optimization

     Final energy             =   -2205.5870125887 Ry

     File ./MoS2-V-O.bfgs deleted, as requested
Begin final coordinates

ATOMIC_POSITIONS (angstrom)
Mo            6.5503638049        1.7484950834        2.7699708761
S             8.1242648587        0.8595460562        4.3821763583
S             8.1316317436        0.8394131769        1.1908022578
Mo            8.1267790309        4.4869567825        2.7081649827
S             6.5229786339        3.6620469285        4.3141354240
S             6.5427006502        3.5587386854        1.1213616803
Mo            6.5507992196        7.1493585693        2.6880619636
S             8.1171846208        6.2843877782        4.3074624420
S             8.1468235155        6.3119305037        1.1033606038
Mo            8.1427357124        9.9401886219        2.7885988316
S             6.5914561642        8.8628498688        4.4113041429
S             6.5874949356        9.0280046212        1.1615605433
Mo            3.4196260184        1.7747890740        2.7660279106
S             4.9774668659        0.8085180770        4.3426851088
S             4.9735900709        0.8445241132        1.1699184782
Mo            4.9929152320        4.5536879594        2.6723162539
S             3.4621215728        3.6833930938        4.3198530315
S             3.4413359263        3.5752068765        1.1164525519
Mo            3.4531023754        7.2032601069        2.6317168071
S             5.0145130618        6.3243481844        1.0483585885
Mo            4.9581106404        9.9076364299        2.7035014119
S             3.4527770429        8.9459320669        4.3112746076
S             3.3888641189        9.0581849349        1.0982493388
Mo            0.2614174682        1.7450930312        2.7762676697
S             1.8551022707        0.8563961975        4.3755603976
S             1.8437395571        0.8575818900        1.1786689255
Mo            1.8679979576        4.5028502262        2.7074135761
S             0.2718136672        3.6130989460        4.3145861652
S             0.2681957911        3.5519516603        1.1469994722
Mo            0.2726895631        7.2197515136        2.7227277390
S             1.9150468583        6.3215771504        4.2861715811
S             1.8376561205        6.3218076913        1.0861506748
Mo            1.8489348540        9.9457409261        2.7656638531
S             0.2802564527        9.0261781908        4.3536944434
S             0.2511023749        9.0628784129        1.1694368362
H             7.3840160382        8.5448985372        5.5156672906
End final coordinates



     Writing all to output data dir ./MoS2-V-O.save/
 
     init_run     :      2.36s CPU      2.66s WALL (       1 calls)
     electrons    :   1120.11s CPU   1252.34s WALL (      14 calls)
     update_pot   :     18.58s CPU     19.68s WALL (      13 calls)
     forces       :     20.04s CPU     23.66s WALL (      14 calls)

     Called by init_run:
     wfcinit      :      0.37s CPU      0.43s WALL (       1 calls)
     potinit      :      1.31s CPU      1.44s WALL (       1 calls)
     hinit0       :      0.16s CPU      0.18s WALL (       1 calls)

     Called by electrons:
     c_bands      :    160.02s CPU    162.90s WALL (     115 calls)
     sum_band     :     34.77s CPU     47.24s WALL (     115 calls)
     v_of_rho     :     51.51s CPU     63.89s WALL (     120 calls)
     newd         :     17.65s CPU     29.35s WALL (     120 calls)
     mix_rho      :    862.60s CPU    955.98s WALL (     115 calls)

     Called by c_bands:
     init_us_2    :      2.47s CPU      2.66s WALL (     231 calls)
     init_us_2:cp :      2.47s CPU      2.66s WALL (     231 calls)
     regterg      :    151.43s CPU    154.12s WALL (     115 calls)

     Called by *egterg:
     rdiaghg      :     11.21s CPU     11.35s WALL (     592 calls)
     h_psi        :     80.71s CPU     81.48s WALL (     615 calls)
     s_psi        :      9.52s CPU      9.56s WALL (     615 calls)
     g_psi        :      1.16s CPU      1.17s WALL (     499 calls)

     Called by h_psi:
     h_psi:calbec :     10.74s CPU     10.81s WALL (     615 calls)
     vloc_psi     :     57.92s CPU     58.54s WALL (     615 calls)
     add_vuspsi   :      9.70s CPU      9.78s WALL (     615 calls)

     General routines
     calbec       :     15.45s CPU     15.53s WALL (     786 calls)
     fft          :     34.19s CPU     39.86s WALL (    8140 calls)
     ffts         :    388.93s CPU    479.22s WALL (  210553 calls)
     fftw         :     49.20s CPU     49.64s WALL (   71159 calls)
     interpolate  :      0.88s CPU      1.03s WALL (     120 calls)
 
     Parallel routines
 
     PWSCF        :  19m23.84s CPU  21m43.36s WALL

 
   This run was terminated on:   8:36:46   4Nov2023            

=------------------------------------------------------------------------------=
   JOB DONE.
=------------------------------------------------------------------------------=
