
     Program PWSCF v.7.2 starts on  4Nov2023 at  3:49:50 

     This program is part of the open-source Quantum ESPRESSO suite
     for quantum simulation of materials; please cite
         "P. Giannozzi et al., J. Phys.:Condens. Matter 21 395502 (2009);
         "P. Giannozzi et al., J. Phys.:Condens. Matter 29 465901 (2017);
         "P. Giannozzi et al., J. Chem. Phys. 152 154105 (2020);
          URL http://www.quantum-espresso.org", 
     in publications or presentations arising from this work. More details at
     http://www.quantum-espresso.org/quote

     Parallel version (MPI & OpenMP), running on      48 processor cores
     Number of MPI processes:                48
     Threads/MPI process:                     1

     MPI processes distributed on     1 nodes
     52947 MiB available memory on the printing compute node when the environment starts
 
     Waiting for input...
     Reading input from standard input
Warning: card &CELL ignored
Warning: card CELL_DYNAMICS = 'BFGS', ignored
Warning: card CELL_DOFREE = '2DXY' ignored
Warning: card / ignored

     Current dimensions of program PWSCF are:
     Max number of different atomic species (ntypx) = 10
     Max number of k-points (npk) =  40000
     Max angular momentum in pseudopotentials (lmaxx) =  4

     IMPORTANT: XC functional enforced from input :
     Exchange-correlation= RVV10
                           (   1   4  13   4  26   0   0)
     Any further DFT definition will be discarded
     Please, verify this is what you really want


     gamma-point specific algorithms are used
     signal trapping enabled: kill the code with -SIGUSR1 to stop cleanly the simulation 
 
     R & G space division:  proc/nbgrp/npool/nimage =      48
     Subspace diagonalization in iterative solution of the eigenvalue problem:
     one sub-group per band group will be used
     scalapack distributed-memory algorithm (size of sub-group:  2*  2 procs)

 
     Parallelization info
     --------------------
     sticks:   dense  smooth     PW     G-vecs:    dense   smooth      PW
     Min         243     194     47                49060    35090    4376
     Max         246     196     50                49086    35128    4410
     Sum       11735    9389   2349              2355467  1685513  210763
 
     Using Slab Decomposition
 


     bravais-lattice index     =            0
     lattice parameter (alat)  =      17.8707  a.u.
     unit-cell volume          =   17436.2743 (a.u.)^3
     number of atoms/cell      =           36
     number of atomic types    =            3
     number of electrons       =       307.00
     number of Kohn-Sham states=          185
     kinetic-energy cutoff     =      80.0000  Ry
     charge density cutoff     =     400.0000  Ry
     scf convergence threshold =      1.0E-06
     mixing beta               =       0.7000
     number of iterations used =            8  local-TF  mixing
     energy convergence thresh.=      1.0E-04
     force convergence thresh. =      1.0E-02
     Exchange-correlation= RVV10
                           (   1   4  13   4  26   0   0)
     nstep                     =          200


     celldm(1)=  17.870686  celldm(2)=   0.000000  celldm(3)=   0.000000
     celldm(4)=   0.000000  celldm(5)=   0.000000  celldm(6)=   0.000000

     crystal axes: (cart. coord. in units of alat)
               a(1) = (   1.000000   0.000000   0.000000 )  
               a(2) = (   0.000000   1.155671   0.000000 )  
               a(3) = (   0.000000   0.000000   2.643601 )  

     reciprocal axes: (cart. coord. in units 2 pi/alat)
               b(1) = (  1.000000  0.000000  0.000000 )  
               b(2) = (  0.000000  0.865298  0.000000 )  
               b(3) = (  0.000000  0.000000  0.378272 )  


     PseudoPot. # 1 for Mo read from file:
     ../pseudo/Mo_ONCV_PBE-1.0.oncvpsp.upf
     MD5 check sum: 1b5d28e075c9ccadda658a603575cd1f
     Pseudo is Norm-conserving, Zval = 14.0
     Generated using ONCVPSP code by D. R. Hamann
     Using radial grid of 1526 points,  6 beta functions with: 
                l(1) =   0
                l(2) =   0
                l(3) =   1
                l(4) =   1
                l(5) =   2
                l(6) =   2

     PseudoPot. # 2 for S  read from file:
     ../pseudo/s_pbe_v1.4.uspp.F.UPF
     MD5 check sum: 88d86576ff6df21479756cfb9bdac1df
     Pseudo is Ultrasoft + core correction, Zval =  6.0
     Generated by new atomic code, or converted to UPF format
     Using radial grid of  907 points,  6 beta functions with: 
                l(1) =   0
                l(2) =   0
                l(3) =   1
                l(4) =   1
                l(5) =   2
                l(6) =   2
     Q(r) pseudized with  8 coefficients,  rinner =    1.300   1.300   1.300
                                                       1.300   1.300

     PseudoPot. # 3 for H  read from file:
     ../pseudo/H_ONCV_PBE-1.0.oncvpsp.upf
     MD5 check sum: 1790becc920ee074925cf490c71280fe
     Pseudo is Norm-conserving, Zval =  1.0
     Generated using ONCVPSP code by D. R. Hamann
     Using radial grid of 1166 points,  2 beta functions with: 
                l(1) =   0
                l(2) =   0

     atomic species   valence    mass     pseudopotential
        Mo            14.00    95.94000     Mo( 1.00)
        S              6.00    32.06500     S ( 1.00)
        H              1.00     1.00794     H ( 1.00)

     No symmetry found



   Cartesian axes

     site n.     atom                  positions (alat units)
         1           Mo  tau(   1) = (   0.6952221   0.1890506   0.2985846  )
         2           S   tau(   2) = (   0.8646417   0.0856217   0.4689279  )
         3           S   tau(   3) = (   0.8663890   0.0857843   0.1351291  )
         4           Mo  tau(   4) = (   0.8560186   0.4753274   0.2873942  )
         5           S   tau(   5) = (   0.6873294   0.3936244   0.4596353  )
         6           S   tau(   6) = (   0.6929804   0.3713468   0.1185692  )
         7           Mo  tau(   7) = (   0.6862796   0.7633098   0.2825370  )
         8           S   tau(   8) = (   0.8545980   0.6708292   0.4486168  )
         9           S   tau(   9) = (   0.8545123   0.6666874   0.1146125  )
        10           Mo  tau(  10) = (   0.8629403   1.0471007   0.3006803  )
        11           S   tau(  11) = (   0.6868280   0.9456650   0.4634891  )
        12           S   tau(  12) = (   0.6998113   0.9568511   0.1205389  )
        13           Mo  tau(  13) = (   0.3618216   0.1847309   0.2935964  )
        14           S   tau(  14) = (   0.5260962   0.0863870   0.4600448  )
        15           S   tau(  15) = (   0.5348379   0.0894875   0.1297123  )
        16           Mo  tau(  16) = (   0.5265817   0.4772436   0.2784130  )
        17           S   tau(  17) = (   0.3624753   0.3882513   0.4525556  )
        18           S   tau(  18) = (   0.3635411   0.3752055   0.1119148  )
        19           Mo  tau(  19) = (   0.3652268   0.7630864   0.2781795  )
        20           S   tau(  20) = (   0.5269494   0.6690381   0.1096838  )
        21           Mo  tau(  21) = (   0.5300192   1.0470394   0.2900995  )
        22           S   tau(  22) = (   0.3670346   0.9457522   0.4574073  )
        23           S   tau(  23) = (   0.3604225   0.9585725   0.1159032  )
        24           Mo  tau(  24) = (   0.0313099   0.1847895   0.3013130  )
        25           S   tau(  25) = (   0.1956761   0.0838230   0.4650863  )
        26           S   tau(  26) = (   0.1967693   0.0903508   0.1278874  )
        27           Mo  tau(  27) = (   0.1967578   0.4753919   0.2813011  )
        28           S   tau(  28) = (   0.0287851   0.3864324   0.4586755  )
        29           S   tau(  29) = (   0.0244514   0.3729871   0.1239344  )
        30           Mo  tau(  30) = (   0.0286728   0.7631204   0.2856894  )
        31           S   tau(  31) = (   0.2011512   0.6675435   0.4465001  )
        32           S   tau(  32) = (   0.1969214   0.6672839   0.1104564  )
        33           Mo  tau(  33) = (   0.1950294   1.0511147   0.2932237  )
        34           S   tau(  34) = (   0.0312912   0.9612169   0.4667423  )
        35           S   tau(  35) = (   0.0292670   0.9563028   0.1216485  )
        36           H   tau(  36) = (   0.1111111   0.6420393   0.5792558  )

     number of k points=     1  Gaussian smearing, width (Ry)=  0.0100
                       cart. coord. in units 2pi/alat
        k(    1) = (   0.0000000   0.0000000   0.0000000), wk =   2.0000000

     Dense  grid:  1177734 G-vectors     FFT dimensions: ( 120, 135, 320)

     Smooth grid:   842757 G-vectors     FFT dimensions: ( 108, 120, 270)

     Estimated max dynamical RAM per process >     146.59 MB

     Estimated total dynamical RAM >       6.87 GB

     Initial potential from superposition of free atoms

     starting charge     306.9873, renormalised to     307.0000

     negative rho (up, down):  1.402E-04 0.000E+00


---------------------------------------------------------------------------------
Carrying out rVV10 run using the following parameters:
Nqs =      20    Nr_points =    1024   r_max =   100.000
b_value =  6.30000    beta =  0.00901
     q_mesh =  0.00010000  0.00030000  0.00058939  0.00100810
               0.00161396  0.00249058  0.00375900  0.00559430
               0.00824984  0.01209221  0.01765183  0.02569619
               0.03733578  0.05417739  0.07854596  0.11380545
               0.16482331  0.23864234  0.34545298  0.50000000

Gradients computed in Reciprocal space

---------------------------------------------------------------------------------


     Starting wfcs are  213 randomized atomic wfcs

     total cpu time spent up to now is        2.8 secs

     Self-consistent Calculation

     iteration #  1     ecut=    80.00 Ry     beta= 0.70
     Davidson diagonalization with overlap
     ethr =  1.00E-02,  avg # of iterations =  2.0

     Threshold (ethr) on eigenvalues was too large:
     Diagonalizing with lowered threshold

     Davidson diagonalization with overlap
     ethr =  3.80E-04,  avg # of iterations =  4.0

     negative rho (up, down):  1.865E-08 0.000E+00

     total cpu time spent up to now is       23.0 secs

     total energy              =   -2205.62960957 Ry
     estimated scf accuracy    <       1.45191579 Ry

     iteration #  2     ecut=    80.00 Ry     beta= 0.70
     Davidson diagonalization with overlap
     ethr =  4.73E-04,  avg # of iterations =  1.0

     total cpu time spent up to now is       25.3 secs

     total energy              =   -2205.43927576 Ry
     estimated scf accuracy    <       0.60734097 Ry

     iteration #  3     ecut=    80.00 Ry     beta= 0.70
     Davidson diagonalization with overlap
     ethr =  1.98E-04,  avg # of iterations =  6.0

     total cpu time spent up to now is       27.9 secs

     total energy              =   -2205.55302389 Ry
     estimated scf accuracy    <       0.07253658 Ry

     iteration #  4     ecut=    80.00 Ry     beta= 0.70
     Davidson diagonalization with overlap
     c_bands:  2 eigenvalues not converged
     ethr =  2.36E-05,  avg # of iterations = 20.0

     total cpu time spent up to now is       31.1 secs

     total energy              =   -2205.55591282 Ry
     estimated scf accuracy    <       0.03135216 Ry

     iteration #  5     ecut=    80.00 Ry     beta= 0.70
     Davidson diagonalization with overlap
     c_bands:  1 eigenvalues not converged
     ethr =  1.02E-05,  avg # of iterations = 20.0

     total cpu time spent up to now is       33.9 secs

     total energy              =   -2205.55501424 Ry
     estimated scf accuracy    <       0.01894514 Ry

     iteration #  6     ecut=    80.00 Ry     beta= 0.70
     Davidson diagonalization with overlap
     ethr =  6.17E-06,  avg # of iterations =  2.0

     total cpu time spent up to now is       36.0 secs

     total energy              =   -2205.55421110 Ry
     estimated scf accuracy    <       0.01161268 Ry

     iteration #  7     ecut=    80.00 Ry     beta= 0.70
     Davidson diagonalization with overlap
     ethr =  3.78E-06,  avg # of iterations =  2.0

     total cpu time spent up to now is       39.3 secs

     total energy              =   -2205.55266605 Ry
     estimated scf accuracy    <       0.00731536 Ry

     iteration #  8     ecut=    80.00 Ry     beta= 0.70
     Davidson diagonalization with overlap
     c_bands:  2 eigenvalues not converged
     ethr =  2.38E-06,  avg # of iterations = 20.0

     negative rho (up, down):  4.391E-03 0.000E+00

     total cpu time spent up to now is       44.4 secs

     total energy              =   -2205.55208125 Ry
     estimated scf accuracy    <       0.00400845 Ry

     iteration #  9     ecut=    80.00 Ry     beta= 0.70
     Davidson diagonalization with overlap
     ethr =  1.31E-06,  avg # of iterations = 12.0

     negative rho (up, down):  2.765E-02 0.000E+00

     total cpu time spent up to now is       50.3 secs

     total energy              =   -2205.55191678 Ry
     estimated scf accuracy    <       0.00246248 Ry

     iteration # 10     ecut=    80.00 Ry     beta= 0.70
     Davidson diagonalization with overlap
     ethr =  8.02E-07,  avg # of iterations =  2.0

     negative rho (up, down):  2.890E-02 0.000E+00

     total cpu time spent up to now is       54.8 secs

     total energy              =   -2205.55196231 Ry
     estimated scf accuracy    <       0.00103254 Ry

     iteration # 11     ecut=    80.00 Ry     beta= 0.70
     Davidson diagonalization with overlap
     ethr =  3.36E-07,  avg # of iterations =  2.0

     negative rho (up, down):  1.567E-02 0.000E+00

     total cpu time spent up to now is       59.7 secs

     total energy              =   -2205.55201624 Ry
     estimated scf accuracy    <       0.00018000 Ry

     iteration # 12     ecut=    80.00 Ry     beta= 0.70
     Davidson diagonalization with overlap
     ethr =  5.86E-08,  avg # of iterations =  8.0

     negative rho (up, down):  2.728E-03 0.000E+00

     total cpu time spent up to now is       66.7 secs

     total energy              =   -2205.55207826 Ry
     estimated scf accuracy    <       0.00003570 Ry

     iteration # 13     ecut=    80.00 Ry     beta= 0.70
     Davidson diagonalization with overlap
     ethr =  1.16E-08,  avg # of iterations =  5.0

     negative rho (up, down):  9.638E-04 0.000E+00

     total cpu time spent up to now is       73.4 secs

     total energy              =   -2205.55208484 Ry
     estimated scf accuracy    <       0.00000727 Ry

     iteration # 14     ecut=    80.00 Ry     beta= 0.70
     Davidson diagonalization with overlap
     ethr =  2.37E-09,  avg # of iterations =  5.0

     negative rho (up, down):  3.816E-04 0.000E+00

     total cpu time spent up to now is       81.7 secs

     total energy              =   -2205.55208780 Ry
     estimated scf accuracy    <       0.00000144 Ry

     iteration # 15     ecut=    80.00 Ry     beta= 0.70
     Davidson diagonalization with overlap
     ethr =  4.69E-10,  avg # of iterations =  4.0

     negative rho (up, down):  1.364E-04 0.000E+00

     total cpu time spent up to now is       83.8 secs

     End of self-consistent calculation

          k = 0.0000 0.0000 0.0000 (105382 PWs)   bands (ev):

   -62.8619 -62.8187 -62.8111 -62.8059 -62.7855 -62.7803 -62.7736 -62.7649
   -62.7577 -62.6661 -62.6512 -62.6299 -37.1785 -37.1121 -37.1033 -37.0870
   -37.0788 -37.0557 -37.0482 -37.0273 -37.0186 -37.0137 -37.0035 -36.9974
   -36.9887 -36.9795 -36.9719 -36.9634 -36.9608 -36.9585 -36.9515 -36.9335
   -36.9207 -36.9121 -36.8860 -36.8704 -36.8529 -36.8397 -36.8359 -36.8210
   -36.8147 -36.8107 -36.8062 -36.7841 -36.7777 -36.7499 -36.6556 -36.5637
   -16.0921 -15.5836 -15.1308 -14.9936 -14.8537 -14.7757 -14.6807 -14.4477
   -14.4105 -14.3683 -14.3150 -14.2821 -14.2668 -14.2227 -14.1569 -14.0874
   -14.0669 -14.0469 -13.9783 -13.8836 -13.7900 -13.7713 -13.7465  -8.5300
    -7.6343  -7.3819  -7.2870  -7.2075  -7.1860  -7.1422  -7.1052  -7.0747
    -6.7840  -6.7746  -6.6993  -6.6459  -6.5987  -6.4655  -6.4015  -6.3589
    -6.2722  -6.2006  -6.1807  -5.9539  -5.8936  -5.8456  -5.7778  -5.7237
    -5.6991  -5.6764  -5.6323  -5.6090  -5.5883  -5.5358  -5.4782  -5.4423
    -5.4082  -5.3837  -5.1580  -5.1141  -5.0221  -4.9560  -4.9326  -4.8904
    -4.8542  -4.8119  -4.6575  -4.5127  -4.4688  -4.2544  -4.2403  -4.1867
    -4.1191  -4.0191  -3.9713  -3.9198  -3.7810  -3.7633  -3.6942  -3.6613
    -3.6472  -3.5083  -3.5027  -3.4753  -3.4262  -3.4110  -3.3976  -3.3378
    -3.3062  -3.1897  -3.0880  -2.8576  -2.8254  -2.7709  -2.7239  -2.6811
    -2.6693  -2.6520  -2.5921  -2.5729  -2.5187  -2.2266  -2.0095  -1.9552
    -1.9268  -0.8450  -0.7322  -0.4805  -0.1363  -0.1002  -0.0772  -0.0046
     0.1345   0.1934   0.2560   0.2925   0.3226   0.3545   0.3796   0.4739
     0.5052   0.5760   0.5877   0.6214   0.6710   0.7110   0.7620   0.8040
     0.8344   0.8474   0.8800   0.9064   0.9955   1.0430   1.0710   1.3827
     1.4067

     the Fermi energy is    -0.8652 ev

!    total energy              =   -2205.55208839 Ry
     estimated scf accuracy    <       0.00000077 Ry
     smearing contrib. (-TS)   =      -0.00768783 Ry
     internal energy E=F+TS    =   -2205.54440056 Ry

     The total energy is F=E-TS. E is the sum of the following terms:
     one-electron contribution =  -18043.84191377 Ry
     hartree contribution      =    9009.13525250 Ry
     xc contribution           =    -385.28102214 Ry
     ewald contribution        =    7214.44328285 Ry

     convergence has been achieved in  15 iterations

     negative rho (up, down):  1.364E-04 0.000E+00

     Forces acting on atoms (cartesian axes, Ry/au):

     atom    1 type  1   force =     0.01280807   -0.02449459    0.00515597
     atom    2 type  2   force =    -0.01546879    0.01690411    0.00113080
     atom    3 type  2   force =    -0.01076811    0.00922252   -0.00269056
     atom    4 type  1   force =     0.00720578    0.00267859   -0.00042287
     atom    5 type  2   force =    -0.00050529   -0.00599423   -0.00628493
     atom    6 type  2   force =     0.00060673    0.00951117   -0.00009686
     atom    7 type  1   force =     0.01214595   -0.01806620   -0.00649741
     atom    8 type  2   force =    -0.00017221   -0.00234370    0.01566366
     atom    9 type  2   force =     0.01289207    0.00611251    0.01222793
     atom   10 type  1   force =    -0.01177668    0.00729829   -0.02714798
     atom   11 type  2   force =     0.00480669   -0.00069173   -0.00629320
     atom   12 type  2   force =    -0.00320079    0.00408900    0.00671094
     atom   13 type  1   force =     0.00566729    0.00726085   -0.00576529
     atom   14 type  2   force =     0.00777524    0.00062543    0.01129282
     atom   15 type  2   force =    -0.01237236    0.00171848   -0.00798532
     atom   16 type  1   force =     0.00601557    0.01574473    0.00328561
     atom   17 type  2   force =     0.00858478   -0.00427840    0.00442151
     atom   18 type  2   force =    -0.00530552   -0.00841428    0.01061127
     atom   19 type  1   force =     0.00953172   -0.00539784   -0.00936347
     atom   20 type  2   force =     0.00133818   -0.00261613    0.00230945
     atom   21 type  1   force =     0.00241354    0.00996281    0.00055761
     atom   22 type  2   force =    -0.00181327    0.00592919   -0.00613996
     atom   23 type  2   force =     0.00029873   -0.00055036    0.00756841
     atom   24 type  1   force =    -0.01296714   -0.00335281   -0.02265353
     atom   25 type  2   force =     0.01684336    0.01784063    0.00689762
     atom   26 type  2   force =    -0.01037016   -0.00112638   -0.00391806
     atom   27 type  1   force =    -0.00784419    0.00203720    0.01078074
     atom   28 type  2   force =     0.00124742   -0.00202733   -0.00406262
     atom   29 type  2   force =     0.00438086   -0.00066740   -0.00343008
     atom   30 type  1   force =    -0.00384227    0.00985956   -0.00830870
     atom   31 type  2   force =    -0.05949289   -0.02182511    0.05624931
     atom   32 type  2   force =    -0.00965935    0.00762079    0.00863107
     atom   33 type  1   force =     0.01166092   -0.00685491   -0.00945455
     atom   34 type  2   force =     0.00308127   -0.04125488   -0.01061126
     atom   35 type  2   force =    -0.00686160    0.00867129    0.01563729
     atom   36 type  3   force =     0.04311646    0.00686911   -0.03800536
     The non-local contrib.  to forces
     atom    1 type  1   force =    -0.00364506    0.02892783   -0.01052923
     atom    2 type  2   force =    -0.01157097    0.00232161   -0.27025543
     atom    3 type  2   force =    -0.01434234   -0.00269674    0.27050651
     atom    4 type  1   force =    -0.00347298    0.00397921    0.00451711
     atom    5 type  2   force =     0.00722873   -0.03188614   -0.25181162
     atom    6 type  2   force =    -0.00243691    0.01239921    0.26245657
     atom    7 type  1   force =    -0.03795747    0.00249446   -0.01250824
     atom    8 type  2   force =     0.00404205   -0.00873564   -0.23788100
     atom    9 type  2   force =     0.00950567   -0.00686467    0.27906329
     atom   10 type  1   force =     0.00013852    0.00188086   -0.00202945
     atom   11 type  2   force =     0.01440906    0.00467410   -0.25872426
     atom   12 type  2   force =    -0.01256277   -0.01558944    0.26309847
     atom   13 type  1   force =     0.00141681    0.01825581   -0.00799092
     atom   14 type  2   force =     0.01104692   -0.01043575   -0.26186870
     atom   15 type  2   force =    -0.01396109   -0.00500183    0.26035812
     atom   16 type  1   force =    -0.00334612    0.03606076   -0.02534672
     atom   17 type  2   force =     0.00380771   -0.03136315   -0.24662396
     atom   18 type  2   force =    -0.00747771   -0.00414410    0.27423709
     atom   19 type  1   force =     0.01225210   -0.02333601   -0.01593941
     atom   20 type  2   force =    -0.00270374   -0.01799383    0.26645116
     atom   21 type  1   force =     0.00557472    0.02490549    0.00552045
     atom   22 type  2   force =    -0.00077300    0.01369688   -0.24993423
     atom   23 type  2   force =     0.00435912   -0.01975778    0.26947972
     atom   24 type  1   force =     0.00646703    0.01277002   -0.01247423
     atom   25 type  2   force =     0.00947501    0.00380646   -0.25980444
     atom   26 type  2   force =    -0.00262667   -0.01422502    0.26429331
     atom   27 type  1   force =     0.00376037    0.01067683    0.00212317
     atom   28 type  2   force =    -0.00399380   -0.01598641   -0.26581046
     atom   29 type  2   force =     0.01109624    0.00430900    0.26525166
     atom   30 type  1   force =    -0.00462147    0.01945246    0.00994840
     atom   31 type  2   force =    -0.21268197   -0.05017709    0.16254019
     atom   32 type  2   force =    -0.00620712   -0.00846012    0.28020568
     atom   33 type  1   force =    -0.00479875    0.01232545    0.00400341
     atom   34 type  2   force =    -0.00102644   -0.04337001   -0.26693304
     atom   35 type  2   force =    -0.00267306   -0.01296711    0.27193903
     atom   36 type  3   force =     0.02224396    0.00583061   -0.03102588
     The ionic contribution  to forces
     atom    1 type  1   force =     0.35871954    0.16414389    5.69758242
     atom    2 type  2   force =    -0.69330368    0.39303605   39.27925053
     atom    3 type  2   force =    -0.17483654    0.01159318  -36.08040185
     atom    4 type  1   force =    -0.12066886    0.41242829    0.44028122
     atom    5 type  2   force =    -1.01218945    1.42571309   38.72972406
     atom    6 type  2   force =     0.33522798   -0.52428899  -38.03306944
     atom    7 type  1   force =    -2.69654849   -2.70281492    2.46865477
     atom    8 type  2   force =    -1.33453685    0.07355543   37.21256746
     atom    9 type  2   force =     0.30603035   -0.02989208  -38.05857344
     atom   10 type  1   force =    -1.17604523   -0.18811638    5.62014285
     atom   11 type  2   force =    -0.59760290   -1.53683269   39.12870693
     atom   12 type  2   force =     0.43278896    0.71706704  -37.85647019
     atom   13 type  1   force =     0.54057238    0.89592532    2.82673124
     atom   14 type  2   force =     0.07387501   -0.01488554   38.52119586
     atom   15 type  2   force =     0.16263019   -0.06747719  -36.79306190
     atom   16 type  1   force =     0.05780152    3.86154633    0.39285759
     atom   17 type  2   force =     0.94687397    1.34470752   37.87079160
     atom   18 type  2   force =    -0.13891409   -0.67765175  -38.58988556
     atom   19 type  1   force =     2.95057398   -2.30518863    0.38981498
     atom   20 type  2   force =     0.24469015   -0.19237599  -38.50276483
     atom   21 type  1   force =     0.07259802    0.13115288    1.15872464
     atom   22 type  2   force =     0.55642879   -1.58137426   38.39175537
     atom   23 type  2   force =    -0.06733116    0.69780232  -38.30615404
     atom   24 type  1   force =    -0.58305918    1.00958161    5.78050824
     atom   25 type  2   force =     0.67299876    0.26717599   39.26102395
     atom   26 type  2   force =    -0.28311734    0.05878304  -37.33406263
     atom   27 type  1   force =     0.17005849    0.10557868   -2.72619478
     atom   28 type  2   force =    -0.05885576    0.65744427   38.05637867
     atom   29 type  2   force =    -0.27898814   -0.47332616  -37.31305448
     atom   30 type  1   force =    -0.52008174   -0.61997397   -0.63570253
     atom   31 type  2   force =     2.00030339    0.16809210   36.19364518
     atom   32 type  2   force =    -0.46035672    0.00230673  -38.72910955
     atom   33 type  1   force =     0.83353293   -0.68216791    1.98026407
     atom   34 type  2   force =     0.17680168   -1.19235018   39.27891318
     atom   35 type  2   force =    -0.31121254    0.52126507  -37.84889942
     atom   36 type  3   force =    -0.38485741   -0.13018217    8.12788983
     The local contribution  to forces
     atom    1 type  1   force =    -0.34222483   -0.21779364   -5.68081499
     atom    2 type  2   force =     0.68911590   -0.37834969  -39.02796305
     atom    3 type  2   force =     0.17778853    0.00026791   35.82831562
     atom    4 type  1   force =     0.13158356   -0.41369885   -0.44425747
     atom    5 type  2   force =     1.00526467   -1.40173608  -38.50378667
     atom    6 type  2   force =    -0.33237104    0.52247138   37.79144754
     atom    7 type  1   force =     2.74682720    2.68266918   -2.46169281
     atom    8 type  2   force =     1.33074209   -0.06778468  -36.97799405
     atom    9 type  2   force =    -0.30239588    0.04251653   37.81307971
     atom   10 type  1   force =     1.16405853    0.19342919   -5.64415590
     atom   11 type  2   force =     0.58871697    1.53197071  -38.89632606
     atom   12 type  2   force =    -0.42457720   -0.69874293   37.62117881
     atom   13 type  1   force =    -0.53630650   -0.90710572   -2.82345859
     atom   14 type  2   force =    -0.07657962    0.02585930  -38.26799042
     atom   15 type  2   force =    -0.16180800    0.07382429   36.54545351
     atom   16 type  1   force =    -0.04838426   -3.88197878   -0.36328161
     atom   17 type  2   force =    -0.94219994   -1.31924970  -37.63908663
     atom   18 type  2   force =     0.14069159    0.67369440   38.34739110
     atom   19 type  1   force =    -2.95329676    2.32356129   -0.38226387
     atom   20 type  2   force =    -0.24085457    0.20732695   38.25996301
     atom   21 type  1   force =    -0.07566001   -0.14623316   -1.16267180
     atom   22 type  2   force =    -0.55744550    1.57438696  -38.16750868
     atom   23 type  2   force =     0.06373403   -0.68006739   38.06537485
     atom   24 type  1   force =     0.56355508   -1.02573832   -5.78954029
     atom   25 type  2   force =    -0.66555584   -0.25281538  -39.01435988
     atom   26 type  2   force =     0.27553777   -0.04646152   37.08694821
     atom   27 type  1   force =    -0.18193792   -0.11427126    2.73581442
     atom   28 type  2   force =     0.06395600   -0.64465840  -37.81445681
     atom   29 type  2   force =     0.27306176    0.46902861   37.06523968
     atom   30 type  1   force =     0.52077930    0.61049175    0.61842524
     atom   31 type  2   force =    -1.85994041   -0.14284977  -36.29582239
     atom   32 type  2   force =     0.45678351    0.01325946   38.47904207
     atom   33 type  1   force =    -0.81709789    0.66290074   -1.99267050
     atom   34 type  2   force =    -0.17304497    1.19286476  -39.04275281
     atom   35 type  2   force =     0.30704863   -0.50073013   37.61395421
     atom   36 type  3   force =     0.40573065    0.13122183   -8.13480575
     The core correction contribution to forces
     atom    1 type  1   force =     0.00000000    0.00000000    0.00000000
     atom    2 type  2   force =     0.00029590   -0.00014904    0.02071805
     atom    3 type  2   force =     0.00062237    0.00002292   -0.02090324
     atom    4 type  1   force =     0.00000000    0.00000000    0.00000000
     atom    5 type  2   force =    -0.00070098    0.00178185    0.02025544
     atom    6 type  2   force =     0.00028876   -0.00117015   -0.02084197
     atom    7 type  1   force =     0.00000000    0.00000000    0.00000000
     atom    8 type  2   force =    -0.00041484    0.00071799    0.01947148
     atom    9 type  2   force =    -0.00027105    0.00044592   -0.02109840
     atom   10 type  1   force =     0.00000000    0.00000000    0.00000000
     atom   11 type  2   force =    -0.00069462   -0.00049536    0.02054030
     atom   12 type  2   force =     0.00114878    0.00128602   -0.02081585
     atom   13 type  1   force =     0.00000000    0.00000000    0.00000000
     atom   14 type  2   force =    -0.00054935    0.00003295    0.02058399
     atom   15 type  2   force =     0.00077118    0.00032172   -0.02053689
     atom   16 type  1   force =     0.00000000    0.00000000    0.00000000
     atom   17 type  2   force =     0.00000112    0.00150202    0.01998082
     atom   18 type  2   force =     0.00030304   -0.00042253   -0.02104851
     atom   19 type  1   force =     0.00000000    0.00000000    0.00000000
     atom   20 type  2   force =     0.00026588    0.00064004   -0.02122021
     atom   21 type  1   force =     0.00000000    0.00000000    0.00000000
     atom   22 type  2   force =     0.00000271   -0.00077086    0.02007086
     atom   23 type  2   force =    -0.00042337    0.00144922   -0.02092367
     atom   24 type  1   force =     0.00000000    0.00000000    0.00000000
     atom   25 type  2   force =    -0.00009525   -0.00033519    0.02063326
     atom   26 type  2   force =    -0.00016024    0.00077307   -0.02090549
     atom   27 type  1   force =     0.00000000    0.00000000    0.00000000
     atom   28 type  2   force =     0.00013803    0.00113155    0.02039564
     atom   29 type  2   force =    -0.00079096   -0.00069392   -0.02066780
     atom   30 type  1   force =     0.00000000    0.00000000    0.00000000
     atom   31 type  2   force =     0.01277416    0.00317430   -0.00348614
     atom   32 type  2   force =     0.00008799    0.00055806   -0.02134883
     atom   33 type  1   force =     0.00000000    0.00000000    0.00000000
     atom   34 type  2   force =     0.00031029    0.00161683    0.02071978
     atom   35 type  2   force =    -0.00006219    0.00108626   -0.02114933
     atom   36 type  3   force =     0.00000000    0.00000000    0.00000000
     The Hubbard contrib.    to forces
     atom    1 type  1   force =     0.00000000    0.00000000    0.00000000
     atom    2 type  2   force =     0.00000000    0.00000000    0.00000000
     atom    3 type  2   force =     0.00000000    0.00000000    0.00000000
     atom    4 type  1   force =     0.00000000    0.00000000    0.00000000
     atom    5 type  2   force =     0.00000000    0.00000000    0.00000000
     atom    6 type  2   force =     0.00000000    0.00000000    0.00000000
     atom    7 type  1   force =     0.00000000    0.00000000    0.00000000
     atom    8 type  2   force =     0.00000000    0.00000000    0.00000000
     atom    9 type  2   force =     0.00000000    0.00000000    0.00000000
     atom   10 type  1   force =     0.00000000    0.00000000    0.00000000
     atom   11 type  2   force =     0.00000000    0.00000000    0.00000000
     atom   12 type  2   force =     0.00000000    0.00000000    0.00000000
     atom   13 type  1   force =     0.00000000    0.00000000    0.00000000
     atom   14 type  2   force =     0.00000000    0.00000000    0.00000000
     atom   15 type  2   force =     0.00000000    0.00000000    0.00000000
     atom   16 type  1   force =     0.00000000    0.00000000    0.00000000
     atom   17 type  2   force =     0.00000000    0.00000000    0.00000000
     atom   18 type  2   force =     0.00000000    0.00000000    0.00000000
     atom   19 type  1   force =     0.00000000    0.00000000    0.00000000
     atom   20 type  2   force =     0.00000000    0.00000000    0.00000000
     atom   21 type  1   force =     0.00000000    0.00000000    0.00000000
     atom   22 type  2   force =     0.00000000    0.00000000    0.00000000
     atom   23 type  2   force =     0.00000000    0.00000000    0.00000000
     atom   24 type  1   force =     0.00000000    0.00000000    0.00000000
     atom   25 type  2   force =     0.00000000    0.00000000    0.00000000
     atom   26 type  2   force =     0.00000000    0.00000000    0.00000000
     atom   27 type  1   force =     0.00000000    0.00000000    0.00000000
     atom   28 type  2   force =     0.00000000    0.00000000    0.00000000
     atom   29 type  2   force =     0.00000000    0.00000000    0.00000000
     atom   30 type  1   force =     0.00000000    0.00000000    0.00000000
     atom   31 type  2   force =     0.00000000    0.00000000    0.00000000
     atom   32 type  2   force =     0.00000000    0.00000000    0.00000000
     atom   33 type  1   force =     0.00000000    0.00000000    0.00000000
     atom   34 type  2   force =     0.00000000    0.00000000    0.00000000
     atom   35 type  2   force =     0.00000000    0.00000000    0.00000000
     atom   36 type  3   force =     0.00000000    0.00000000    0.00000000
     The SCF correction term to forces
     atom    1 type  1   force =    -0.00004064    0.00022340   -0.00105794
     atom    2 type  2   force =    -0.00000500    0.00004126   -0.00059501
     atom    3 type  2   force =     0.00000082    0.00003133   -0.00018331
     atom    4 type  1   force =    -0.00023500   -0.00003399   -0.00093945
     atom    5 type  2   force =    -0.00010732    0.00012912   -0.00064186
     atom    6 type  2   force =    -0.00010113    0.00009579   -0.00006528
     atom    7 type  1   force =    -0.00017436   -0.00041884   -0.00092684
     atom    8 type  2   force =    -0.00000372   -0.00010073   -0.00047595
     atom    9 type  2   force =     0.00002392   -0.00009712   -0.00021896
     atom   10 type  1   force =     0.00007244    0.00010068   -0.00108120
     atom   11 type  2   force =    -0.00002089   -0.00001242   -0.00046582
     atom   12 type  2   force =     0.00000238    0.00006437   -0.00025602
     atom   13 type  1   force =    -0.00001447    0.00018151   -0.00102274
     atom   14 type  2   force =    -0.00001678    0.00005054   -0.00060363
     atom   15 type  2   force =    -0.00000369    0.00004756   -0.00017388
     atom   16 type  1   force =    -0.00005463    0.00011249   -0.00091937
     atom   17 type  2   force =     0.00010286    0.00012099   -0.00061605
     atom   18 type  2   force =     0.00009258    0.00010577   -0.00005857
     atom   19 type  1   force =     0.00000334   -0.00043842   -0.00095088
     atom   20 type  2   force =    -0.00005860   -0.00021723   -0.00009539
     atom   21 type  1   force =    -0.00009825    0.00013366   -0.00099139
     atom   22 type  2   force =    -0.00002533   -0.00001345   -0.00049900
     atom   23 type  2   force =    -0.00003895    0.00001934   -0.00018416
     atom   24 type  1   force =     0.00007087    0.00002996   -0.00112296
     atom   25 type  2   force =     0.00002161    0.00000482   -0.00057098
     atom   26 type  2   force =    -0.00000274    0.00000012   -0.00016718
     atom   27 type  1   force =     0.00027582    0.00004902   -0.00093779
     atom   28 type  2   force =     0.00000389    0.00003774   -0.00054537
     atom   29 type  2   force =     0.00000290    0.00001113   -0.00017486
     atom   30 type  1   force =     0.00008258   -0.00011461   -0.00095554
     atom   31 type  2   force =     0.00005288   -0.00006858   -0.00060324
     atom   32 type  2   force =     0.00003393   -0.00004727   -0.00013402
     atom   33 type  1   force =     0.00002557    0.00008288   -0.00102724
     atom   34 type  2   force =     0.00004165   -0.00002020   -0.00053409
     atom   35 type  2   force =     0.00003850    0.00001328   -0.00018291
     atom   36 type  3   force =     0.00000020   -0.00000509   -0.00003927

     Total force =     0.143675     Total SCF correction =     0.004079

     BFGS Geometry Optimization
     Energy error            =      0.0E+00 Ry
     Gradient error          =      5.9E-02 Ry/Bohr

     number of scf cycles    =   1
     number of bfgs steps    =   0

     energy             new  =   -2205.5520883896 Ry

     new trust radius        =       0.0847332566 bohr
     new conv_thr            =       0.0000010000 Ry


ATOMIC_POSITIONS (angstrom)
Mo            6.5813261497        1.7748442491        2.8263714539
S             8.1685236061        0.8186492965        4.4351367485
S             8.1875348490        0.8161220934        1.2764596433
Mo            8.0989757011        4.4964743949        2.7175946193
S             6.4996418670        3.7192394776        4.3433348072
S             6.5536708646        3.5167706494        1.1212289693
Mo            6.4964090550        7.2088770643        2.6684462052
S             8.0816365989        6.3426307605        4.2507504143
S             8.0877398352        6.3079369177        1.0903337382
Mo            8.1543870985        9.9060425012        2.8290956661
S             6.4977111865        8.9425607667        4.3797753130
S             6.6162534120        9.0508750174        1.1434585803
Mo            3.4246586624        1.7507981276        2.7734203041
S             4.9792799690        0.8172721748        4.3565089935
S             5.0512865849        0.8471714888        1.2224328106
Mo            4.9829399846        4.5215097563        2.6346232212
S             3.4323845332        3.6693356564        4.2820493398
S             3.4351130190        3.5437760522        1.0639669231
Mo            3.4589057087        7.2134681272        2.6257219287
S             4.9839423292        6.3255478891        1.0384758407
Mo            5.0135411098        9.9068721417        2.7436960364
S             3.4699985741        8.9468888628        4.3223421839
S             3.4085872462        9.0646987455        1.1000733277
Mo            0.2892285704        1.7457353028        2.8374569789
S             1.8593753333        0.8021348633        4.4018595037
S             1.8553123839        0.8538298636        1.2073275059
Mo            1.8565403448        4.4967448026        2.6659023013
S             0.2728739577        3.6533260109        4.3354342558
S             0.2335494576        3.5268960517        1.1702027626
Mo            0.2691189098        7.2218635487        2.6972996519
S             1.8707559668        6.3012494827        4.2522099769
S             1.8571267062        6.3143765609        1.0491266490
Mo            1.8505173554        9.9365116891        2.7679431210
S             0.2975434377        9.0681666842        4.4082542279
S             0.2731403951        9.0481143633        1.1586756780
H             1.0735673597        6.0752460866        5.4577718559



     Writing config-only to output data dir ./MoS2-V-O.save/
     NEW-OLD atomic charge density approx. for the potential

     negative rho (up, down):  1.445E-04 0.000E+00

     total cpu time spent up to now is       87.1 secs

     Self-consistent Calculation

     iteration #  1     ecut=    80.00 Ry     beta= 0.70
     Davidson diagonalization with overlap
     ethr =  1.00E-06,  avg # of iterations = 10.0

     negative rho (up, down):  6.502E-05 0.000E+00

     total cpu time spent up to now is       99.9 secs

     total energy              =   -2205.56875381 Ry
     estimated scf accuracy    <       0.00238313 Ry

     iteration #  2     ecut=    80.00 Ry     beta= 0.70
     Davidson diagonalization with overlap
     ethr =  7.76E-07,  avg # of iterations =  2.0

     negative rho (up, down):  5.071E-05 0.000E+00

     total cpu time spent up to now is      117.8 secs

     total energy              =   -2205.56881004 Ry
     estimated scf accuracy    <       0.00056659 Ry

     iteration #  3     ecut=    80.00 Ry     beta= 0.70
     Davidson diagonalization with overlap
     ethr =  1.85E-07,  avg # of iterations =  2.0

     negative rho (up, down):  4.518E-05 0.000E+00

     total cpu time spent up to now is      133.0 secs

     total energy              =   -2205.56882711 Ry
     estimated scf accuracy    <       0.00019927 Ry

     iteration #  4     ecut=    80.00 Ry     beta= 0.70
     Davidson diagonalization with overlap
     ethr =  6.49E-08,  avg # of iterations =  5.0

     negative rho (up, down):  4.346E-05 0.000E+00

     total cpu time spent up to now is      146.9 secs

     total energy              =   -2205.56884975 Ry
     estimated scf accuracy    <       0.00002840 Ry

     iteration #  5     ecut=    80.00 Ry     beta= 0.70
     Davidson diagonalization with overlap
     ethr =  9.25E-09,  avg # of iterations = 11.0

     negative rho (up, down):  4.102E-05 0.000E+00

     total cpu time spent up to now is      157.6 secs

     total energy              =   -2205.56885664 Ry
     estimated scf accuracy    <       0.00001167 Ry

     iteration #  6     ecut=    80.00 Ry     beta= 0.70
     Davidson diagonalization with overlap
     ethr =  3.80E-09,  avg # of iterations =  2.0

     negative rho (up, down):  3.777E-05 0.000E+00

     total cpu time spent up to now is      169.1 secs

     total energy              =   -2205.56885821 Ry
     estimated scf accuracy    <       0.00000329 Ry

     iteration #  7     ecut=    80.00 Ry     beta= 0.70
     Davidson diagonalization with overlap
     ethr =  1.07E-09,  avg # of iterations =  5.0

     negative rho (up, down):  3.747E-05 0.000E+00

     total cpu time spent up to now is      183.3 secs

     total energy              =   -2205.56885902 Ry
     estimated scf accuracy    <       0.00000150 Ry

     iteration #  8     ecut=    80.00 Ry     beta= 0.70
     Davidson diagonalization with overlap
     ethr =  4.90E-10,  avg # of iterations =  2.0

     negative rho (up, down):  1.369E-04 0.000E+00

     total cpu time spent up to now is      185.2 secs

     End of self-consistent calculation

          k = 0.0000 0.0000 0.0000 (105382 PWs)   bands (ev):

   -62.8625 -62.8118 -62.8021 -62.7944 -62.7775 -62.7746 -62.7652 -62.7589
   -62.7460 -62.6466 -62.6311 -62.6127 -37.1715 -37.1067 -37.0965 -37.0738
   -37.0643 -37.0549 -37.0400 -37.0164 -37.0101 -37.0067 -36.9936 -36.9873
   -36.9809 -36.9708 -36.9624 -36.9563 -36.9526 -36.9484 -36.9429 -36.9259
   -36.9183 -36.9013 -36.8752 -36.8601 -36.8431 -36.8298 -36.8204 -36.8051
   -36.8003 -36.7971 -36.7920 -36.7673 -36.7599 -36.7409 -36.6366 -36.5440
   -16.1509 -15.6378 -15.1223 -14.9864 -14.8413 -14.7726 -14.6780 -14.4356
   -14.3935 -14.3643 -14.3100 -14.2714 -14.2600 -14.2169 -14.1528 -14.0842
   -14.0514 -14.0426 -13.9761 -13.8659 -13.7808 -13.7636 -13.7527  -8.7382
    -7.6246  -7.3706  -7.2817  -7.1945  -7.1841  -7.1390  -7.1088  -7.0713
    -6.7805  -6.7683  -6.6929  -6.6283  -6.5914  -6.4621  -6.3943  -6.3467
    -6.2884  -6.1949  -6.1671  -5.9429  -5.8860  -5.8351  -5.7739  -5.7104
    -5.6919  -5.6686  -5.6332  -5.6000  -5.5799  -5.5239  -5.4780  -5.4308
    -5.3924  -5.3502  -5.1333  -5.1029  -5.0056  -4.9607  -4.9122  -4.8874
    -4.8554  -4.8167  -4.6493  -4.5182  -4.4648  -4.2514  -4.2231  -4.1752
    -4.1216  -4.0113  -3.9656  -3.9242  -3.7737  -3.7531  -3.6842  -3.6534
    -3.6317  -3.4995  -3.4859  -3.4699  -3.4318  -3.4131  -3.3899  -3.3355
    -3.2955  -3.1888  -3.0851  -2.8438  -2.8047  -2.7563  -2.7140  -2.6825
    -2.6676  -2.6337  -2.5920  -2.5613  -2.5128  -2.2131  -2.0161  -1.9411
    -1.9209  -0.8113  -0.7040  -0.4542  -0.1220  -0.0974  -0.0675   0.0045
     0.1317   0.1981   0.2833   0.3156   0.3412   0.3801   0.3929   0.4827
     0.5151   0.5888   0.6011   0.6353   0.6817   0.7276   0.7605   0.8109
     0.8355   0.8595   0.8917   0.9221   1.0102   1.0493   1.0778   1.3828
     1.4151

     the Fermi energy is    -0.8331 ev

!    total energy              =   -2205.56885894 Ry
     estimated scf accuracy    <       0.00000074 Ry
     smearing contrib. (-TS)   =      -0.00779223 Ry
     internal energy E=F+TS    =   -2205.56106671 Ry

     The total energy is F=E-TS. E is the sum of the following terms:
     one-electron contribution =  -18044.27131652 Ry
     hartree contribution      =    9009.48315390 Ry
     xc contribution           =    -385.30815585 Ry
     ewald contribution        =    7214.53525176 Ry

     convergence has been achieved in   8 iterations

     negative rho (up, down):  1.369E-04 0.000E+00

     Forces acting on atoms (cartesian axes, Ry/au):

     atom    1 type  1   force =     0.00299879   -0.01180187   -0.00029444
     atom    2 type  2   force =    -0.00984764    0.01024308   -0.00110120
     atom    3 type  2   force =    -0.01038892    0.00720554   -0.00892592
     atom    4 type  1   force =     0.00652338    0.00135604    0.00061746
     atom    5 type  2   force =     0.00129553   -0.00575767   -0.00591083
     atom    6 type  2   force =     0.00099436    0.00641743    0.00246487
     atom    7 type  1   force =     0.00917287   -0.01249486   -0.00063872
     atom    8 type  2   force =    -0.00126174   -0.00258691    0.01117005
     atom    9 type  2   force =     0.01247469    0.00468690    0.00670414
     atom   10 type  1   force =    -0.00432190    0.00678406   -0.00972917
     atom   11 type  2   force =     0.00483960   -0.00125650   -0.00836798
     atom   12 type  2   force =    -0.00460578    0.00236927    0.00228221
     atom   13 type  1   force =     0.00441559    0.00369410   -0.00234269
     atom   14 type  2   force =     0.00585600    0.00094862    0.00809684
     atom   15 type  2   force =    -0.00854209    0.00182959   -0.00663413
     atom   16 type  1   force =     0.00416023    0.01071905    0.00299013
     atom   17 type  2   force =     0.00759771   -0.00196547    0.00305488
     atom   18 type  2   force =    -0.00447025   -0.00407238    0.01021007
     atom   19 type  1   force =    -0.00051435   -0.00630379    0.00178129
     atom   20 type  2   force =     0.00233293   -0.00152956   -0.00159827
     atom   21 type  1   force =     0.00004764    0.00617273    0.00226430
     atom   22 type  2   force =    -0.00034057    0.00298664   -0.00680155
     atom   23 type  2   force =     0.00274191   -0.00123946    0.00401199
     atom   24 type  1   force =    -0.00721636   -0.00203799   -0.00927128
     atom   25 type  2   force =     0.01119771    0.01355287   -0.00029912
     atom   26 type  2   force =    -0.00657109   -0.00115464   -0.00431180
     atom   27 type  1   force =    -0.00569393   -0.00056695    0.00991482
     atom   28 type  2   force =    -0.00082239   -0.00574316   -0.00476057
     atom   29 type  2   force =     0.00381596    0.00126362   -0.00442456
     atom   30 type  1   force =    -0.00544156    0.00235832    0.00238142
     atom   31 type  2   force =    -0.03577037   -0.01106002    0.03024720
     atom   32 type  2   force =    -0.00735391    0.00583383    0.00835020
     atom   33 type  1   force =     0.00600190   -0.00272082   -0.00001535
     atom   34 type  2   force =     0.00027831   -0.02910831   -0.01488408
     atom   35 type  2   force =    -0.00513371    0.00906090    0.00777997
     atom   36 type  3   force =     0.03155143    0.00391778   -0.02401018
     The non-local contrib.  to forces
     atom    1 type  1   force =    -0.00203153    0.02533430   -0.01077435
     atom    2 type  2   force =    -0.00779405   -0.00222662   -0.26971373
     atom    3 type  2   force =    -0.01253172   -0.00535325    0.26517924
     atom    4 type  1   force =    -0.00350614    0.00574133    0.00363706
     atom    5 type  2   force =     0.00864924   -0.03201131   -0.25271072
     atom    6 type  2   force =    -0.00184230    0.00950403    0.26543404
     atom    7 type  1   force =    -0.03956610    0.00206263   -0.01433550
     atom    8 type  2   force =     0.00453878   -0.00839142   -0.24163187
     atom    9 type  2   force =     0.00928355   -0.00721612    0.27556587
     atom   10 type  1   force =    -0.00201506    0.00228567   -0.00271436
     atom   11 type  2   force =     0.01306924    0.00361385   -0.26073361
     atom   12 type  2   force =    -0.01287683   -0.01731075    0.26115869
     atom   13 type  1   force =     0.00306951    0.01944098   -0.00820781
     atom   14 type  2   force =     0.00920450   -0.00987562   -0.26344380
     atom   15 type  2   force =    -0.01127821   -0.00490140    0.26056825
     atom   16 type  1   force =    -0.00327884    0.03958005   -0.02631603
     atom   17 type  2   force =     0.00278549   -0.02829007   -0.24778647
     atom   18 type  2   force =    -0.00628541   -0.00094390    0.27435093
     atom   19 type  1   force =     0.01772453   -0.02249665   -0.01689529
     atom   20 type  2   force =    -0.00195670   -0.01605716    0.26332458
     atom   21 type  1   force =     0.00540497    0.02546235    0.00398074
     atom   22 type  2   force =     0.00084070    0.01182092   -0.24974152
     atom   23 type  2   force =     0.00649187   -0.02084062    0.26786289
     atom   24 type  1   force =     0.00379038    0.01330145   -0.01185830
     atom   25 type  2   force =     0.00520391    0.00022332   -0.26465450
     atom   26 type  2   force =    -0.00004117   -0.01385070    0.26470312
     atom   27 type  1   force =     0.00320214    0.01065170   -0.00090857
     atom   28 type  2   force =    -0.00448216   -0.01776080   -0.26671578
     atom   29 type  2   force =     0.01069237    0.00368702    0.26590128
     atom   30 type  1   force =    -0.00501766    0.02005866    0.00718448
     atom   31 type  2   force =    -0.20516623   -0.04910569    0.15695838
     atom   32 type  2   force =    -0.00438951   -0.00938375    0.28058998
     atom   33 type  1   force =    -0.00304751    0.01096263    0.00264623
     atom   34 type  2   force =    -0.00358094   -0.03464537   -0.26971070
     atom   35 type  2   force =    -0.00186246   -0.01242095    0.26741566
     atom   36 type  3   force =     0.02673167    0.00710922   -0.03853913
     The ionic contribution  to forces
     atom    1 type  1   force =     0.07347175    0.52154572    5.77085769
     atom    2 type  2   force =    -0.49347030    0.25967169   39.36739730
     atom    3 type  2   force =    -0.16044093    0.03153303  -36.21345783
     atom    4 type  1   force =    -0.20397058    0.29168749    0.45671953
     atom    5 type  2   force =    -1.02869607    1.39473709   38.64750370
     atom    6 type  2   force =     0.27698979   -0.57686932  -37.95471822
     atom    7 type  1   force =    -2.85190941   -2.45763790    2.40508395
     atom    8 type  2   force =    -1.35440055    0.09243252   37.34235166
     atom    9 type  2   force =     0.30240644   -0.07099750  -38.07853537
     atom   10 type  1   force =    -0.90975070   -0.21703637    5.28371321
     atom   11 type  2   force =    -0.59204594   -1.56792908   39.07929957
     atom   12 type  2   force =     0.33439697    0.62903031  -37.83961277
     atom   13 type  1   force =     0.46834326    0.87286307    2.74954785
     atom   14 type  2   force =    -0.01790852    0.00664297   38.60110872
     atom   15 type  2   force =     0.15127638   -0.00553954  -36.84757750
     atom   16 type  1   force =    -0.07639068    3.64448902    0.52810008
     atom   17 type  2   force =     0.95340796    1.35408987   37.84379683
     atom   18 type  2   force =    -0.12191398   -0.59878446  -38.48468290
     atom   19 type  1   force =     2.71465731   -2.37387832    0.46097759
     atom   20 type  2   force =     0.21081495   -0.18914464  -38.55536337
     atom   21 type  1   force =    -0.04024033   -0.02872702    1.28889288
     atom   22 type  2   force =     0.54679668   -1.63932148   38.34824607
     atom   23 type  2   force =    -0.03628073    0.67262457  -38.27030373
     atom   24 type  1   force =    -0.29332656    0.86096823    5.43900550
     atom   25 type  2   force =     0.55236865    0.20682144   39.20214749
     atom   26 type  2   force =    -0.22261529    0.05856898  -37.29167549
     atom   27 type  1   force =     0.41944024    0.17601250   -2.44667258
     atom   28 type  2   force =    -0.05855952    0.52527782   38.05037399
     atom   29 type  2   force =    -0.23721817   -0.42280943  -37.36066550
     atom   30 type  1   force =    -0.31357298   -0.65382659   -0.80688182
     atom   31 type  2   force =     2.23884950    0.31157225   36.25718337
     atom   32 type  2   force =    -0.39866990   -0.04668525  -38.64688997
     atom   33 type  1   force =     0.71891509   -0.48238761    2.03693910
     atom   34 type  2   force =     0.14360782   -0.96472447   39.17796082
     atom   35 type  2   force =    -0.24465624    0.53414811  -37.79383820
     atom   36 type  3   force =    -0.44970541   -0.14841771    8.25366834
     The local contribution  to forces
     atom    1 type  1   force =    -0.06835580   -0.55872055   -5.76136218
     atom    2 type  2   force =     0.49107332   -0.24705435  -39.12008313
     atom    3 type  2   force =     0.16207257   -0.01913638   35.95998762
     atom    4 type  1   force =     0.21397647   -0.29612150   -0.46072516
     atom    5 type  2   force =     1.02214217   -1.37024544  -38.42139334
     atom    6 type  2   force =    -0.27435654    0.57488016   37.71240905
     atom    7 type  1   force =     2.90065650    2.44303616   -2.39230566
     atom    8 type  2   force =     1.34902998   -0.08734667  -37.10968855
     atom    9 type  2   force =    -0.29899723    0.08252925   37.83057495
     atom   10 type  1   force =     0.90743229    0.22153891   -5.29194003
     atom   11 type  2   force =     0.58440482    1.56354767  -38.84801770
     atom   12 type  2   force =    -0.32713419   -0.61058918   37.60129519
     atom   13 type  1   force =    -0.46718094   -0.88863285   -2.74469371
     atom   14 type  2   force =     0.01512373    0.00414115  -38.35072212
     atom   15 type  2   force =    -0.14922416    0.01189993   36.60073581
     atom   16 type  1   force =     0.08387062   -3.67344542   -0.49976906
     atom   17 type  2   force =    -0.94872534   -1.32914223  -37.61341191
     atom   18 type  2   force =     0.12343516    0.59608320   38.24139551
     atom   19 type  1   force =    -2.73270616    2.39020410   -0.44331790
     atom   20 type  2   force =    -0.20668920    0.20309756   38.31139822
     atom   21 type  1   force =     0.03491650    0.00948541   -1.29162650
     atom   22 type  2   force =    -0.54791304    1.63127020  -38.12581525
     atom   23 type  2   force =     0.03297332   -0.65445864   38.02712325
     atom   24 type  1   force =     0.28241969   -0.87617517   -5.43748502
     atom   25 type  2   force =    -0.54633620   -0.19324591  -38.95901374
     atom   26 type  2   force =     0.21629848   -0.04660957   37.04335488
     atom   27 type  1   force =    -0.42842658   -0.18763353    2.45652762
     atom   28 type  2   force =     0.06211826   -0.51431652  -37.80937326
     atom   29 type  2   force =     0.23109348    0.42092891   37.11092542
     atom   30 type  1   force =     0.31291963    0.63621001    0.80113284
     atom   31 type  2   force =    -2.08253344   -0.27696209  -36.37988380
     atom   32 type  2   force =     0.39565636    0.06136311   38.39576541
     atom   33 type  1   force =    -0.70993439    0.46883551   -2.04067329
     atom   34 type  2   force =    -0.14004953    0.96876887  -38.94439931
     atom   35 type  2   force =     0.24141913   -0.51371421   37.55502145
     atom   36 type  3   force =     0.45454648    0.14522825   -8.23924246
     The core correction contribution to forces
     atom    1 type  1   force =     0.00000000    0.00000000    0.00000000
     atom    2 type  2   force =     0.00023880   -0.00004910    0.02073990
     atom    3 type  2   force =     0.00052259    0.00015529   -0.02079798
     atom    4 type  1   force =     0.00000000    0.00000000    0.00000000
     atom    5 type  2   force =    -0.00077593    0.00175512    0.02023479
     atom    6 type  2   force =     0.00023061   -0.00108017   -0.02088842
     atom    7 type  1   force =     0.00000000    0.00000000    0.00000000
     atom    8 type  2   force =    -0.00044382    0.00071243    0.01959310
     atom    9 type  2   force =    -0.00024481    0.00041192   -0.02104258
     atom   10 type  1   force =     0.00000000    0.00000000    0.00000000
     atom   11 type  2   force =    -0.00060175   -0.00048051    0.02058447
     atom   12 type  2   force =     0.00107390    0.00128343   -0.02074675
     atom   13 type  1   force =     0.00000000    0.00000000    0.00000000
     atom   14 type  2   force =    -0.00052459    0.00003423    0.02065824
     atom   15 type  2   force =     0.00066782    0.00034999   -0.02055701
     atom   16 type  1   force =     0.00000000    0.00000000    0.00000000
     atom   17 type  2   force =     0.00007989    0.00134062    0.01998843
     atom   18 type  2   force =     0.00026007   -0.00050130   -0.02104694
     atom   19 type  1   force =     0.00000000    0.00000000    0.00000000
     atom   20 type  2   force =     0.00023898    0.00056093   -0.02115160
     atom   21 type  1   force =     0.00000000    0.00000000    0.00000000
     atom   22 type  2   force =    -0.00006400   -0.00070866    0.02006389
     atom   23 type  2   force =    -0.00047691    0.00149290   -0.02089087
     atom   24 type  1   force =     0.00000000    0.00000000    0.00000000
     atom   25 type  2   force =     0.00004213   -0.00019139    0.02073785
     atom   26 type  2   force =    -0.00023811    0.00075201   -0.02089996
     atom   27 type  1   force =     0.00000000    0.00000000    0.00000000
     atom   28 type  2   force =     0.00013529    0.00108381    0.02042790
     atom   29 type  2   force =    -0.00074710   -0.00061695   -0.02072329
     atom   30 type  1   force =     0.00000000    0.00000000    0.00000000
     atom   31 type  2   force =     0.01289267    0.00335993   -0.00411664
     atom   32 type  2   force =     0.00001159    0.00055206   -0.02138491
     atom   33 type  1   force =     0.00000000    0.00000000    0.00000000
     atom   34 type  2   force =     0.00035883    0.00135318    0.02077221
     atom   35 type  2   force =    -0.00007212    0.00108136   -0.02102104
     atom   36 type  3   force =     0.00000000    0.00000000    0.00000000
     The Hubbard contrib.    to forces
     atom    1 type  1   force =     0.00000000    0.00000000    0.00000000
     atom    2 type  2   force =     0.00000000    0.00000000    0.00000000
     atom    3 type  2   force =     0.00000000    0.00000000    0.00000000
     atom    4 type  1   force =     0.00000000    0.00000000    0.00000000
     atom    5 type  2   force =     0.00000000    0.00000000    0.00000000
     atom    6 type  2   force =     0.00000000    0.00000000    0.00000000
     atom    7 type  1   force =     0.00000000    0.00000000    0.00000000
     atom    8 type  2   force =     0.00000000    0.00000000    0.00000000
     atom    9 type  2   force =     0.00000000    0.00000000    0.00000000
     atom   10 type  1   force =     0.00000000    0.00000000    0.00000000
     atom   11 type  2   force =     0.00000000    0.00000000    0.00000000
     atom   12 type  2   force =     0.00000000    0.00000000    0.00000000
     atom   13 type  1   force =     0.00000000    0.00000000    0.00000000
     atom   14 type  2   force =     0.00000000    0.00000000    0.00000000
     atom   15 type  2   force =     0.00000000    0.00000000    0.00000000
     atom   16 type  1   force =     0.00000000    0.00000000    0.00000000
     atom   17 type  2   force =     0.00000000    0.00000000    0.00000000
     atom   18 type  2   force =     0.00000000    0.00000000    0.00000000
     atom   19 type  1   force =     0.00000000    0.00000000    0.00000000
     atom   20 type  2   force =     0.00000000    0.00000000    0.00000000
     atom   21 type  1   force =     0.00000000    0.00000000    0.00000000
     atom   22 type  2   force =     0.00000000    0.00000000    0.00000000
     atom   23 type  2   force =     0.00000000    0.00000000    0.00000000
     atom   24 type  1   force =     0.00000000    0.00000000    0.00000000
     atom   25 type  2   force =     0.00000000    0.00000000    0.00000000
     atom   26 type  2   force =     0.00000000    0.00000000    0.00000000
     atom   27 type  1   force =     0.00000000    0.00000000    0.00000000
     atom   28 type  2   force =     0.00000000    0.00000000    0.00000000
     atom   29 type  2   force =     0.00000000    0.00000000    0.00000000
     atom   30 type  1   force =     0.00000000    0.00000000    0.00000000
     atom   31 type  2   force =     0.00000000    0.00000000    0.00000000
     atom   32 type  2   force =     0.00000000    0.00000000    0.00000000
     atom   33 type  1   force =     0.00000000    0.00000000    0.00000000
     atom   34 type  2   force =     0.00000000    0.00000000    0.00000000
     atom   35 type  2   force =     0.00000000    0.00000000    0.00000000
     atom   36 type  3   force =     0.00000000    0.00000000    0.00000000
     The SCF correction term to forces
     atom    1 type  1   force =    -0.00008380    0.00003809    0.00095757
     atom    2 type  2   force =     0.00010642   -0.00009911    0.00053163
     atom    3 type  2   force =    -0.00000960    0.00000627    0.00013621
     atom    4 type  1   force =     0.00002546    0.00004815    0.00095920
     atom    5 type  2   force =    -0.00002204    0.00000630    0.00042791
     atom    6 type  2   force =    -0.00002538   -0.00001783    0.00020159
     atom    7 type  1   force =    -0.00000629    0.00004367    0.00089165
     atom    8 type  2   force =     0.00001571    0.00000566    0.00051888
     atom    9 type  2   force =     0.00002857   -0.00004123    0.00011444
     atom   10 type  1   force =     0.00001340   -0.00000471    0.00118519
     atom   11 type  2   force =     0.00001506   -0.00000900    0.00047246
     atom   12 type  2   force =    -0.00006379   -0.00004512    0.00016101
     atom   13 type  1   force =     0.00018559    0.00002232    0.00098415
     atom   14 type  2   force =    -0.00003730    0.00000532    0.00046898
     atom   15 type  2   force =     0.00001791    0.00002004    0.00016949
     atom   16 type  1   force =    -0.00003903    0.00009483    0.00094832
     atom   17 type  2   force =     0.00005155    0.00003577    0.00044117
     atom   18 type  2   force =     0.00003573    0.00007351    0.00016664
     atom   19 type  1   force =    -0.00018820   -0.00013349    0.00099006
     atom   20 type  2   force =    -0.00007325    0.00001318    0.00016707
     atom   21 type  1   force =    -0.00003168   -0.00004858    0.00099036
     atom   22 type  2   force =     0.00000092   -0.00007492    0.00041843
     atom   23 type  2   force =     0.00003618   -0.00005824    0.00019362
     atom   24 type  1   force =    -0.00009804   -0.00013307    0.00103971
     atom   25 type  2   force =    -0.00007895   -0.00005516    0.00045695
     atom   26 type  2   force =     0.00002683   -0.00001594    0.00017883
     atom   27 type  1   force =     0.00009210    0.00040180    0.00094152
     atom   28 type  2   force =    -0.00003244   -0.00002805    0.00049975
     atom   29 type  2   force =    -0.00000280    0.00007350    0.00011071
     atom   30 type  1   force =     0.00023128   -0.00008433    0.00091909
     atom   31 type  2   force =     0.00018897    0.00007502    0.00007906
     atom   32 type  2   force =     0.00003938   -0.00001292    0.00024286
     atom   33 type  1   force =     0.00007055   -0.00013192    0.00104578
     atom   34 type  2   force =    -0.00005605    0.00013890    0.00046607
     atom   35 type  2   force =     0.00003981   -0.00003398    0.00017528
     atom   36 type  3   force =    -0.00001948   -0.00000255    0.00007623

     Total force =     0.092455     Total SCF correction =     0.003861
     Energy error            =      1.7E-02 Ry
     Gradient error          =      3.6E-02 Ry/Bohr

     number of scf cycles    =   2
     number of bfgs steps    =   1

     energy             old  =   -2205.5520883896 Ry
     energy             new  =   -2205.5688589371 Ry

     CASE: energy            _new < energy            _old

     new trust radius        =       0.0932065823 bohr
     new conv_thr            =       0.0000000358 Ry


ATOMIC_POSITIONS (angstrom)
Mo            6.5850877327        1.7624078231        2.8265880878
S             8.1586005489        0.8290452088        4.4342884734
S             8.1775735248        0.8231913110        1.2685005608
Mo            8.1052711795        4.4978909376        2.7180895587
S             6.5007152246        3.7137163740        4.3376527881
S             6.5545855681        3.5231852058        1.1233501193
Mo            6.5054454242        7.1964291198        2.6673006243
S             8.0805305450        6.3401811677        4.2618340290
S             8.0996976176        6.3125455299        1.0972442688
Mo            8.1495763895        9.9125716985        2.8182079193
S             6.5023324525        8.9414117746        4.3719692172
S             6.6119809285        9.0532959929        1.1460438730
Mo            3.4289921456        1.7546537350        2.7708691442
S             4.9850507641        0.8181490612        4.3645375760
S             5.0427746120        0.8489095200        1.2159704069
Mo            4.9870846283        4.5322110478        2.6375073106
S             3.4397343805        3.6672463216        4.2850931582
S             3.4307653490        3.5394881700        1.0737593675
Mo            3.4593320933        7.2075275829        2.6264057286
S             4.9860805763        6.3239871069        1.0373057079
Mo            5.0138027929        9.9131165072        2.7457036617
S             3.4695386077        8.9500114592        4.3159037021
S             3.4109839361        9.0635773918        1.1042317375
Mo            0.2818078766        1.7436678608        2.8273755465
S             1.8705906315        0.8154764699        4.4022312188
S             1.8486865633        0.8527291753        1.2032435260
Mo            1.8509033030        4.4964410053        2.6754550873
S             0.2722772641        3.6481778814        4.3309492721
S             0.2372472404        3.5279270188        1.1660659244
Mo            0.2640655831        7.2248022885        2.6985984202
S             1.8344097509        6.2896980181        4.2834870417
S             1.8498893617        6.3201140856        1.0571309794
Mo            1.8567692466        9.9335342201        2.7670660437
S             0.2980654542        9.0392437376        4.3944227752
S             0.2680772342        9.0567365153        1.1668273733
H             1.1047715917        6.0792591980        5.4335513073



     Writing config-only to output data dir ./MoS2-V-O.save/
     NEW-OLD atomic charge density approx. for the potential

     negative rho (up, down):  1.495E-04 0.000E+00

     total cpu time spent up to now is      188.5 secs

     Self-consistent Calculation

     iteration #  1     ecut=    80.00 Ry     beta= 0.70
     Davidson diagonalization with overlap
     ethr =  1.00E-06,  avg # of iterations = 11.0

     negative rho (up, down):  6.899E-05 0.000E+00

     total cpu time spent up to now is      201.7 secs

     total energy              =   -2205.57912414 Ry
     estimated scf accuracy    <       0.00206898 Ry

     iteration #  2     ecut=    80.00 Ry     beta= 0.70
     Davidson diagonalization with overlap
     ethr =  6.74E-07,  avg # of iterations =  2.0

     negative rho (up, down):  3.949E-05 0.000E+00

     total cpu time spent up to now is      217.8 secs

     total energy              =   -2205.57915851 Ry
     estimated scf accuracy    <       0.00036747 Ry

     iteration #  3     ecut=    80.00 Ry     beta= 0.70
     Davidson diagonalization with overlap
     ethr =  1.20E-07,  avg # of iterations =  4.0

     negative rho (up, down):  3.088E-05 0.000E+00

     total cpu time spent up to now is      234.2 secs

     total energy              =   -2205.57920028 Ry
     estimated scf accuracy    <       0.00006610 Ry

     iteration #  4     ecut=    80.00 Ry     beta= 0.70
     Davidson diagonalization with overlap
     ethr =  2.15E-08,  avg # of iterations =  6.0

     negative rho (up, down):  2.733E-05 0.000E+00

     total cpu time spent up to now is      248.1 secs

     total energy              =   -2205.57920822 Ry
     estimated scf accuracy    <       0.00001432 Ry

     iteration #  5     ecut=    80.00 Ry     beta= 0.70
     Davidson diagonalization with overlap
     ethr =  4.67E-09,  avg # of iterations =  5.0

     negative rho (up, down):  2.737E-05 0.000E+00

     total cpu time spent up to now is      259.5 secs

     total energy              =   -2205.57920970 Ry
     estimated scf accuracy    <       0.00000476 Ry

     iteration #  6     ecut=    80.00 Ry     beta= 0.70
     Davidson diagonalization with overlap
     ethr =  1.55E-09,  avg # of iterations =  5.0

     negative rho (up, down):  3.262E-05 0.000E+00

     total cpu time spent up to now is      271.3 secs

     total energy              =   -2205.57921067 Ry
     estimated scf accuracy    <       0.00000089 Ry

     iteration #  7     ecut=    80.00 Ry     beta= 0.70
     Davidson diagonalization with overlap
     ethr =  2.91E-10,  avg # of iterations =  5.0

     negative rho (up, down):  4.576E-05 0.000E+00

     total cpu time spent up to now is      281.3 secs

     total energy              =   -2205.57921085 Ry
     estimated scf accuracy    <       0.00000037 Ry

     iteration #  8     ecut=    80.00 Ry     beta= 0.70
     Davidson diagonalization with overlap
     ethr =  1.22E-10,  avg # of iterations =  2.0

     negative rho (up, down):  6.496E-05 0.000E+00

     total cpu time spent up to now is      291.7 secs

     total energy              =   -2205.57921079 Ry
     estimated scf accuracy    <       0.00000017 Ry

     iteration #  9     ecut=    80.00 Ry     beta= 0.70
     Davidson diagonalization with overlap
     ethr =  5.63E-11,  avg # of iterations =  3.0

     negative rho (up, down):  9.156E-05 0.000E+00

     total cpu time spent up to now is      305.0 secs

     total energy              =   -2205.57921074 Ry
     estimated scf accuracy    <       0.00000005 Ry

     iteration # 10     ecut=    80.00 Ry     beta= 0.70
     Davidson diagonalization with overlap
     ethr =  1.61E-11,  avg # of iterations =  5.0

     negative rho (up, down):  1.378E-04 0.000E+00

     total cpu time spent up to now is      307.1 secs

     End of self-consistent calculation

          k = 0.0000 0.0000 0.0000 (105382 PWs)   bands (ev):

   -62.8609 -62.8017 -62.7913 -62.7799 -62.7663 -62.7656 -62.7552 -62.7459
   -62.7304 -62.6282 -62.6076 -62.5908 -37.1637 -37.1003 -37.0888 -37.0590
   -37.0505 -37.0475 -37.0282 -37.0042 -36.9994 -36.9963 -36.9812 -36.9756
   -36.9699 -36.9610 -36.9501 -36.9465 -36.9416 -36.9336 -36.9315 -36.9192
   -36.9069 -36.8873 -36.8624 -36.8468 -36.8303 -36.8170 -36.8059 -36.7894
   -36.7831 -36.7802 -36.7718 -36.7466 -36.7380 -36.7289 -36.6132 -36.5196
   -16.2739 -15.6936 -15.1151 -14.9783 -14.8268 -14.7655 -14.6714 -14.4219
   -14.3750 -14.3643 -14.3015 -14.2581 -14.2473 -14.2089 -14.1490 -14.0809
   -14.0443 -14.0228 -13.9697 -13.8564 -13.7648 -13.7588 -13.7475  -8.9853
    -7.6177  -7.3568  -7.2828  -7.2021  -7.1628  -7.1347  -7.1072  -7.0597
    -6.7838  -6.7580  -6.6870  -6.6102  -6.5808  -6.4596  -6.3902  -6.3401
    -6.2907  -6.1865  -6.1531  -5.9326  -5.8757  -5.8242  -5.7725  -5.6971
    -5.6849  -5.6571  -5.6247  -5.5845  -5.5623  -5.5162  -5.4772  -5.4163
    -5.3752  -5.3185  -5.1090  -5.0946  -4.9873  -4.9648  -4.8921  -4.8755
    -4.8564  -4.8178  -4.6378  -4.5197  -4.4563  -4.2484  -4.2091  -4.1624
    -4.1217  -3.9942  -3.9554  -3.9214  -3.7597  -3.7428  -3.6816  -3.6396
    -3.6084  -3.4894  -3.4711  -3.4572  -3.4393  -3.4133  -3.3813  -3.3244
    -3.2849  -3.1845  -3.0814  -2.8327  -2.7785  -2.7461  -2.7017  -2.6789
    -2.6643  -2.6159  -2.5864  -2.5431  -2.4992  -2.1967  -2.0134  -1.9275
    -1.9057  -0.7811  -0.6674  -0.4146  -0.1058  -0.0954  -0.0548   0.0251
     0.1332   0.2013   0.3023   0.3478   0.3648   0.4034   0.4070   0.4904
     0.5265   0.6022   0.6195   0.6542   0.6936   0.7501   0.7640   0.8240
     0.8383   0.8763   0.9131   0.9435   1.0176   1.0574   1.0921   1.3785
     1.4347

     the Fermi energy is    -0.8011 ev

!    total energy              =   -2205.57921066 Ry
     estimated scf accuracy    <       0.00000002 Ry
     smearing contrib. (-TS)   =      -0.00767176 Ry
     internal energy E=F+TS    =   -2205.57153890 Ry

     The total energy is F=E-TS. E is the sum of the following terms:
     one-electron contribution =  -18046.62973216 Ry
     hartree contribution      =    9010.74855950 Ry
     xc contribution           =    -385.35379550 Ry
     ewald contribution        =    7215.66342926 Ry

     convergence has been achieved in  10 iterations

     negative rho (up, down):  1.378E-04 0.000E+00

     Forces acting on atoms (cartesian axes, Ry/au):

     atom    1 type  1   force =    -0.00511575    0.00014939   -0.00550280
     atom    2 type  2   force =    -0.00404265    0.00373846   -0.00168595
     atom    3 type  2   force =    -0.00815050    0.00445345   -0.01133480
     atom    4 type  1   force =     0.00462424    0.00024740    0.00015601
     atom    5 type  2   force =     0.00293976   -0.00481343   -0.00418233
     atom    6 type  2   force =     0.00103059    0.00383059    0.00365719
     atom    7 type  1   force =     0.00582845   -0.00697500    0.00134041
     atom    8 type  2   force =    -0.00289884   -0.00407336    0.00827685
     atom    9 type  2   force =     0.00999756    0.00284194    0.00174535
     atom   10 type  1   force =     0.00006410    0.00595599    0.00041577
     atom   11 type  2   force =     0.00457863   -0.00149866   -0.00786108
     atom   12 type  2   force =    -0.00486447    0.00050947    0.00033210
     atom   13 type  1   force =     0.00236702    0.00028563   -0.00007376
     atom   14 type  2   force =     0.00331318    0.00120517    0.00469592
     atom   15 type  2   force =    -0.00487197    0.00109301   -0.00458400
     atom   16 type  1   force =     0.00247864    0.00582316    0.00267835
     atom   17 type  2   force =     0.00604584    0.00052932    0.00248119
     atom   18 type  2   force =    -0.00320770    0.00083936    0.00872916
     atom   19 type  1   force =    -0.00618549   -0.00661081    0.00634725
     atom   20 type  2   force =     0.00161974    0.00059881   -0.00204248
     atom   21 type  1   force =    -0.00124156    0.00258572    0.00118572
     atom   22 type  2   force =     0.00065817   -0.00015439   -0.00434519
     atom   23 type  2   force =     0.00380976   -0.00220301    0.00280516
     atom   24 type  1   force =    -0.00293335   -0.00067695   -0.00184896
     atom   25 type  2   force =     0.00504022    0.00813261   -0.00428113
     atom   26 type  2   force =    -0.00215612   -0.00118879   -0.00248577
     atom   27 type  1   force =    -0.00256329   -0.00208038    0.00654965
     atom   28 type  2   force =    -0.00267319   -0.00841825   -0.00283179
     atom   29 type  2   force =     0.00332849    0.00230263   -0.00364569
     atom   30 type  1   force =    -0.00572763   -0.00260823    0.00636585
     atom   31 type  2   force =     0.00107720    0.00155671   -0.01416329
     atom   32 type  2   force =    -0.00500777    0.00315295    0.00887127
     atom   33 type  1   force =     0.00064758    0.00108850    0.00284488
     atom   34 type  2   force =    -0.00187143   -0.01387799   -0.01244633
     atom   35 type  2   force =    -0.00261129    0.00708122    0.00243775
     atom   36 type  3   force =     0.00667384   -0.00282225    0.01139954
     The non-local contrib.  to forces
     atom    1 type  1   force =    -0.00107421    0.02181209   -0.01042721
     atom    2 type  2   force =    -0.00372623   -0.00679975   -0.26805237
     atom    3 type  2   force =    -0.00936882   -0.00801747    0.26190406
     atom    4 type  1   force =    -0.00319877    0.00758555    0.00318888
     atom    5 type  2   force =     0.00974508   -0.03112014   -0.25304239
     atom    6 type  2   force =    -0.00120839    0.00716736    0.26767235
     atom    7 type  1   force =    -0.04122072    0.00288938   -0.01549521
     atom    8 type  2   force =     0.00529605   -0.00873579   -0.24463059
     atom    9 type  2   force =     0.00684372   -0.00786688    0.27177328
     atom   10 type  1   force =    -0.00356784    0.00299405   -0.00266369
     atom   11 type  2   force =     0.01129834    0.00275716   -0.26119565
     atom   12 type  2   force =    -0.01200133   -0.01922931    0.26111105
     atom   13 type  1   force =     0.00481771    0.02041375   -0.00802976
     atom   14 type  2   force =     0.00669643   -0.00968745   -0.26479614
     atom   15 type  2   force =    -0.00851586   -0.00546925    0.26081318
     atom   16 type  1   force =    -0.00328188    0.04346532   -0.02778179
     atom   17 type  2   force =     0.00120451   -0.02483154   -0.24858396
     atom   18 type  2   force =    -0.00493891    0.00262702    0.27398130
     atom   19 type  1   force =     0.02251929   -0.02063771   -0.01627667
     atom   20 type  2   force =    -0.00250629   -0.01317439    0.26216407
     atom   21 type  1   force =     0.00512534    0.02602103    0.00285156
     atom   22 type  2   force =     0.00192827    0.00931273   -0.24747155
     atom   23 type  2   force =     0.00741323   -0.02212254    0.26782988
     atom   24 type  1   force =     0.00126662    0.01394584   -0.01030629
     atom   25 type  2   force =     0.00053533   -0.00449946   -0.26736991
     atom   26 type  2   force =     0.00313502   -0.01303638    0.26637667
     atom   27 type  1   force =     0.00242179    0.00997783   -0.00355111
     atom   28 type  2   force =    -0.00432748   -0.01833248   -0.26605239
     atom   29 type  2   force =     0.00999402    0.00196179    0.26765119
     atom   30 type  1   force =    -0.00575223    0.02090330    0.00528477
     atom   31 type  2   force =    -0.18117678   -0.04601126    0.13392648
     atom   32 type  2   force =    -0.00254670   -0.01094310    0.28115023
     atom   33 type  1   force =    -0.00129956    0.00981125    0.00206643
     atom   34 type  2   force =    -0.00541854   -0.02359961   -0.26837901
     atom   35 type  2   force =    -0.00044007   -0.01387772    0.26470676
     atom   36 type  3   force =     0.03253327    0.00891339   -0.04925361
     The ionic contribution  to forces
     atom    1 type  1   force =    -0.17296273    0.83158845    5.67152441
[...]
     atom   27 type  1   force =     0.00099184   -0.00746383   -0.00731429
     atom   28 type  2   force =     0.00659756   -0.00831360   -0.26236289
     atom   29 type  2   force =     0.00235941   -0.01053771    0.26919910
     atom   30 type  1   force =    -0.01364530    0.02473503   -0.00273711
     atom   31 type  2   force =    -0.04780323   -0.03160915    0.26479166
     atom   32 type  2   force =     0.00743663   -0.01068955    0.28591100
     atom   33 type  1   force =     0.00093415    0.00884322    0.00249821
     atom   34 type  2   force =    -0.00113565   -0.01983303   -0.26282205
     atom   35 type  2   force =     0.00024088   -0.01553571    0.26714856
     atom   36 type  3   force =     0.00556563    0.00657078   -0.06099110
     The ionic contribution  to forces
     atom    1 type  1   force =    -0.21278618    0.50156510    2.39146827
     atom    2 type  2   force =    -0.21842227    0.00743625   38.95939780
     atom    3 type  2   force =     0.02099641   -0.17307042  -37.47380040
     atom    4 type  1   force =     0.07008164    0.36966632    0.67949050
     atom    5 type  2   force =    -0.98511598    1.04009786   38.56929624
     atom    6 type  2   force =     0.19852063   -0.31815880  -38.23792491
     atom    7 type  1   force =    -3.13371801   -1.05152820    3.90123897
     atom    8 type  2   force =    -1.14711944    0.18548064   38.68260591
     atom    9 type  2   force =     0.36628975    0.14402679  -37.81831094
     atom   10 type  1   force =    -0.69872128   -0.54895883    3.38986678
     atom   11 type  2   force =    -0.59006138   -1.39260026   38.45766771
     atom   12 type  2   force =     0.24277561    0.07779384  -37.49478566
     atom   13 type  1   force =     0.16485412    0.68864795    1.88791217
     atom   14 type  2   force =    -0.03025240   -0.06028551   38.58398623
     atom   15 type  2   force =     0.06666613   -0.10819781  -37.62978561
     atom   16 type  1   force =    -1.15369764    3.61112821    1.31919056
     atom   17 type  2   force =     0.93350911    1.29136212   38.07292058
     atom   18 type  2   force =    -0.06549609   -0.05329835  -37.99851262
     atom   19 type  1   force =     2.57332240   -2.72806098    0.57498363
     atom   20 type  2   force =    -0.12277398   -0.02268805  -38.56952674
     atom   21 type  1   force =     0.37978411   -0.53337293    1.12159713
     atom   22 type  2   force =     0.49911312   -1.44309885   38.50602805
     atom   23 type  2   force =    -0.21438686    0.30258606  -38.32619647
     atom   24 type  1   force =     0.03048119    0.12322270    2.51191385
     atom   25 type  2   force =     0.26087166    0.06293444   38.78520223
     atom   26 type  2   force =    -0.08007415   -0.04496159  -37.57915897
     atom   27 type  1   force =     0.81548001    0.96150171    0.30739854
     atom   28 type  2   force =     0.05423297    0.43089481   38.36246915
     atom   29 type  2   force =    -0.02836282    0.00560165  -37.82546741
     atom   30 type  1   force =     0.19733912   -0.54020502    3.21698168
     atom   31 type  2   force =     1.66364737    0.25098608   35.50436460
     atom   32 type  2   force =    -0.27380074   -0.04157572  -37.37834303
     atom   33 type  1   force =     0.30269035   -0.52342651    2.35570567
     atom   34 type  2   force =     0.08294394   -0.35061811   38.96420056
     atom   35 type  2   force =    -0.02393030   -0.00456156  -37.38563298
     atom   36 type  3   force =     0.05511988   -0.11626503    8.61155891
     The local contribution  to forces
     atom    1 type  1   force =     0.21808883   -0.52604280   -2.38910083
     atom    2 type  2   force =     0.21798987    0.00235952  -38.71701510
     atom    3 type  2   force =    -0.01887940    0.18295276   37.22815655
     atom    4 type  1   force =    -0.06485819   -0.37912265   -0.68271347
     atom    5 type  2   force =     0.98141117   -1.01827951  -38.33670595
     atom    6 type  2   force =    -0.20181245    0.32049484   37.99476713
     atom    7 type  1   force =     3.17762150    1.05158753   -3.87309048
     atom    8 type  2   force =     1.13025826   -0.18640271  -38.44889915
     atom    9 type  2   force =    -0.36302519   -0.13121162   37.57524865
     atom   10 type  1   force =     0.70233214    0.54126117   -3.39123039
     atom   11 type  2   force =     0.58563672    1.39700340  -38.21846558
     atom   12 type  2   force =    -0.23300486   -0.06444528   37.24901474
     atom   13 type  1   force =    -0.17100017   -0.70718604   -1.87907951
     atom   14 type  2   force =     0.03060823    0.07093687  -38.33845562
     atom   15 type  2   force =    -0.06493382    0.11498677   37.38867065
     atom   16 type  1   force =     1.16219195   -3.66404061   -1.29527654
     atom   17 type  2   force =    -0.92142979   -1.27792798  -37.84496177
     atom   18 type  2   force =     0.06736369    0.05608610   37.75210173
     atom   19 type  1   force =    -2.61436026    2.73656390   -0.57349900
     atom   20 type  2   force =     0.12482520    0.03379581   38.32925553
     atom   21 type  1   force =    -0.38314540    0.51023906   -1.12314734
     atom   22 type  2   force =    -0.49467891    1.44759443  -38.27783442
     atom   23 type  2   force =     0.21090281   -0.28744907   38.08550303
     atom   24 type  1   force =    -0.02850332   -0.13579775   -2.50894883
     atom   25 type  2   force =    -0.25873028   -0.05230481  -38.54028565
     atom   26 type  2   force =     0.07772049    0.05656594   37.33159769
     atom   27 type  1   force =    -0.81634661   -0.95383511   -0.29965048
     atom   28 type  2   force =    -0.05969070   -0.42339109  -38.12137327
     atom   29 type  2   force =     0.02575947    0.00433871   37.57808559
     atom   30 type  1   force =    -0.18346152    0.51627206   -3.21434034
     atom   31 type  2   force =    -1.62014920   -0.22162184  -35.75818002
     atom   32 type  2   force =     0.26769178    0.05205862   37.11428724
     atom   33 type  1   force =    -0.30311105    0.51391175   -2.35755689
     atom   34 type  2   force =    -0.08239936    0.36916755  -38.72206580
     atom   35 type  2   force =     0.02350871    0.01899503   37.14033840
     atom   36 type  3   force =    -0.06014775    0.11140808   -8.55187709
     The core correction contribution to forces
     atom    1 type  1   force =     0.00000000    0.00000000    0.00000000
     atom    2 type  2   force =    -0.00008437    0.00051310    0.02064600
     atom    3 type  2   force =     0.00012718    0.00029515   -0.02091043
     atom    4 type  1   force =     0.00000000    0.00000000    0.00000000
     atom    5 type  2   force =    -0.00049489    0.00106037    0.02025119
     atom    6 type  2   force =     0.00004899   -0.00036275   -0.02084014
     atom    7 type  1   force =     0.00000000    0.00000000    0.00000000
     atom    8 type  2   force =    -0.00110753    0.00007713    0.02026370
     atom    9 type  2   force =     0.00051121    0.00068225   -0.02080448
     atom   10 type  1   force =     0.00000000    0.00000000    0.00000000
     atom   11 type  2   force =    -0.00019017   -0.00007272    0.02037161
     atom   12 type  2   force =     0.00076203    0.00056321   -0.02071728
     atom   13 type  1   force =     0.00000000    0.00000000    0.00000000
     atom   14 type  2   force =     0.00000268    0.00022851    0.02082474
     atom   15 type  2   force =     0.00014405    0.00023168   -0.02067977
     atom   16 type  1   force =     0.00000000    0.00000000    0.00000000
     atom   17 type  2   force =     0.00108702    0.00051361    0.01978243
     atom   18 type  2   force =     0.00024304   -0.00006698   -0.02084265
     atom   19 type  1   force =     0.00000000    0.00000000    0.00000000
     atom   20 type  2   force =     0.00007445    0.00047382   -0.02110252
     atom   21 type  1   force =     0.00000000    0.00000000    0.00000000
     atom   22 type  2   force =     0.00023903    0.00010628    0.01997136
     atom   23 type  2   force =    -0.00038199    0.00117583   -0.02078179
     atom   24 type  1   force =     0.00000000    0.00000000    0.00000000
     atom   25 type  2   force =     0.00025019    0.00056161    0.02070141
     atom   26 type  2   force =    -0.00023511    0.00055124   -0.02099332
     atom   27 type  1   force =     0.00000000    0.00000000    0.00000000
     atom   28 type  2   force =    -0.00050553    0.00036812    0.02049058
     atom   29 type  2   force =    -0.00022317    0.00037603   -0.02096940
     atom   30 type  1   force =     0.00000000    0.00000000    0.00000000
     atom   31 type  2   force =     0.00310558    0.00229399   -0.01078363
     atom   32 type  2   force =    -0.00059841    0.00058386   -0.02154555
     atom   33 type  1   force =     0.00000000    0.00000000    0.00000000
     atom   34 type  2   force =     0.00005918    0.00121677    0.02057906
     atom   35 type  2   force =     0.00000030    0.00085391   -0.02100312
     atom   36 type  3   force =     0.00000000    0.00000000    0.00000000
     The Hubbard contrib.    to forces
     atom    1 type  1   force =     0.00000000    0.00000000    0.00000000
     atom    2 type  2   force =     0.00000000    0.00000000    0.00000000
     atom    3 type  2   force =     0.00000000    0.00000000    0.00000000
     atom    4 type  1   force =     0.00000000    0.00000000    0.00000000
     atom    5 type  2   force =     0.00000000    0.00000000    0.00000000
     atom    6 type  2   force =     0.00000000    0.00000000    0.00000000
     atom    7 type  1   force =     0.00000000    0.00000000    0.00000000
     atom    8 type  2   force =     0.00000000    0.00000000    0.00000000
     atom    9 type  2   force =     0.00000000    0.00000000    0.00000000
     atom   10 type  1   force =     0.00000000    0.00000000    0.00000000
     atom   11 type  2   force =     0.00000000    0.00000000    0.00000000
     atom   12 type  2   force =     0.00000000    0.00000000    0.00000000
     atom   13 type  1   force =     0.00000000    0.00000000    0.00000000
     atom   14 type  2   force =     0.00000000    0.00000000    0.00000000
     atom   15 type  2   force =     0.00000000    0.00000000    0.00000000
     atom   16 type  1   force =     0.00000000    0.00000000    0.00000000
     atom   17 type  2   force =     0.00000000    0.00000000    0.00000000
     atom   18 type  2   force =     0.00000000    0.00000000    0.00000000
     atom   19 type  1   force =     0.00000000    0.00000000    0.00000000
     atom   20 type  2   force =     0.00000000    0.00000000    0.00000000
     atom   21 type  1   force =     0.00000000    0.00000000    0.00000000
     atom   22 type  2   force =     0.00000000    0.00000000    0.00000000
     atom   23 type  2   force =     0.00000000    0.00000000    0.00000000
     atom   24 type  1   force =     0.00000000    0.00000000    0.00000000
     atom   25 type  2   force =     0.00000000    0.00000000    0.00000000
     atom   26 type  2   force =     0.00000000    0.00000000    0.00000000
     atom   27 type  1   force =     0.00000000    0.00000000    0.00000000
     atom   28 type  2   force =     0.00000000    0.00000000    0.00000000
     atom   29 type  2   force =     0.00000000    0.00000000    0.00000000
     atom   30 type  1   force =     0.00000000    0.00000000    0.00000000
     atom   31 type  2   force =     0.00000000    0.00000000    0.00000000
     atom   32 type  2   force =     0.00000000    0.00000000    0.00000000
     atom   33 type  1   force =     0.00000000    0.00000000    0.00000000
     atom   34 type  2   force =     0.00000000    0.00000000    0.00000000
     atom   35 type  2   force =     0.00000000    0.00000000    0.00000000
     atom   36 type  3   force =     0.00000000    0.00000000    0.00000000
     The SCF correction term to forces
     atom    1 type  1   force =     0.00000245    0.00004064   -0.00000728
     atom    2 type  2   force =     0.00000935    0.00001262   -0.00000321
     atom    3 type  2   force =     0.00001008    0.00000754   -0.00001086
     atom    4 type  1   force =     0.00004871    0.00003964    0.00002005
     atom    5 type  2   force =     0.00000516    0.00000860    0.00000029
     atom    6 type  2   force =     0.00002098   -0.00000249    0.00000643
     atom    7 type  1   force =     0.00005492   -0.00003592    0.00000562
     atom    8 type  2   force =     0.00001411   -0.00000819   -0.00002046
     atom    9 type  2   force =     0.00000408   -0.00000020    0.00002673
     atom   10 type  1   force =    -0.00000879   -0.00004869   -0.00001218
     atom   11 type  2   force =     0.00001909   -0.00002124   -0.00000599
     atom   12 type  2   force =     0.00001780   -0.00000703   -0.00000306
     atom   13 type  1   force =    -0.00002612    0.00004464    0.00002133
     atom   14 type  2   force =     0.00000057    0.00002032    0.00000398
     atom   15 type  2   force =     0.00001536    0.00000792   -0.00000403
     atom   16 type  1   force =    -0.00001243    0.00002947    0.00004753
     atom   17 type  2   force =    -0.00001221    0.00002461    0.00001693
     atom   18 type  2   force =    -0.00001349    0.00000648    0.00000451
     atom   19 type  1   force =    -0.00007958   -0.00009222    0.00006517
     atom   20 type  2   force =     0.00000573   -0.00000048    0.00001060
     atom   21 type  1   force =     0.00002088   -0.00001418   -0.00002387
     atom   22 type  2   force =    -0.00002141   -0.00003426    0.00002008
     atom   23 type  2   force =    -0.00001014   -0.00000390   -0.00001219
     atom   24 type  1   force =    -0.00001511    0.00001992   -0.00000888
     atom   25 type  2   force =    -0.00000236    0.00001439   -0.00000032
     atom   26 type  2   force =    -0.00001160    0.00000758   -0.00000655
     atom   27 type  1   force =    -0.00001929    0.00008803    0.00005443
     atom   28 type  2   force =     0.00000243    0.00002821   -0.00000527
     atom   29 type  2   force =    -0.00001089    0.00001357    0.00001082
     atom   30 type  1   force =     0.00001881   -0.00006812    0.00003025
     atom   31 type  2   force =     0.00000724   -0.00001161   -0.00001421
     atom   32 type  2   force =    -0.00000723   -0.00000545    0.00004288
     atom   33 type  1   force =    -0.00002016   -0.00003567   -0.00000194
     atom   34 type  2   force =     0.00000410   -0.00002665    0.00000184
     atom   35 type  2   force =    -0.00000583   -0.00000960   -0.00000395
     atom   36 type  3   force =     0.00000166   -0.00000108   -0.00000360

     Total force =     0.006220     Total SCF correction =     0.000269
     Energy error            =      9.4E-05 Ry
     Gradient error          =      1.7E-03 Ry/Bohr

     bfgs converged in  28 scf cycles and  27 bfgs steps
     (criteria: energy <  1.0E-04 Ry, force <  1.0E-02 Ry/Bohr)

     End of BFGS Geometry Optimization

     Final energy             =   -2205.5987678085 Ry

     File ./MoS2-V-O.bfgs deleted, as requested
Begin final coordinates

ATOMIC_POSITIONS (angstrom)
Mo            6.5435224651        1.7620315096        2.7597468181
S             8.1033016901        0.8505443898        4.3771648378
S             8.1213607348        0.8301311857        1.1817023108
Mo            8.1145665485        4.4857783504        2.7241582953
S             6.5158211445        3.6650607973        4.3260392346
S             6.5487207933        3.5592448621        1.1075107990
Mo            6.4971781313        7.1387036634        2.7003293080
S             8.0430670181        6.2845874435        4.3398760800
S             8.1245902973        6.3194990563        1.1356430462
Mo            8.1126294263        9.9339116844        2.7836031954
S             6.4957247476        8.9409853968        4.3347933546
S             6.5688938850        9.0156777286        1.1486319409
Mo            3.4116923143        1.7569741281        2.7495075721
S             4.9772797996        0.8243950465        4.3412375463
S             4.9824220429        0.8406852380        1.1637208153
Mo            5.0102051060        4.5371885306        2.6526629058
S             3.4723321958        3.6512504986        4.3054822534
S             3.4125783805        3.5646285079        1.1090374276
Mo            3.4511132472        7.2390231391        2.6413122079
S             4.9679011014        6.3247552466        1.0476127941
Mo            4.9747362640        9.9181356642        2.7323147608
S             3.4443972639        8.9797330554        4.3204661163
S             3.3844657665        9.0672837559        1.1060099816
Mo            0.2390313646        1.7400271136        2.7732475297
S             1.8422011537        0.8519274132        4.3634056939
S             1.8194580992        0.8450192397        1.1714734196
Mo            1.8416847036        4.4538301381        2.7169978214
S             0.2458269686        3.5900213900        4.3319001184
S             0.2481171757        3.5459713221        1.1446789627
Mo            0.2195852172        7.2212833494        2.7717771755
S             1.9022805370        6.3012255763        4.2322233868
S             1.8020549617        6.3170189457        1.1412328758
Mo            1.8265583542        9.9423828211        2.7628753604
S             0.2447185278        9.0481138233        4.3765405948
S             0.2331110464        9.0450874079        1.1853203473
H             1.7799696492        6.1604401023        5.5945246488
End final coordinates



     Writing all to output data dir ./MoS2-V-O.save/
 
     init_run     :      2.38s CPU      2.65s WALL (       1 calls)
     electrons    :   2560.53s CPU   2834.96s WALL (      28 calls)
     update_pot   :     37.70s CPU     39.69s WALL (      27 calls)
     forces       :     36.48s CPU     41.35s WALL (      28 calls)

     Called by init_run:
     wfcinit      :      0.38s CPU      0.44s WALL (       1 calls)
     potinit      :      1.31s CPU      1.44s WALL (       1 calls)
     hinit0       :      0.17s CPU      0.18s WALL (       1 calls)

     Called by electrons:
     c_bands      :    301.62s CPU    306.03s WALL (     249 calls)
     sum_band     :     71.91s CPU     87.68s WALL (     249 calls)
     v_of_rho     :     98.57s CPU    118.36s WALL (     257 calls)
     newd         :     32.80s CPU     47.26s WALL (     257 calls)
     mix_rho      :   2066.65s CPU   2286.25s WALL (     249 calls)

     Called by c_bands:
     init_us_2    :      5.32s CPU      5.73s WALL (     499 calls)
     init_us_2:cp :      5.32s CPU      5.73s WALL (     499 calls)
     regterg      :    283.12s CPU    287.08s WALL (     249 calls)

     Called by *egterg:
     rdiaghg      :     22.88s CPU     23.10s WALL (    1332 calls)
     h_psi        :    163.87s CPU    165.40s WALL (    1380 calls)
     s_psi        :     20.46s CPU     20.52s WALL (    1380 calls)
     g_psi        :      1.04s CPU      1.05s WALL (    1130 calls)

     Called by h_psi:
     h_psi:calbec :     23.45s CPU     23.60s WALL (    1380 calls)
     vloc_psi     :    118.07s CPU    119.30s WALL (    1380 calls)
     add_vuspsi   :     20.03s CPU     20.16s WALL (    1380 calls)

     General routines
     calbec       :     33.45s CPU     33.65s WALL (    1741 calls)
     fft          :     63.39s CPU     74.98s WALL (   17320 calls)
     ffts         :    926.27s CPU   1138.54s WALL (  501961 calls)
     fftw         :    102.45s CPU    103.36s WALL (  149911 calls)
     interpolate  :      1.86s CPU      2.17s WALL (     257 calls)
 
     Parallel routines
 
     PWSCF        :  44m 1.87s CPU  48m46.58s WALL

 
   This run was terminated on:   4:38:37   4Nov2023            

=------------------------------------------------------------------------------=
   JOB DONE.
=------------------------------------------------------------------------------=
