
     Program PWSCF v.7.2 starts on  4Nov2023 at  0:52:22 

     This program is part of the open-source Quantum ESPRESSO suite
     for quantum simulation of materials; please cite
         "P. Giannozzi et al., J. Phys.:Condens. Matter 21 395502 (2009);
         "P. Giannozzi et al., J. Phys.:Condens. Matter 29 465901 (2017);
         "P. Giannozzi et al., J. Chem. Phys. 152 154105 (2020);
          URL http://www.quantum-espresso.org", 
     in publications or presentations arising from this work. More details at
     http://www.quantum-espresso.org/quote

     Parallel version (MPI & OpenMP), running on      48 processor cores
     Number of MPI processes:                48
     Threads/MPI process:                     1

     MPI processes distributed on     1 nodes
     109836 MiB available memory on the printing compute node when the environment starts
 
     Waiting for input...
     Reading input from standard input
Warning: card &CELL ignored
Warning: card CELL_DYNAMICS = 'BFGS', ignored
Warning: card CELL_DOFREE = '2DXY' ignored
Warning: card / ignored

     Current dimensions of program PWSCF are:
     Max number of different atomic species (ntypx) = 10
     Max number of k-points (npk) =  40000
     Max angular momentum in pseudopotentials (lmaxx) =  4

     IMPORTANT: XC functional enforced from input :
     Exchange-correlation= RVV10
                           (   1   4  13   4  26   0   0)
     Any further DFT definition will be discarded
     Please, verify this is what you really want


     gamma-point specific algorithms are used
     signal trapping enabled: kill the code with -SIGUSR1 to stop cleanly the simulation 
 
     R & G space division:  proc/nbgrp/npool/nimage =      48
     Subspace diagonalization in iterative solution of the eigenvalue problem:
     one sub-group per band group will be used
     scalapack distributed-memory algorithm (size of sub-group:  2*  2 procs)

 
     Parallelization info
     --------------------
     sticks:   dense  smooth     PW     G-vecs:    dense   smooth      PW
     Min         243     194     47                49060    35090    4376
     Max         246     196     50                49086    35128    4410
     Sum       11735    9389   2349              2355467  1685513  210763
 
     Using Slab Decomposition
 


     bravais-lattice index     =            0
     lattice parameter (alat)  =      17.8707  a.u.
     unit-cell volume          =   17436.2743 (a.u.)^3
     number of atoms/cell      =           36
     number of atomic types    =            3
     number of electrons       =       307.00
     number of Kohn-Sham states=          185
     kinetic-energy cutoff     =      80.0000  Ry
     charge density cutoff     =     400.0000  Ry
     scf convergence threshold =      1.0E-06
     mixing beta               =       0.7000
     number of iterations used =            8  local-TF  mixing
     energy convergence thresh.=      1.0E-04
     force convergence thresh. =      1.0E-02
     Exchange-correlation= RVV10
                           (   1   4  13   4  26   0   0)
     nstep                     =          200


     celldm(1)=  17.870686  celldm(2)=   0.000000  celldm(3)=   0.000000
     celldm(4)=   0.000000  celldm(5)=   0.000000  celldm(6)=   0.000000

     crystal axes: (cart. coord. in units of alat)
               a(1) = (   1.000000   0.000000   0.000000 )  
               a(2) = (   0.000000   1.155671   0.000000 )  
               a(3) = (   0.000000   0.000000   2.643601 )  

     reciprocal axes: (cart. coord. in units 2 pi/alat)
               b(1) = (  1.000000  0.000000  0.000000 )  
               b(2) = (  0.000000  0.865298  0.000000 )  
               b(3) = (  0.000000  0.000000  0.378272 )  


     PseudoPot. # 1 for Mo read from file:
     ../pseudo/Mo_ONCV_PBE-1.0.oncvpsp.upf
     MD5 check sum: 1b5d28e075c9ccadda658a603575cd1f
     Pseudo is Norm-conserving, Zval = 14.0
     Generated using ONCVPSP code by D. R. Hamann
     Using radial grid of 1526 points,  6 beta functions with: 
                l(1) =   0
                l(2) =   0
                l(3) =   1
                l(4) =   1
                l(5) =   2
                l(6) =   2

     PseudoPot. # 2 for S  read from file:
     ../pseudo/s_pbe_v1.4.uspp.F.UPF
     MD5 check sum: 88d86576ff6df21479756cfb9bdac1df
     Pseudo is Ultrasoft + core correction, Zval =  6.0
     Generated by new atomic code, or converted to UPF format
     Using radial grid of  907 points,  6 beta functions with: 
                l(1) =   0
                l(2) =   0
                l(3) =   1
                l(4) =   1
                l(5) =   2
                l(6) =   2
     Q(r) pseudized with  8 coefficients,  rinner =    1.300   1.300   1.300
                                                       1.300   1.300

     PseudoPot. # 3 for H  read from file:
     ../pseudo/H_ONCV_PBE-1.0.oncvpsp.upf
     MD5 check sum: 1790becc920ee074925cf490c71280fe
     Pseudo is Norm-conserving, Zval =  1.0
     Generated using ONCVPSP code by D. R. Hamann
     Using radial grid of 1166 points,  2 beta functions with: 
                l(1) =   0
                l(2) =   0

     atomic species   valence    mass     pseudopotential
        Mo            14.00    95.94000     Mo( 1.00)
        S              6.00    32.06500     S ( 1.00)
        H              1.00     1.00794     H ( 1.00)

     No symmetry found



   Cartesian axes

     site n.     atom                  positions (alat units)
         1           Mo  tau(   1) = (   0.6952221   0.1890506   0.2985846  )
         2           S   tau(   2) = (   0.8646417   0.0856217   0.4689279  )
         3           S   tau(   3) = (   0.8663890   0.0857843   0.1351291  )
         4           Mo  tau(   4) = (   0.8560186   0.4753274   0.2873942  )
         5           S   tau(   5) = (   0.6873294   0.3936244   0.4596353  )
         6           S   tau(   6) = (   0.6929804   0.3713468   0.1185692  )
         7           Mo  tau(   7) = (   0.6862796   0.7633098   0.2825370  )
         8           S   tau(   8) = (   0.8545980   0.6708292   0.4486168  )
         9           S   tau(   9) = (   0.8545123   0.6666874   0.1146125  )
        10           Mo  tau(  10) = (   0.8629403   1.0471007   0.3006803  )
        11           S   tau(  11) = (   0.6868280   0.9456650   0.4634891  )
        12           S   tau(  12) = (   0.6998113   0.9568511   0.1205389  )
        13           Mo  tau(  13) = (   0.3618216   0.1847309   0.2935964  )
        14           S   tau(  14) = (   0.5260962   0.0863870   0.4600448  )
        15           S   tau(  15) = (   0.5348379   0.0894875   0.1297123  )
        16           Mo  tau(  16) = (   0.5265817   0.4772436   0.2784130  )
        17           S   tau(  17) = (   0.3624753   0.3882513   0.4525556  )
        18           S   tau(  18) = (   0.3635411   0.3752055   0.1119148  )
        19           Mo  tau(  19) = (   0.3652268   0.7630864   0.2781795  )
        20           S   tau(  20) = (   0.5269494   0.6690381   0.1096838  )
        21           Mo  tau(  21) = (   0.5300192   1.0470394   0.2900995  )
        22           S   tau(  22) = (   0.3670346   0.9457522   0.4574073  )
        23           S   tau(  23) = (   0.3604225   0.9585725   0.1159032  )
        24           Mo  tau(  24) = (   0.0313099   0.1847895   0.3013130  )
        25           S   tau(  25) = (   0.1956761   0.0838230   0.4650863  )
        26           S   tau(  26) = (   0.1967693   0.0903508   0.1278874  )
        27           Mo  tau(  27) = (   0.1967578   0.4753919   0.2813011  )
        28           S   tau(  28) = (   0.0287851   0.3864324   0.4586755  )
        29           S   tau(  29) = (   0.0244514   0.3729871   0.1239344  )
        30           Mo  tau(  30) = (   0.0286728   0.7631204   0.2856894  )
        31           S   tau(  31) = (   0.2011512   0.6675435   0.4465001  )
        32           S   tau(  32) = (   0.1969214   0.6672839   0.1104564  )
        33           Mo  tau(  33) = (   0.1950294   1.0511147   0.2932237  )
        34           S   tau(  34) = (   0.0312912   0.9612169   0.4667423  )
        35           S   tau(  35) = (   0.0292670   0.9563028   0.1216485  )
        36           H   tau(  36) = (   0.7777778   0.3852236   0.5407634  )

     number of k points=     1  Gaussian smearing, width (Ry)=  0.0100
                       cart. coord. in units 2pi/alat
        k(    1) = (   0.0000000   0.0000000   0.0000000), wk =   2.0000000

     Dense  grid:  1177734 G-vectors     FFT dimensions: ( 120, 135, 320)

     Smooth grid:   842757 G-vectors     FFT dimensions: ( 108, 120, 270)

     Estimated max dynamical RAM per process >     146.59 MB

     Estimated total dynamical RAM >       6.87 GB

     Initial potential from superposition of free atoms

     starting charge     306.9873, renormalised to     307.0000

     negative rho (up, down):  1.417E-04 0.000E+00


---------------------------------------------------------------------------------
Carrying out rVV10 run using the following parameters:
Nqs =      20    Nr_points =    1024   r_max =   100.000
b_value =  6.30000    beta =  0.00901
     q_mesh =  0.00010000  0.00030000  0.00058939  0.00100810
               0.00161396  0.00249058  0.00375900  0.00559430
               0.00824984  0.01209221  0.01765183  0.02569619
               0.03733578  0.05417739  0.07854596  0.11380545
               0.16482331  0.23864234  0.34545298  0.50000000

Gradients computed in Reciprocal space

---------------------------------------------------------------------------------


     Starting wfcs are  213 randomized atomic wfcs

     total cpu time spent up to now is        2.8 secs

     Self-consistent Calculation

     iteration #  1     ecut=    80.00 Ry     beta= 0.70
     Davidson diagonalization with overlap
     ethr =  1.00E-02,  avg # of iterations =  2.0

     Threshold (ethr) on eigenvalues was too large:
     Diagonalizing with lowered threshold

     Davidson diagonalization with overlap
     ethr =  3.68E-04,  avg # of iterations =  4.0

     negative rho (up, down):  1.398E-08 0.000E+00

     total cpu time spent up to now is       17.8 secs

     total energy              =   -2205.57652150 Ry
     estimated scf accuracy    <       1.41082952 Ry

     iteration #  2     ecut=    80.00 Ry     beta= 0.70
     Davidson diagonalization with overlap
     ethr =  4.60E-04,  avg # of iterations =  1.0

     total cpu time spent up to now is       20.2 secs

     total energy              =   -2205.38939864 Ry
     estimated scf accuracy    <       0.59460655 Ry

     iteration #  3     ecut=    80.00 Ry     beta= 0.70
     Davidson diagonalization with overlap
     ethr =  1.94E-04,  avg # of iterations =  2.0

     total cpu time spent up to now is       22.7 secs

     total energy              =   -2205.49333039 Ry
     estimated scf accuracy    <       0.07366234 Ry

     iteration #  4     ecut=    80.00 Ry     beta= 0.70
     Davidson diagonalization with overlap
     c_bands:  1 eigenvalues not converged
     ethr =  2.40E-05,  avg # of iterations = 20.0

     total cpu time spent up to now is       25.9 secs

     total energy              =   -2205.49557210 Ry
     estimated scf accuracy    <       0.03120017 Ry

     iteration #  5     ecut=    80.00 Ry     beta= 0.70
     Davidson diagonalization with overlap
     ethr =  1.02E-05,  avg # of iterations =  2.0

     total cpu time spent up to now is       28.1 secs

     total energy              =   -2205.49506159 Ry
     estimated scf accuracy    <       0.01900424 Ry

     iteration #  6     ecut=    80.00 Ry     beta= 0.70
     Davidson diagonalization with overlap
     ethr =  6.19E-06,  avg # of iterations =  2.0

     total cpu time spent up to now is       30.3 secs

     total energy              =   -2205.49435474 Ry
     estimated scf accuracy    <       0.01278141 Ry

     iteration #  7     ecut=    80.00 Ry     beta= 0.70
     Davidson diagonalization with overlap
     ethr =  4.16E-06,  avg # of iterations =  2.0

     negative rho (up, down):  5.390E-05 0.000E+00

     total cpu time spent up to now is       35.5 secs

     total energy              =   -2205.49209938 Ry
     estimated scf accuracy    <       0.00836598 Ry

     iteration #  8     ecut=    80.00 Ry     beta= 0.70
     Davidson diagonalization with overlap
     c_bands:  1 eigenvalues not converged
     ethr =  2.73E-06,  avg # of iterations = 20.0

     negative rho (up, down):  9.884E-03 0.000E+00

     total cpu time spent up to now is       40.5 secs

     total energy              =   -2205.49205623 Ry
     estimated scf accuracy    <       0.00403100 Ry

     iteration #  9     ecut=    80.00 Ry     beta= 0.70
     Davidson diagonalization with overlap
     ethr =  1.31E-06,  avg # of iterations =  2.0

     negative rho (up, down):  2.986E-02 0.000E+00

     total cpu time spent up to now is       45.5 secs

     total energy              =   -2205.49171529 Ry
     estimated scf accuracy    <       0.00256177 Ry

     iteration # 10     ecut=    80.00 Ry     beta= 0.70
     Davidson diagonalization with overlap
     ethr =  8.34E-07,  avg # of iterations =  2.0

     negative rho (up, down):  3.006E-02 0.000E+00

     total cpu time spent up to now is       51.0 secs

     total energy              =   -2205.49183636 Ry
     estimated scf accuracy    <       0.00095465 Ry

     iteration # 11     ecut=    80.00 Ry     beta= 0.70
     Davidson diagonalization with overlap
     ethr =  3.11E-07,  avg # of iterations =  2.0

     negative rho (up, down):  1.368E-02 0.000E+00

     total cpu time spent up to now is       57.2 secs

     total energy              =   -2205.49180373 Ry
     estimated scf accuracy    <       0.00040613 Ry

     iteration # 12     ecut=    80.00 Ry     beta= 0.70
     Davidson diagonalization with overlap
     ethr =  1.32E-07,  avg # of iterations =  2.0

     negative rho (up, down):  3.562E-03 0.000E+00

     total cpu time spent up to now is       63.6 secs

     total energy              =   -2205.49188120 Ry
     estimated scf accuracy    <       0.00004820 Ry

     iteration # 13     ecut=    80.00 Ry     beta= 0.70
     Davidson diagonalization with overlap
     ethr =  1.57E-08,  avg # of iterations = 10.0

     negative rho (up, down):  1.868E-03 0.000E+00

     total cpu time spent up to now is       70.2 secs

     total energy              =   -2205.49190484 Ry
     estimated scf accuracy    <       0.00001744 Ry

     iteration # 14     ecut=    80.00 Ry     beta= 0.70
     Davidson diagonalization with overlap
     ethr =  5.68E-09,  avg # of iterations =  2.0

     negative rho (up, down):  5.681E-04 0.000E+00

     total cpu time spent up to now is       82.0 secs

     total energy              =   -2205.49190528 Ry
     estimated scf accuracy    <       0.00000404 Ry

     iteration # 15     ecut=    80.00 Ry     beta= 0.70
     Davidson diagonalization with overlap
     ethr =  1.32E-09,  avg # of iterations =  2.0

     negative rho (up, down):  2.611E-04 0.000E+00

     total cpu time spent up to now is      129.8 secs

     total energy              =   -2205.49190605 Ry
     estimated scf accuracy    <       0.00000172 Ry

     iteration # 16     ecut=    80.00 Ry     beta= 0.70
     Davidson diagonalization with overlap
     ethr =  5.62E-10,  avg # of iterations =  2.0

     negative rho (up, down):  1.376E-04 0.000E+00

     total cpu time spent up to now is      131.8 secs

     End of self-consistent calculation

          k = 0.0000 0.0000 0.0000 (105382 PWs)   bands (ev):

   -62.8451 -62.8283 -62.8211 -62.8130 -62.8008 -62.7900 -62.7735 -62.7348
   -62.7223 -62.6922 -62.6144 -62.5185 -37.1773 -37.1202 -37.0959 -37.0818
   -37.0744 -37.0566 -37.0427 -37.0370 -37.0156 -37.0130 -37.0001 -36.9948
   -36.9901 -36.9869 -36.9738 -36.9630 -36.9618 -36.9565 -36.9480 -36.9244
   -36.8990 -36.8831 -36.8789 -36.8745 -36.8548 -36.8367 -36.8238 -36.8177
   -36.7995 -36.7896 -36.7699 -36.7548 -36.7127 -36.6905 -36.5898 -36.5168
   -17.0463 -15.8151 -15.0679 -15.0486 -14.8683 -14.8520 -14.6770 -14.4452
   -14.4064 -14.3814 -14.3306 -14.2830 -14.2700 -14.2264 -14.1654 -14.0660
   -14.0559 -14.0515 -13.9701 -13.8452 -13.7750 -13.7648 -13.7419  -9.6359
    -7.6288  -7.4268  -7.2872  -7.2298  -7.2139  -7.1325  -7.1150  -7.0406
    -6.8189  -6.7625  -6.7205  -6.6466  -6.5394  -6.5210  -6.4358  -6.3694
    -6.3018  -6.2262  -6.1793  -5.9346  -5.9200  -5.8639  -5.8314  -5.7523
    -5.7024  -5.6661  -5.6378  -5.6056  -5.5664  -5.5077  -5.5028  -5.4202
    -5.3635  -5.3488  -5.1415  -5.1018  -5.0139  -4.9875  -4.9222  -4.9176
    -4.8946  -4.7651  -4.7124  -4.4836  -4.4608  -4.3162  -4.2382  -4.1638
    -4.1113  -4.0313  -3.9452  -3.8134  -3.7927  -3.7583  -3.7130  -3.6567
    -3.5990  -3.5630  -3.4885  -3.4751  -3.4387  -3.4084  -3.3829  -3.3390
    -3.2983  -3.1419  -3.1305  -2.8811  -2.8186  -2.7527  -2.7303  -2.6917
    -2.6671  -2.6110  -2.5944  -2.5468  -2.5222  -2.2160  -2.0194  -1.9402
    -1.8294  -0.8346  -0.6960  -0.2861  -0.1475  -0.1043  -0.0038   0.0163
     0.0718   0.1583   0.1929   0.2257   0.3222   0.3507   0.4068   0.5052
     0.5241   0.5799   0.6166   0.6835   0.7003   0.7332   0.7553   0.7934
     0.8402   0.8542   0.9009   0.9667   1.0002   1.0329   1.0861   1.3428
     1.3939

     the Fermi energy is    -0.8483 ev

!    total energy              =   -2205.49190656 Ry
     estimated scf accuracy    <       0.00000045 Ry
     smearing contrib. (-TS)   =      -0.00719575 Ry
     internal energy E=F+TS    =   -2205.48471081 Ry

     The total energy is F=E-TS. E is the sum of the following terms:
     one-electron contribution =  -18056.00475585 Ry
     hartree contribution      =    9015.24911302 Ry
     xc contribution           =    -385.51249256 Ry
     ewald contribution        =    7220.78342457 Ry

     convergence has been achieved in  16 iterations

     negative rho (up, down):  1.376E-04 0.000E+00

     Forces acting on atoms (cartesian axes, Ry/au):

     atom    1 type  1   force =     0.01792788   -0.02651839    0.00779726
     atom    2 type  2   force =    -0.01462567    0.01609170    0.00176891
     atom    3 type  2   force =    -0.01330771    0.00920142   -0.00425860
     atom    4 type  1   force =     0.02166623    0.00570548   -0.02882336
     atom    5 type  2   force =    -0.23374278   -0.00778192   -0.21050626
     atom    6 type  2   force =     0.00067331    0.01132053    0.00121778
     atom    7 type  1   force =    -0.00203417   -0.02355111   -0.01002426
     atom    8 type  2   force =     0.00036091   -0.00269911    0.01954399
     atom    9 type  2   force =     0.01425070    0.00479598    0.01043191
     atom   10 type  1   force =    -0.01225950    0.00932268   -0.02570752
     atom   11 type  2   force =     0.00551339   -0.00209721   -0.00608914
     atom   12 type  2   force =    -0.00073437    0.00318118    0.00609783
     atom   13 type  1   force =     0.00846725    0.00670196   -0.00716109
     atom   14 type  2   force =     0.00661284   -0.00341119    0.01182920
     atom   15 type  2   force =    -0.01478142    0.00161308   -0.00983163
     atom   16 type  1   force =    -0.00317360    0.02078777   -0.01288599
     atom   17 type  2   force =     0.00058959   -0.00010178   -0.00462752
     atom   18 type  2   force =    -0.00327317   -0.00282444    0.01380270
     atom   19 type  1   force =     0.00265810    0.01100100   -0.01102367
     atom   20 type  2   force =     0.00088660   -0.00663476    0.00498695
     atom   21 type  1   force =    -0.00879507    0.00777575    0.00028480
     atom   22 type  2   force =    -0.00177360   -0.00318479   -0.00121099
     atom   23 type  2   force =    -0.00080366    0.00181475    0.01084819
     atom   24 type  1   force =    -0.01111934   -0.00108224   -0.02268674
     atom   25 type  2   force =     0.01712519    0.01867921    0.00787020
     atom   26 type  2   force =    -0.01067840   -0.00122510   -0.00363434
     atom   27 type  1   force =    -0.00994533   -0.00198529    0.01189950
     atom   28 type  2   force =     0.00503570   -0.00138006   -0.00740231
     atom   29 type  2   force =     0.00187309    0.00164805   -0.00408087
     atom   30 type  1   force =    -0.00290860    0.00928064   -0.00575756
     atom   31 type  2   force =     0.00122799    0.00062073    0.01773177
     atom   32 type  2   force =    -0.00971479    0.00342930    0.00842746
     atom   33 type  1   force =     0.01376825   -0.00490781   -0.01089555
     atom   34 type  2   force =     0.00352857   -0.04398644   -0.01092439
     atom   35 type  2   force =    -0.00778035    0.00698850    0.01526271
     atom   36 type  3   force =     0.23928594   -0.01658806    0.24773063
     The non-local contrib.  to forces
     atom    1 type  1   force =    -0.00325203    0.02431157   -0.01333573
     atom    2 type  2   force =    -0.01269275    0.00995008   -0.26410853
     atom    3 type  2   force =    -0.01873451   -0.00188334    0.27335882
     atom    4 type  1   force =    -0.00201408    0.02057746   -0.00128540
     atom    5 type  2   force =     0.00479638   -0.01354805   -0.13372092
     atom    6 type  2   force =     0.00016499    0.01026792    0.26676594
     atom    7 type  1   force =    -0.03118044    0.00445924   -0.01674275
     atom    8 type  2   force =     0.00485521   -0.00565075   -0.24393093
     atom    9 type  2   force =     0.01074319   -0.01756882    0.27796855
     atom   10 type  1   force =     0.00642823   -0.00557475   -0.00322790
     atom   11 type  2   force =     0.01422407    0.00319620   -0.25968203
     atom   12 type  2   force =    -0.01215759   -0.01658083    0.26300162
     atom   13 type  1   force =    -0.00561113    0.01600873   -0.00854147
     atom   14 type  2   force =     0.01043515   -0.00700969   -0.25886139
     atom   15 type  2   force =    -0.01401973   -0.00564127    0.25982234
     atom   16 type  1   force =     0.00788416    0.04825596   -0.01512850
     atom   17 type  2   force =    -0.01355744   -0.02869728   -0.23885795
     atom   18 type  2   force =    -0.00264638    0.00210986    0.27410005
     atom   19 type  1   force =     0.01881413   -0.00986787   -0.00316518
     atom   20 type  2   force =     0.00238252   -0.02538474    0.26581157
     atom   21 type  1   force =     0.00015362    0.01590992    0.00352319
     atom   22 type  2   force =    -0.00696551    0.00587777   -0.25823553
     atom   23 type  2   force =     0.00548373   -0.01481793    0.26736271
     atom   24 type  1   force =     0.01058622    0.01225731   -0.01077612
     atom   25 type  2   force =     0.01157681    0.00878271   -0.25850355
     atom   26 type  2   force =    -0.00149997   -0.01201758    0.26349381
     atom   27 type  1   force =     0.00354181    0.01540662    0.00843621
     atom   28 type  2   force =    -0.00010005   -0.02350729   -0.25846019
     atom   29 type  2   force =     0.00570759    0.00446744    0.26446072
     atom   30 type  1   force =     0.00573687    0.01953916    0.01137756
     atom   31 type  2   force =    -0.00927515   -0.00118872   -0.25256988
     atom   32 type  2   force =    -0.00575472   -0.01122475    0.27400864
     atom   33 type  1   force =    -0.00380202    0.00613610    0.00685061
     atom   34 type  2   force =    -0.00159117   -0.03882069   -0.27380498
     atom   35 type  2   force =    -0.00206437   -0.01207495    0.27193794
     atom   36 type  3   force =    -0.08063288    0.00836465   -0.06942057
     The ionic contribution  to forces
     atom    1 type  1   force =     0.19819418   -0.24465350    5.19401098
     atom    2 type  2   force =    -0.57510525    0.09527542   39.22926644
     atom    3 type  2   force =    -0.14716235   -0.04377029  -36.13451489
     atom    4 type  1   force =     0.37716811    0.92351221   -0.20723469
     atom    5 type  2   force =    -2.83218156    1.67029284   37.09333783
     atom    6 type  2   force =     0.31555843   -0.50621277  -38.15488513
     atom    7 type  1   force =    -2.67445603   -2.54517477    2.46429404
     atom    8 type  2   force =    -0.89828875    0.35900269   37.30577322
     atom    9 type  2   force =     0.35553989    0.01946006  -38.05484116
     atom   10 type  1   force =    -1.06590015   -0.41460229    5.64269885
     atom   11 type  2   force =    -0.58062474   -1.59166255   39.14753829
     atom   12 type  2   force =     0.43661774    0.69511353  -37.85405053
     atom   13 type  1   force =     0.38872304    0.86523720    2.79053206
     atom   14 type  2   force =    -0.05310414   -0.15870333   38.50047181
     atom   15 type  2   force =     0.12985678   -0.10699065  -36.83149737
     atom   16 type  1   force =    -0.34820350    4.09030569    0.16769710
     atom   17 type  2   force =     0.70858628    1.50133740   37.91307879
     atom   18 type  2   force =    -0.18142823   -0.64761597  -38.59483102
     atom   19 type  1   force =     2.67604894   -2.34344000    0.65047257
     atom   20 type  2   force =     0.20338691   -0.15782436  -38.50389098
     atom   21 type  1   force =    -0.01918749   -0.01687568    1.16763131
     atom   22 type  2   force =     0.44259340   -1.70880606   38.44643365
     atom   23 type  2   force =    -0.09225678    0.66725203  -38.27638754
     atom   24 type  1   force =    -0.29710079    0.89776081    5.63482334
     atom   25 type  2   force =     0.69775913    0.20826409   39.27428318
     atom   26 type  2   force =    -0.27661546    0.03545296  -37.33849347
     atom   27 type  1   force =     0.13610920    0.47110809   -2.35090929
     atom   28 type  2   force =     0.51390327    1.00869502   38.07011763
     atom   29 type  2   force =    -0.21449509   -0.43130144  -37.34082379
     atom   30 type  1   force =    -0.24603421   -0.74056296   -0.08047517
     atom   31 type  2   force =     1.26694166    0.01887985   37.32772215
     atom   32 type  2   force =    -0.46928197    0.02207138  -38.64177971
     atom   33 type  1   force =     0.82089501   -0.90153326    2.09182808
     atom   34 type  2   force =     0.26920535   -1.43917597   39.36674340
     atom   35 type  2   force =    -0.28836482    0.48003713  -37.80779275
     atom   36 type  3   force =     1.32270398   -0.03015255    8.69365278
     The local contribution  to forces
     atom    1 type  1   force =    -0.17704361    0.19382218   -5.17201482
     atom    2 type  2   force =     0.57271592   -0.08841351  -38.98325807
     atom    3 type  2   force =     0.15169555    0.05486417   35.87818853
     atom    4 type  1   force =    -0.35349732   -0.93828518    0.18046277
     atom    5 type  2   force =     2.59762466   -1.66580623  -37.18078647
     atom    6 type  2   force =    -0.31519739    0.50831215   37.91066723
     atom    7 type  1   force =     2.70361100    2.51718123   -2.45672659
     atom    8 type  2   force =     0.89381649   -0.35693049  -37.06159270
     atom    9 type  2   force =    -0.35173376    0.00196993   37.80861775
     atom   10 type  1   force =     1.04721565    0.42938260   -5.66429000
     atom   11 type  2   force =     0.57262676    1.58679863  -38.91411837
     atom   12 type  2   force =    -0.42630605   -0.67673382   37.61822865
     atom   13 type  1   force =    -0.37464004   -0.87455594   -2.78828827
     atom   14 type  2   force =     0.04989021    0.16253091  -38.24972095
     atom   15 type  2   force =    -0.13135525    0.11389391   36.58261656
     atom   16 type  1   force =     0.33718918   -4.11771732   -0.16454933
     atom   17 type  2   force =    -0.69491505   -1.47425237  -37.69812576
     atom   18 type  2   force =     0.18074436    0.64338736   38.35578991
     atom   19 type  1   force =    -2.69217163    2.36431302   -0.65744079
     atom   20 type  2   force =    -0.20480903    0.17556562   38.26449193
     atom   21 type  1   force =     0.01026254    0.00868285   -1.17000321
     atom   22 type  2   force =    -0.43760558    1.70040913  -38.20934678
     atom   23 type  2   force =     0.08646769   -0.65177764   38.04091886
     atom   24 type  1   force =     0.27543337   -0.91115478   -5.64587074
     atom   25 type  2   force =    -0.69201432   -0.19779292  -39.02801132
     atom   26 type  2   force =     0.26764157   -0.02531688   37.09247915
     atom   27 type  1   force =    -0.14959287   -0.48844447    2.35519428
     atom   28 type  2   force =    -0.50935238   -0.98831589  -37.83854827
     atom   29 type  2   force =     0.21117238    0.42917714   37.09317795
     atom   30 type  1   force =     0.23736918    0.73037180    0.06420159
     atom   31 type  2   force =    -1.25703624   -0.01724364  -37.07739264
     atom   32 type  2   force =     0.46521127   -0.00817061   38.39745212
     atom   33 type  1   force =    -0.80334925    0.89042292   -2.10866034
     atom   34 type  2   force =    -0.26451339    1.43278243  -39.12453249
     atom   35 type  2   force =     0.28271433   -0.46202815   37.57249980
     atom   36 type  3   force =    -1.00279843    0.00519609   -8.37642443
     The core correction contribution to forces
     atom    1 type  1   force =     0.00000000    0.00000000    0.00000000
     atom    2 type  2   force =     0.00046256   -0.00077935    0.02030316
     atom    3 type  2   force =     0.00089301   -0.00004571   -0.02103654
     atom    4 type  1   force =     0.00000000    0.00000000    0.00000000
     atom    5 type  2   force =    -0.00411228    0.00128628    0.01104700
     atom    6 type  2   force =     0.00013600   -0.00104035   -0.02108927
     atom    7 type  1   force =     0.00000000    0.00000000    0.00000000
     atom    8 type  2   force =    -0.00002376    0.00094355    0.01969588
     atom    9 type  2   force =    -0.00030841    0.00097129   -0.02104658
     atom   10 type  1   force =     0.00000000    0.00000000    0.00000000
     atom   11 type  2   force =    -0.00070584   -0.00044712    0.02060163
     atom   12 type  2   force =     0.00111573    0.00135348   -0.02082096
     atom   13 type  1   force =     0.00000000    0.00000000    0.00000000
     atom   14 type  2   force =    -0.00062174   -0.00027312    0.02039104
     atom   15 type  2   force =     0.00073251    0.00032256   -0.02053045
     atom   16 type  1   force =     0.00000000    0.00000000    0.00000000
     atom   17 type  2   force =     0.00049289    0.00150963    0.01970269
     atom   18 type  2   force =     0.00005971   -0.00071045   -0.02101626
     atom   19 type  1   force =     0.00000000    0.00000000    0.00000000
     atom   20 type  2   force =    -0.00003399    0.00101158   -0.02118243
     atom   21 type  1   force =     0.00000000    0.00000000    0.00000000
     atom   22 type  2   force =     0.00018173   -0.00065198    0.02042561
     atom   23 type  2   force =    -0.00049964    0.00117510   -0.02081964
     atom   24 type  1   force =     0.00000000    0.00000000    0.00000000
     atom   25 type  2   force =    -0.00018688   -0.00063828    0.02056283
     atom   26 type  2   force =    -0.00020182    0.00062204   -0.02086849
     atom   27 type  1   force =     0.00000000    0.00000000    0.00000000
     atom   28 type  2   force =     0.00061638    0.00175520    0.01990554
     atom   29 type  2   force =    -0.00050559   -0.00068757   -0.02064757
     atom   30 type  1   force =     0.00000000    0.00000000    0.00000000
     atom   31 type  2   force =     0.00057943    0.00020915    0.02042678
     atom   32 type  2   force =     0.00008063    0.00075696   -0.02102247
     atom   33 type  1   force =     0.00000000    0.00000000    0.00000000
     atom   34 type  2   force =     0.00044609    0.00120642    0.02113039
     atom   35 type  2   force =    -0.00006756    0.00103451   -0.02112537
     atom   36 type  3   force =     0.00000000    0.00000000    0.00000000
     The Hubbard contrib.    to forces
     atom    1 type  1   force =     0.00000000    0.00000000    0.00000000
     atom    2 type  2   force =     0.00000000    0.00000000    0.00000000
     atom    3 type  2   force =     0.00000000    0.00000000    0.00000000
     atom    4 type  1   force =     0.00000000    0.00000000    0.00000000
     atom    5 type  2   force =     0.00000000    0.00000000    0.00000000
     atom    6 type  2   force =     0.00000000    0.00000000    0.00000000
     atom    7 type  1   force =     0.00000000    0.00000000    0.00000000
     atom    8 type  2   force =     0.00000000    0.00000000    0.00000000
     atom    9 type  2   force =     0.00000000    0.00000000    0.00000000
     atom   10 type  1   force =     0.00000000    0.00000000    0.00000000
     atom   11 type  2   force =     0.00000000    0.00000000    0.00000000
     atom   12 type  2   force =     0.00000000    0.00000000    0.00000000
     atom   13 type  1   force =     0.00000000    0.00000000    0.00000000
     atom   14 type  2   force =     0.00000000    0.00000000    0.00000000
     atom   15 type  2   force =     0.00000000    0.00000000    0.00000000
     atom   16 type  1   force =     0.00000000    0.00000000    0.00000000
     atom   17 type  2   force =     0.00000000    0.00000000    0.00000000
     atom   18 type  2   force =     0.00000000    0.00000000    0.00000000
     atom   19 type  1   force =     0.00000000    0.00000000    0.00000000
     atom   20 type  2   force =     0.00000000    0.00000000    0.00000000
     atom   21 type  1   force =     0.00000000    0.00000000    0.00000000
     atom   22 type  2   force =     0.00000000    0.00000000    0.00000000
     atom   23 type  2   force =     0.00000000    0.00000000    0.00000000
     atom   24 type  1   force =     0.00000000    0.00000000    0.00000000
     atom   25 type  2   force =     0.00000000    0.00000000    0.00000000
     atom   26 type  2   force =     0.00000000    0.00000000    0.00000000
     atom   27 type  1   force =     0.00000000    0.00000000    0.00000000
     atom   28 type  2   force =     0.00000000    0.00000000    0.00000000
     atom   29 type  2   force =     0.00000000    0.00000000    0.00000000
     atom   30 type  1   force =     0.00000000    0.00000000    0.00000000
     atom   31 type  2   force =     0.00000000    0.00000000    0.00000000
     atom   32 type  2   force =     0.00000000    0.00000000    0.00000000
     atom   33 type  1   force =     0.00000000    0.00000000    0.00000000
     atom   34 type  2   force =     0.00000000    0.00000000    0.00000000
     atom   35 type  2   force =     0.00000000    0.00000000    0.00000000
     atom   36 type  3   force =     0.00000000    0.00000000    0.00000000
     The SCF correction term to forces
     atom    1 type  1   force =     0.00002961   -0.00000300   -0.00083435
     atom    2 type  2   force =    -0.00000589    0.00005469   -0.00040527
     atom    3 type  2   force =     0.00000087    0.00003223   -0.00022571
     atom    4 type  1   force =     0.00000979   -0.00010338   -0.00073722
     atom    5 type  2   force =     0.00013029   -0.00001112   -0.00035488
     atom    6 type  2   force =     0.00001155   -0.00001079   -0.00021218
     atom    7 type  1   force =    -0.00000843   -0.00002117   -0.00082013
     atom    8 type  2   force =     0.00000200   -0.00006846   -0.00037267
     atom    9 type  2   force =     0.00001005   -0.00004085   -0.00023782
     atom   10 type  1   force =    -0.00000296    0.00011276   -0.00085964
     atom   11 type  2   force =    -0.00000660    0.00001327   -0.00039984
     atom   12 type  2   force =    -0.00000392    0.00002446   -0.00023213
     atom   13 type  1   force =    -0.00000435    0.00000760   -0.00083458
     atom   14 type  2   force =     0.00001363    0.00003967   -0.00042250
     atom   15 type  2   force =     0.00000455    0.00002416   -0.00021390
     atom   16 type  1   force =    -0.00004317   -0.00006092   -0.00087645
     atom   17 type  2   force =    -0.00001683   -0.00000352   -0.00039646
     atom   18 type  2   force =    -0.00000236    0.00000040   -0.00021117
     atom   19 type  1   force =    -0.00003307   -0.00000853   -0.00086145
     atom   20 type  2   force =    -0.00003955   -0.00000722   -0.00021432
     atom   21 type  1   force =    -0.00002348    0.00005430   -0.00083768
     atom   22 type  2   force =     0.00002262   -0.00001800   -0.00045912
     atom   23 type  2   force =     0.00000161   -0.00002117   -0.00019738
     atom   24 type  1   force =    -0.00003787    0.00005005   -0.00083440
     atom   25 type  2   force =    -0.00000928    0.00005924   -0.00043213
     atom   26 type  2   force =    -0.00000244    0.00003000   -0.00021653
     atom   27 type  1   force =    -0.00000321   -0.00005989   -0.00079288
     atom   28 type  2   force =    -0.00003124   -0.00001148   -0.00038821
     atom   29 type  2   force =    -0.00000593   -0.00001188   -0.00021937
     atom   30 type  1   force =     0.00001982   -0.00007173   -0.00083273
     atom   31 type  2   force =     0.00001856   -0.00004027   -0.00042581
     atom   32 type  2   force =     0.00003028   -0.00000804   -0.00020231
     atom   33 type  1   force =     0.00002478    0.00006206   -0.00088509
     atom   34 type  2   force =    -0.00001804    0.00001700   -0.00043188
     atom   35 type  2   force =     0.00000234    0.00001559   -0.00022809
     atom   36 type  3   force =     0.00001353   -0.00000061   -0.00004833

     Total force =     0.480537     Total SCF correction =     0.003297

     BFGS Geometry Optimization
     Energy error            =      0.0E+00 Ry
     Gradient error          =      2.5E-01 Ry/Bohr

     number of scf cycles    =   1
     number of bfgs steps    =   0

     energy             new  =   -2205.4919065638 Ry

     new trust radius        =       0.3448237061 bohr
     new conv_thr            =       0.0000010000 Ry


ATOMIC_POSITIONS (angstrom)
Mo            6.5840354332        1.7737733033        2.8277691659
S             8.1689697669        0.8182193861        4.4354744180
S             8.1861909508        0.8161109266        1.2756298700
Mo            8.1066278377        4.4980761535        2.7025657278
S             6.3762179039        3.7182934732        4.2352655335
S             6.5537060966        3.5177281197        1.1219246521
Mo            6.4889052596        7.2059745743        2.6665798767
S             8.0819187149        6.3424426864        4.2528037968
S             8.0884587919        6.3072402385        1.0893833276
Mo            8.1541315996        9.9071137645        2.8298579287
S             6.4980851582        8.9418170178        4.3798832995
S             6.6175585873        9.0503946223        1.1431341373
Mo            3.4261403370        1.7505023746        2.7726816780
S             4.9786648532        0.8151360868        4.3567928332
S             5.0500117656        0.8471157159        1.2214557844
Mo            4.9780772859        4.5241784162        2.6260655744
S             3.4281536589        3.6715458266        4.2772608012
S             3.4361884963        3.5467340707        1.0656557547
Mo            3.4552683455        7.2221460178        2.6248433890
S             4.9837033622        6.3234213216        1.0398927138
Mo            5.0076097670        9.9057148008        2.7435516714
S             3.4700195688        8.9420659520        4.3249504850
S             3.4080038873        9.0659503069        1.1018089123
Mo            0.2902063845        1.7469368358        2.8374394049
S             1.8595244727        0.8025786182        4.4023741687
S             1.8551492705        0.8537776205        1.2074776458
Mo            1.8554284684        4.4946161906        2.6664943240
S             0.2748786282        3.6536685278        4.3336669641
S             0.2322224045        3.5281213362        1.1698583814
Mo            0.2696129845        7.2215571956        2.6986496578
S             1.9028880728        6.3131273100        4.2318273712
S             1.8570973705        6.3121585182        1.0490189002
Mo            1.8516325054        9.9375420521        2.7671805724
S             0.2977801378        9.0667212073        4.4080885272
S             0.2726542185        9.0472238670        1.1584774585
H             7.4818824429        3.6341886417        5.2449628690



     Writing config-only to output data dir ./MoS2-V-O.save/
     NEW-OLD atomic charge density approx. for the potential

     negative rho (up, down):  1.519E-04 0.000E+00

     total cpu time spent up to now is      135.1 secs

     Self-consistent Calculation

     iteration #  1     ecut=    80.00 Ry     beta= 0.70
     Davidson diagonalization with overlap
     c_bands:  2 eigenvalues not converged
     ethr =  1.00E-06,  avg # of iterations = 20.0

     negative rho (up, down):  5.298E-04 0.000E+00

     total cpu time spent up to now is      147.9 secs

     total energy              =   -2205.54118051 Ry
     estimated scf accuracy    <       0.03190599 Ry

     iteration #  2     ecut=    80.00 Ry     beta= 0.70
     Davidson diagonalization with overlap
     ethr =  1.04E-05,  avg # of iterations =  3.0

     negative rho (up, down):  1.141E-03 0.000E+00

     total cpu time spent up to now is      162.7 secs

     total energy              =   -2205.54193303 Ry
     estimated scf accuracy    <       0.00501678 Ry

     iteration #  3     ecut=    80.00 Ry     beta= 0.70
     Davidson diagonalization with overlap
     ethr =  1.63E-06,  avg # of iterations =  5.0

     negative rho (up, down):  1.478E-03 0.000E+00

     total cpu time spent up to now is      178.9 secs

     total energy              =   -2205.54242284 Ry
     estimated scf accuracy    <       0.00063810 Ry

     iteration #  4     ecut=    80.00 Ry     beta= 0.70
     Davidson diagonalization with overlap
     ethr =  2.08E-07,  avg # of iterations =  2.0

     negative rho (up, down):  1.638E-03 0.000E+00

     total cpu time spent up to now is      192.9 secs

     total energy              =   -2205.54248885 Ry
     estimated scf accuracy    <       0.00009061 Ry

     iteration #  5     ecut=    80.00 Ry     beta= 0.70
     Davidson diagonalization with overlap
     ethr =  2.95E-08,  avg # of iterations =  6.0

     negative rho (up, down):  1.558E-03 0.000E+00

     total cpu time spent up to now is      205.8 secs

     total energy              =   -2205.54250069 Ry
     estimated scf accuracy    <       0.00002985 Ry

     iteration #  6     ecut=    80.00 Ry     beta= 0.70
     Davidson diagonalization with overlap
     ethr =  9.72E-09,  avg # of iterations =  3.0

     negative rho (up, down):  1.308E-03 0.000E+00

     total cpu time spent up to now is      216.9 secs

     total energy              =   -2205.54250284 Ry
     estimated scf accuracy    <       0.00000761 Ry

     iteration #  7     ecut=    80.00 Ry     beta= 0.70
     Davidson diagonalization with overlap
     ethr =  2.48E-09,  avg # of iterations =  5.0

     negative rho (up, down):  9.639E-04 0.000E+00

     total cpu time spent up to now is      227.3 secs

     total energy              =   -2205.54250251 Ry
     estimated scf accuracy    <       0.00000242 Ry

     iteration #  8     ecut=    80.00 Ry     beta= 0.70
     Davidson diagonalization with overlap
     ethr =  7.89E-10,  avg # of iterations =  4.0

     negative rho (up, down):  1.376E-04 0.000E+00

     total cpu time spent up to now is      229.4 secs

     End of self-consistent calculation

          k = 0.0000 0.0000 0.0000 (105382 PWs)   bands (ev):

   -62.8492 -62.8359 -62.8301 -62.8222 -62.8197 -62.8148 -62.7919 -62.7557
   -62.7524 -62.7393 -62.6359 -62.5426 -37.1903 -37.1354 -37.1078 -37.1039
   -37.0906 -37.0764 -37.0567 -37.0416 -37.0293 -37.0236 -37.0117 -37.0099
   -37.0060 -37.0028 -36.9963 -36.9857 -36.9787 -36.9744 -36.9645 -36.9438
   -36.9309 -36.9132 -36.9066 -36.9003 -36.8941 -36.8704 -36.8501 -36.8437
   -36.8303 -36.8078 -36.7955 -36.7814 -36.7413 -36.7142 -36.6305 -36.5519
   -16.1982 -15.6571 -15.0825 -15.0436 -14.8858 -14.8646 -14.6774 -14.4731
   -14.4151 -14.4018 -14.3555 -14.3040 -14.2945 -14.2516 -14.1810 -14.0972
   -14.0792 -14.0653 -13.9928 -13.8485 -13.7980 -13.7914 -13.7724  -8.7368
    -7.6676  -7.4777  -7.3240  -7.2828  -7.2423  -7.1551  -7.1254  -7.0255
    -6.8428  -6.7865  -6.7509  -6.6857  -6.5586  -6.4959  -6.4618  -6.3949
    -6.3144  -6.2015  -6.1696  -5.9784  -5.9426  -5.8842  -5.8256  -5.7651
    -5.7242  -5.7032  -5.6601  -5.6419  -5.6018  -5.5407  -5.5213  -5.4401
    -5.3806  -5.3509  -5.1725  -5.1076  -5.0224  -4.9778  -4.9551  -4.9325
    -4.9181  -4.8048  -4.7131  -4.5269  -4.4154  -4.3166  -4.2637  -4.1886
    -4.1475  -4.0599  -3.9706  -3.8280  -3.7954  -3.7575  -3.7222  -3.6633
    -3.6244  -3.5790  -3.5292  -3.5042  -3.4592  -3.4385  -3.4010  -3.3675
    -3.3205  -3.1600  -3.1322  -2.9002  -2.8242  -2.7478  -2.7306  -2.7080
    -2.6782  -2.6462  -2.6313  -2.5759  -2.5508  -2.2211  -2.0665  -1.9678
    -1.8861  -0.9289  -0.7226  -0.3492  -0.1373  -0.0916  -0.0562   0.0033
     0.0807   0.1776   0.1995   0.2493   0.3015   0.3489   0.3697   0.4621
     0.5059   0.5594   0.5913   0.6517   0.6711   0.7213   0.7579   0.7859
     0.8208   0.8265   0.8785   0.9403   0.9847   1.0188   1.0408   1.3286
     1.4111

     the Fermi energy is    -0.9324 ev

!    total energy              =   -2205.54250190 Ry
     estimated scf accuracy    <       0.00000094 Ry
     smearing contrib. (-TS)   =      -0.00616102 Ry
     internal energy E=F+TS    =   -2205.53634088 Ry

     The total energy is F=E-TS. E is the sum of the following terms:
     one-electron contribution =  -18067.85781890 Ry
     hartree contribution      =    9020.95443436 Ry
     xc contribution           =    -385.39077838 Ry
     ewald contribution        =    7226.75782205 Ry

     convergence has been achieved in   8 iterations

     negative rho (up, down):  1.376E-04 0.000E+00

     Forces acting on atoms (cartesian axes, Ry/au):

     atom    1 type  1   force =    -0.00287921   -0.02264798   -0.01104873
     atom    2 type  2   force =    -0.00957197    0.01445174    0.00092383
     atom    3 type  2   force =    -0.01064728    0.00634493   -0.01013786
     atom    4 type  1   force =     0.00144461    0.00310839   -0.01020755
     atom    5 type  2   force =     0.10975875   -0.03551322    0.08588872
     atom    6 type  2   force =     0.00201463    0.00617734   -0.00474599
     atom    7 type  1   force =     0.00247742   -0.01580246   -0.00096941
     atom    8 type  2   force =    -0.00006706   -0.00760117    0.01190909
     atom    9 type  2   force =     0.01310218    0.00617913    0.00335449
     atom   10 type  1   force =    -0.00474837    0.00728832   -0.00975853
     atom   11 type  2   force =     0.00439937   -0.00251352   -0.00960803
     atom   12 type  2   force =    -0.00360386    0.00001399    0.00317835
     atom   13 type  1   force =     0.00378418    0.00254495   -0.00479118
     atom   14 type  2   force =     0.00561043   -0.00307933    0.00982838
     atom   15 type  2   force =    -0.01008371    0.00156111   -0.00758012
     atom   16 type  1   force =    -0.03113701    0.02901655   -0.03210319
     atom   17 type  2   force =    -0.00340620   -0.00016320   -0.00310278
     atom   18 type  2   force =    -0.00746568   -0.00482244    0.00788056
     atom   19 type  1   force =     0.00072599    0.00714022   -0.00496353
     atom   20 type  2   force =     0.00067632   -0.00026936   -0.00424517
     atom   21 type  1   force =    -0.00579416    0.00376908    0.00203532
     atom   22 type  2   force =    -0.00103263   -0.00192662   -0.00080596
     atom   23 type  2   force =     0.00010880    0.00249135    0.00383801
     atom   24 type  1   force =    -0.00594181    0.00050511   -0.00859351
     atom   25 type  2   force =     0.01193866    0.01409181    0.00014279
     atom   26 type  2   force =    -0.00567120   -0.00081488   -0.00412176
     atom   27 type  1   force =    -0.00418285    0.00048338    0.00613074
     atom   28 type  2   force =    -0.00446619   -0.00410845   -0.00252846
     atom   29 type  2   force =     0.00483970    0.00187806   -0.00763378
     atom   30 type  1   force =    -0.00253110    0.00219067    0.00352823
     atom   31 type  2   force =     0.00067612    0.00211419    0.01110078
     atom   32 type  2   force =    -0.00786617    0.00228152    0.00668064
     atom   33 type  1   force =     0.00667112   -0.00117339   -0.00000088
     atom   34 type  2   force =     0.00068160   -0.03177262   -0.01492530
     atom   35 type  2   force =    -0.00604309    0.00740140    0.00796648
     atom   36 type  3   force =    -0.04177032    0.01117545   -0.01251470
     The non-local contrib.  to forces
     atom    1 type  1   force =    -0.00048023    0.02217085   -0.01024451
     atom    2 type  2   force =    -0.00815701    0.00630184   -0.25978825
     atom    3 type  2   force =    -0.01248198   -0.00491259    0.26670191
     atom    4 type  1   force =     0.00000331    0.02064881    0.00352810
     atom    5 type  2   force =     0.28245006   -0.02001021    0.10545636
     atom    6 type  2   force =    -0.00049308    0.00714224    0.26564758
     atom    7 type  1   force =    -0.02800471    0.00349961   -0.02057272
     atom    8 type  2   force =     0.00435366   -0.00603852   -0.25115278
     atom    9 type  2   force =     0.00811252   -0.01819522    0.27488637
     atom   10 type  1   force =     0.00559179   -0.00460523   -0.00407293
     atom   11 type  2   force =     0.01189830    0.00123490   -0.26357859
     atom   12 type  2   force =    -0.01383117   -0.02029327    0.26380540
     atom   13 type  1   force =    -0.00474584    0.01860073   -0.00895151
     atom   14 type  2   force =     0.00954909   -0.00580408   -0.26273712
     atom   15 type  2   force =    -0.00955946   -0.00533271    0.26131232
     atom   16 type  1   force =     0.01523356    0.04129035   -0.00864377
     atom   17 type  2   force =    -0.01353194   -0.02882878   -0.24055208
     atom   18 type  2   force =    -0.00530123    0.00111421    0.27177337
     atom   19 type  1   force =     0.01790564   -0.00853055   -0.00468183
     atom   20 type  2   force =     0.00242103   -0.01958772    0.25948604
     atom   21 type  1   force =    -0.00093515    0.01845945    0.00255617
     atom   22 type  2   force =    -0.00571875    0.00750421   -0.25731754
     atom   23 type  2   force =     0.00590258   -0.01408256    0.26292266
     atom   24 type  1   force =     0.00831620    0.01419692   -0.00984134
     atom   25 type  2   force =     0.00845384    0.00486324   -0.26465432
     atom   26 type  2   force =     0.00260195   -0.01158784    0.26331201
     atom   27 type  1   force =    -0.00011324    0.01012732    0.00535964
     atom   28 type  2   force =    -0.01256191   -0.02840276   -0.24955132
     atom   29 type  2   force =     0.00665823    0.00148359    0.26250094
     atom   30 type  1   force =     0.00431526    0.01955740    0.00850629
     atom   31 type  2   force =    -0.00883896    0.00043998   -0.25643988
     atom   32 type  2   force =    -0.00436465   -0.01073252    0.27384437
     atom   33 type  1   force =    -0.00227672    0.00517009    0.00536864
     atom   34 type  2   force =    -0.00333880   -0.02906115   -0.27757585
     atom   35 type  2   force =    -0.00163559   -0.01104306    0.26813268
     atom   36 type  3   force =    -0.03083354    0.00313178   -0.02758580
     The ionic contribution  to forces
     atom    1 type  1   force =     0.26449031   -0.20054129    5.49885757
     atom    2 type  2   force =    -0.38803527    0.05758317   39.38330631
     atom    3 type  2   force =    -0.11495948   -0.04649434  -36.24031688
     atom    4 type  1   force =     0.28201325    0.72636742   -0.12366275
     atom    5 type  2   force =    -1.25655645    1.63080459   36.97294474
     atom    6 type  2   force =     0.30350096   -0.62661625  -38.12036792
     atom    7 type  1   force =    -2.53160007   -2.20294608    2.53070495
     atom    8 type  2   force =    -0.94806881    0.20703267   37.49811046
     atom    9 type  2   force =     0.35449033    0.09432145  -38.04465633
     atom   10 type  1   force =    -0.82743102   -0.49747468    5.43520555
     atom   11 type  2   force =    -0.52661349   -1.63003120   39.09823680
     atom   12 type  2   force =     0.36978549    0.62423849  -37.77919278
     atom   13 type  1   force =     0.20649934    0.72197636    2.74445586
     atom   14 type  2   force =    -0.09142078   -0.17089171   38.65958575
     atom   15 type  2   force =     0.16520047   -0.07833043  -36.88846371
     atom   16 type  1   force =    -0.82951308    4.26792200   -0.61164239
     atom   17 type  2   force =     0.60113782    1.48622784   37.96780406
     atom   18 type  2   force =    -0.24484511   -0.62834161  -38.53818624
     atom   19 type  1   force =     2.52511532   -2.42498255    0.51940553
     atom   20 type  2   force =     0.15172417   -0.07254435  -38.59927826
     atom   21 type  1   force =     0.10470459   -0.11836073    1.37875050
     atom   22 type  2   force =     0.43883448   -1.70348576   38.54423872
     atom   23 type  2   force =    -0.06596361    0.67092021  -38.30115182
     atom   24 type  1   force =    -0.14000280    0.73662009    5.47364877
     atom   25 type  2   force =     0.53668596    0.15329057   39.26574768
     atom   26 type  2   force =    -0.24835742    0.03711661  -37.28643260
     atom   27 type  1   force =     0.17263755    0.56135669   -1.89091776
     atom   28 type  2   force =     0.29095739    0.93570681   38.12280145
     atom   29 type  2   force =    -0.12324859   -0.44874057  -37.40523114
     atom   30 type  1   force =    -0.24700542   -0.80099296    0.02990660
     atom   31 type  2   force =     1.26414193    0.04722208   37.42622209
     atom   32 type  2   force =    -0.43844966   -0.02048839  -38.56547900
     atom   33 type  1   force =     0.52973700   -0.62550627    2.21398024
     atom   34 type  2   force =     0.19687666   -1.21995284   39.29551416
     atom   35 type  2   force =    -0.25909340    0.49807380  -37.71743187
     atom   36 type  3   force =     0.52263145    0.05994117    8.05298368
     The local contribution  to forces
     atom    1 type  1   force =    -0.26724382    0.15567489   -5.49908162
     atom    2 type  2   force =     0.38627242   -0.04890978  -39.14222761
     atom    3 type  2   force =     0.11621784    0.05761655   35.98435791
     atom    4 type  1   force =    -0.28065104   -0.74359663    0.11028522
     atom    5 type  2   force =     1.10078693   -1.64764482  -36.99201296
     atom    6 type  2   force =    -0.30113837    0.62670007   37.87083190
     atom    7 type  1   force =     2.56212683    2.18374949   -2.51032868
     atom    8 type  2   force =     0.94357529   -0.20925870  -37.25467997
     atom    9 type  2   force =    -0.34944963   -0.07093416   37.79425472
     atom   10 type  1   force =     0.81703814    0.50901168   -5.44001789
     atom   11 type  2   force =     0.51961407    1.62654308  -38.86453183
     atom   12 type  2   force =    -0.36069645   -0.60555870   37.53957145
     atom   13 type  1   force =    -0.19796237   -0.73802413   -2.73945708
     atom   14 type  2   force =     0.08797088    0.17386242  -38.40707781
     atom   15 type  2   force =    -0.16640035    0.08488600   36.64024730
     atom   16 type  1   force =     0.78299349   -4.28014139    0.58870244
     atom   17 type  2   force =    -0.59158136   -1.45912140  -37.74956282
     atom   18 type  2   force =     0.24253814    0.62299506   38.29526203
     atom   19 type  1   force =    -2.54222867    2.44071175   -0.51890160
     atom   20 type  2   force =    -0.15323655    0.09108918   38.35658755
     atom   21 type  1   force =    -0.10952691    0.10353171   -1.37838920
     atom   22 type  2   force =    -0.43424150    1.69485630  -38.30758931
     atom   23 type  2   force =     0.06067041   -0.65544806   38.06284441
     atom   24 type  1   force =     0.12607182   -0.75041990   -5.47167713
     atom   25 type  2   force =    -0.53298304   -0.14361422  -39.02118302
     atom   26 type  2   force =     0.24051503   -0.02695234   37.03995547
     atom   27 type  1   force =    -0.17658230   -0.57099225    1.89241301
     atom   28 type  2   force =    -0.28370041   -0.91328422  -37.89483486
     atom   29 type  2   force =     0.12190924    0.44973418   37.15574211
     atom   30 type  1   force =     0.24007425    0.78365567   -0.03410099
     atom   31 type  2   force =    -1.25521739   -0.04573413  -37.17860623
     atom   32 type  2   force =     0.43487975    0.03278605   38.31931453
     atom   33 type  1   force =    -0.52074054    0.61922509   -2.21840923
     atom   34 type  2   force =    -0.19329669    1.21632267  -39.05359256
     atom   35 type  2   force =     0.25474498   -0.48066761   37.47836098
     atom   36 type  3   force =    -0.53357981   -0.05189413   -8.03779350
     The core correction contribution to forces
     atom    1 type  1   force =     0.00000000    0.00000000    0.00000000
     atom    2 type  2   force =     0.00038264   -0.00066566    0.02021882
     atom    3 type  2   force =     0.00059727    0.00011073   -0.02087359
     atom    4 type  1   force =     0.00000000    0.00000000    0.00000000
     atom    5 type  2   force =    -0.01704818    0.00139618    0.00010223
     atom    6 type  2   force =     0.00013352   -0.00099190   -0.02090045
     atom    7 type  1   force =     0.00000000    0.00000000    0.00000000
     atom    8 type  2   force =    -0.00000926    0.00084218    0.02002868
     atom    9 type  2   force =    -0.00015519    0.00102569   -0.02101846
     atom   10 type  1   force =     0.00000000    0.00000000    0.00000000
     atom   11 type  2   force =    -0.00054687   -0.00038449    0.02071709
     atom   12 type  2   force =     0.00111213    0.00148781   -0.02085591
     atom   13 type  1   force =     0.00000000    0.00000000    0.00000000
     atom   14 type  2   force =    -0.00062042   -0.00029023    0.02058217
     atom   15 type  2   force =     0.00058986    0.00034894   -0.02058917
     atom   16 type  1   force =     0.00000000    0.00000000    0.00000000
     atom   17 type  2   force =     0.00055086    0.00151207    0.01974825
     atom   18 type  2   force =     0.00013256   -0.00062522   -0.02093852
     atom   19 type  1   force =     0.00000000    0.00000000    0.00000000
     atom   20 type  2   force =    -0.00009157    0.00078781   -0.02101838
     atom   21 type  1   force =     0.00000000    0.00000000    0.00000000
     atom   22 type  2   force =     0.00011404   -0.00075168    0.02043170
     atom   23 type  2   force =    -0.00047638    0.00115936   -0.02073980
     atom   24 type  1   force =     0.00000000    0.00000000    0.00000000
     atom   25 type  2   force =    -0.00011386   -0.00047571    0.02073678
     atom   26 type  2   force =    -0.00036295    0.00061186   -0.02084239
     atom   27 type  1   force =     0.00000000    0.00000000    0.00000000
     atom   28 type  2   force =     0.00100666    0.00190083    0.01957202
     atom   29 type  2   force =    -0.00044919   -0.00055365   -0.02064305
     atom   30 type  1   force =     0.00000000    0.00000000    0.00000000
     atom   31 type  2   force =     0.00057203    0.00018397    0.02049818
     atom   32 type  2   force =     0.00002140    0.00066257   -0.02100314
     atom   33 type  1   force =     0.00000000    0.00000000    0.00000000
     atom   34 type  2   force =     0.00046866    0.00088317    0.02124923
     atom   35 type  2   force =    -0.00006199    0.00099776   -0.02101171
     atom   36 type  3   force =     0.00000000    0.00000000    0.00000000
     The Hubbard contrib.    to forces
     atom    1 type  1   force =     0.00000000    0.00000000    0.00000000
     atom    2 type  2   force =     0.00000000    0.00000000    0.00000000
     atom    3 type  2   force =     0.00000000    0.00000000    0.00000000
     atom    4 type  1   force =     0.00000000    0.00000000    0.00000000
     atom    5 type  2   force =     0.00000000    0.00000000    0.00000000
     atom    6 type  2   force =     0.00000000    0.00000000    0.00000000
     atom    7 type  1   force =     0.00000000    0.00000000    0.00000000
     atom    8 type  2   force =     0.00000000    0.00000000    0.00000000
     atom    9 type  2   force =     0.00000000    0.00000000    0.00000000
     atom   10 type  1   force =     0.00000000    0.00000000    0.00000000
     atom   11 type  2   force =     0.00000000    0.00000000    0.00000000
     atom   12 type  2   force =     0.00000000    0.00000000    0.00000000
     atom   13 type  1   force =     0.00000000    0.00000000    0.00000000
     atom   14 type  2   force =     0.00000000    0.00000000    0.00000000
     atom   15 type  2   force =     0.00000000    0.00000000    0.00000000
     atom   16 type  1   force =     0.00000000    0.00000000    0.00000000
     atom   17 type  2   force =     0.00000000    0.00000000    0.00000000
     atom   18 type  2   force =     0.00000000    0.00000000    0.00000000
     atom   19 type  1   force =     0.00000000    0.00000000    0.00000000
     atom   20 type  2   force =     0.00000000    0.00000000    0.00000000
     atom   21 type  1   force =     0.00000000    0.00000000    0.00000000
     atom   22 type  2   force =     0.00000000    0.00000000    0.00000000
     atom   23 type  2   force =     0.00000000    0.00000000    0.00000000
     atom   24 type  1   force =     0.00000000    0.00000000    0.00000000
     atom   25 type  2   force =     0.00000000    0.00000000    0.00000000
     atom   26 type  2   force =     0.00000000    0.00000000    0.00000000
     atom   27 type  1   force =     0.00000000    0.00000000    0.00000000
     atom   28 type  2   force =     0.00000000    0.00000000    0.00000000
     atom   29 type  2   force =     0.00000000    0.00000000    0.00000000
     atom   30 type  1   force =     0.00000000    0.00000000    0.00000000
     atom   31 type  2   force =     0.00000000    0.00000000    0.00000000
     atom   32 type  2   force =     0.00000000    0.00000000    0.00000000
     atom   33 type  1   force =     0.00000000    0.00000000    0.00000000
     atom   34 type  2   force =     0.00000000    0.00000000    0.00000000
     atom   35 type  2   force =     0.00000000    0.00000000    0.00000000
     atom   36 type  3   force =     0.00000000    0.00000000    0.00000000
     The SCF correction term to forces
     atom    1 type  1   force =     0.00035419    0.00004503   -0.00055315
     atom    2 type  2   force =    -0.00003508    0.00013961   -0.00055841
     atom    3 type  2   force =    -0.00002125    0.00002204    0.00001980
     atom    4 type  1   force =     0.00007877   -0.00031376   -0.00033110
     atom    5 type  2   force =     0.00012606   -0.00006152   -0.00057464
     atom    6 type  2   force =     0.00001127   -0.00005938    0.00006991
     atom    7 type  1   force =    -0.00004496   -0.00010803   -0.00074595
     atom    8 type  2   force =     0.00008174   -0.00018135   -0.00037029
     atom    9 type  2   force =     0.00010382   -0.00004117   -0.00008480
     atom   10 type  1   force =     0.00005239    0.00035400   -0.00084625
     atom   11 type  2   force =     0.00004704    0.00012164   -0.00042449
     atom   12 type  2   force =     0.00002582    0.00013710   -0.00012279
     atom   13 type  1   force =    -0.00000727   -0.00001056   -0.00081143
     atom   14 type  2   force =     0.00013134    0.00004172   -0.00049758
     atom   15 type  2   force =     0.00008543   -0.00001325   -0.00005984
     atom   16 type  1   force =     0.00014868   -0.00005696   -0.00049245
     atom   17 type  2   force =     0.00001810    0.00004452   -0.00051316
     atom   18 type  2   force =     0.00000964    0.00003258   -0.00000306
     atom   19 type  1   force =    -0.00006662   -0.00006098   -0.00075862
     atom   20 type  2   force =    -0.00014108   -0.00001683    0.00000489
     atom   21 type  1   force =    -0.00003702    0.00013610   -0.00085514
     atom   22 type  2   force =    -0.00002124   -0.00005223   -0.00054251
     atom   23 type  2   force =    -0.00002453   -0.00006015   -0.00001042
     atom   24 type  1   force =    -0.00032735    0.00010545   -0.00069678
     atom   25 type  2   force =    -0.00010456    0.00002538   -0.00047731
     atom   26 type  2   force =    -0.00006813   -0.00000573   -0.00008723
     atom   27 type  1   force =    -0.00012519   -0.00001093   -0.00069714
     atom   28 type  2   force =    -0.00016825   -0.00003167   -0.00048873
     atom   29 type  2   force =    -0.00003032   -0.00004805    0.00002439
     atom   30 type  1   force =     0.00008449   -0.00003199   -0.00075666
     atom   31 type  2   force =     0.00001818   -0.00000026   -0.00054636
     atom   32 type  2   force =     0.00004667    0.00005125    0.00003089
     atom   33 type  1   force =    -0.00004894   -0.00006486   -0.00091351
     atom   34 type  2   force =    -0.00002856    0.00003297   -0.00049326
     atom   35 type  2   force =     0.00000258    0.00003796   -0.00005658
     atom   36 type  3   force =     0.00001126   -0.00000592   -0.00009206

     Total force =     0.176022     Total SCF correction =     0.003150
     Energy error            =      5.1E-02 Ry
     Gradient error          =      1.1E-01 Ry/Bohr

     number of scf cycles    =   2
     number of bfgs steps    =   1

     energy             old  =   -2205.4919065638 Ry
     energy             new  =   -2205.5425018950 Ry

     CASE: energy            _new < energy            _old

     new trust radius        =       0.1004311976 bohr
     new conv_thr            =       0.0000001098 Ry


ATOMIC_POSITIONS (angstrom)
Mo            6.5833576757        1.7630167686        2.8231930451
S             8.1643129326        0.8250562924        4.4359354399
S             8.1811068532        0.8191818032        1.2710614329
Mo            8.1079607693        4.4996193619        2.6971713774
S             6.4166165599        3.7025211824        4.2659847495
S             6.5546083509        3.5207943755        1.1198899507
Mo            6.4899220934        7.1983058154        2.6658316098
S             8.0819010946        6.3390333531        4.2586412846
S             8.0946462848        6.3100959997        1.0911871431
Mo            8.1516594391        9.9106008566        2.8247607087
S             6.5001863439        8.9406506262        4.3754871344
S             6.6159598166        9.0505037483        1.1447206280
Mo            3.4280683173        1.7518316120        2.7703559052
S             4.9813309079        0.8136798686        4.3614711722
S             5.0451262437        0.8478501993        1.2178246863
Mo            4.9643667503        4.5375326296        2.6116182851
S             3.4266841461        3.6714712085        4.2757549505
S             3.4328197894        3.5445350658        1.0695467452
Mo            3.4556716975        7.2256227314        2.6223172171
S             4.9840276449        6.3230887557        1.0381989413
Mo            5.0047927486        9.9076137904        2.7444503857
S             3.4695108452        8.9411208323        4.3245590427
S             3.4080254113        9.0670978643        1.1038375211
Mo            0.2872495771        1.7471225369        2.8329491539
S             1.8652965585        0.8093420125        4.4026914242
S             1.8523250048        0.8533818215        1.2055586305
Mo            1.8532783924        4.4947631523        2.6695589629
S             0.2730898409        3.6518283266        4.3323222539
S             0.2343981485        3.5289954714        1.1663900559
Mo            0.2684126336        7.2228151064        2.7000051525
S             1.9032233207        6.3140713707        4.2372529221
S             1.8533450458        6.3132666558        1.0522114276
Mo            1.8549938191        9.9368703209        2.7668273670
S             0.2981922800        9.0514112910        4.4012119883
S             0.2697612713        9.0506847922        1.1624532758
H             7.4713761808        3.6385354776        5.2475156051



     Writing config-only to output data dir ./MoS2-V-O.save/
     NEW-OLD atomic charge density approx. for the potential

     negative rho (up, down):  1.455E-04 0.000E+00

     total cpu time spent up to now is      232.9 secs

     Self-consistent Calculation

     iteration #  1     ecut=    80.00 Ry     beta= 0.70
     Davidson diagonalization with overlap
     ethr =  1.00E-06,  avg # of iterations = 12.0

     negative rho (up, down):  9.624E-05 0.000E+00

     total cpu time spent up to now is      246.1 secs

     total energy              =   -2205.56041629 Ry
     estimated scf accuracy    <       0.00309943 Ry

     iteration #  2     ecut=    80.00 Ry     beta= 0.70
     Davidson diagonalization with overlap
     ethr =  1.01E-06,  avg # of iterations =  2.0

     negative rho (up, down):  7.927E-05 0.000E+00

     total cpu time spent up to now is      258.1 secs

     total energy              =   -2205.56060578 Ry
     estimated scf accuracy    <       0.00055474 Ry

     iteration #  3     ecut=    80.00 Ry     beta= 0.70
     Davidson diagonalization with overlap
     ethr =  1.81E-07,  avg # of iterations =  3.0

     negative rho (up, down):  6.619E-05 0.000E+00

     total cpu time spent up to now is      274.4 secs

     total energy              =   -2205.56063579 Ry
     estimated scf accuracy    <       0.00012932 Ry

     iteration #  4     ecut=    80.00 Ry     beta= 0.70
     Davidson diagonalization with overlap
     ethr =  4.21E-08,  avg # of iterations =  4.0

     negative rho (up, down):  6.204E-05 0.000E+00

     total cpu time spent up to now is      288.0 secs

     total energy              =   -2205.56065390 Ry
     estimated scf accuracy    <       0.00001442 Ry

     iteration #  5     ecut=    80.00 Ry     beta= 0.70
     Davidson diagonalization with overlap
     ethr =  4.70E-09,  avg # of iterations =  6.0

     negative rho (up, down):  6.059E-05 0.000E+00

     total cpu time spent up to now is      301.7 secs

     total energy              =   -2205.56065795 Ry
     estimated scf accuracy    <       0.00000391 Ry

     iteration #  6     ecut=    80.00 Ry     beta= 0.70
     Davidson diagonalization with overlap
     ethr =  1.27E-09,  avg # of iterations =  3.0

     negative rho (up, down):  6.184E-05 0.000E+00

     total cpu time spent up to now is      316.0 secs

     total energy              =   -2205.56065838 Ry
     estimated scf accuracy    <       0.00000093 Ry

     iteration #  7     ecut=    80.00 Ry     beta= 0.70
     Davidson diagonalization with overlap
     ethr =  3.02E-10,  avg # of iterations =  5.0

     negative rho (up, down):  6.657E-05 0.000E+00

     total cpu time spent up to now is      329.6 secs

     total energy              =   -2205.56065855 Ry
     estimated scf accuracy    <       0.00000043 Ry

     iteration #  8     ecut=    80.00 Ry     beta= 0.70
     Davidson diagonalization with overlap
     ethr =  1.40E-10,  avg # of iterations =  2.0

     negative rho (up, down):  9.043E-05 0.000E+00

     total cpu time spent up to now is      336.8 secs

     total energy              =   -2205.56065851 Ry
     estimated scf accuracy    <       0.00000022 Ry

     iteration #  9     ecut=    80.00 Ry     beta= 0.70
     Davidson diagonalization with overlap
     ethr =  7.28E-11,  avg # of iterations =  3.0

     negative rho (up, down):  1.378E-04 0.000E+00

     total cpu time spent up to now is      339.1 secs

     End of self-consistent calculation

          k = 0.0000 0.0000 0.0000 (105382 PWs)   bands (ev):

   -62.8550 -62.8411 -62.8348 -62.8256 -62.8190 -62.8123 -62.7898 -62.7523
   -62.7425 -62.7346 -62.6501 -62.5362 -37.1903 -37.1313 -37.1109 -37.1058
   -37.0878 -37.0770 -37.0606 -37.0457 -37.0301 -37.0261 -37.0124 -37.0114
   -37.0084 -37.0039 -36.9949 -36.9846 -36.9777 -36.9736 -36.9641 -36.9401
   -36.9258 -36.9059 -36.9043 -36.8989 -36.8886 -36.8679 -36.8502 -36.8438
   -36.8283 -36.8075 -36.7942 -36.7813 -36.7413 -36.7100 -36.6357 -36.5449
   -16.2273 -15.6811 -15.0833 -15.0510 -14.8837 -14.8614 -14.6754 -14.4636
   -14.4100 -14.4003 -14.3617 -14.3028 -14.2974 -14.2534 -14.1811 -14.0989
   -14.0785 -14.0651 -13.9932 -13.8485 -13.8047 -13.7964 -13.7681  -8.8489
    -7.6509  -7.4542  -7.3035  -7.2639  -7.2425  -7.1533  -7.1300  -7.0368
    -6.8326  -6.7776  -6.7468  -6.6671  -6.5578  -6.4998  -6.4552  -6.3937
    -6.3129  -6.2027  -6.1861  -5.9621  -5.9280  -5.8826  -5.8327  -5.7631
    -5.7253  -5.7031  -5.6604  -5.6404  -5.6021  -5.5403  -5.5250  -5.4389
    -5.3751  -5.3437  -5.1523  -5.1060  -5.0172  -4.9809  -4.9566  -4.9419
    -4.9194  -4.8045  -4.7183  -4.5258  -4.4165  -4.3172  -4.2627  -4.1879
    -4.1571  -4.0622  -3.9759  -3.8268  -3.7955  -3.7546  -3.7261  -3.6670
    -3.6266  -3.5776  -3.5286  -3.5087  -3.4598  -3.4378  -3.3965  -3.3704
    -3.3251  -3.1615  -3.1442  -2.8945  -2.8212  -2.7494  -2.7307  -2.7091
    -2.6679  -2.6539  -2.6353  -2.5804  -2.5515  -2.2184  -2.0622  -1.9682
    -1.8864  -0.9066  -0.7235  -0.3547  -0.1336  -0.0959  -0.0429  -0.0060
     0.0865   0.1775   0.1998   0.2372   0.3170   0.3437   0.3762   0.4658
     0.5067   0.5652   0.5954   0.6613   0.6797   0.7181   0.7566   0.7757
     0.8259   0.8325   0.8755   0.9390   0.9964   1.0177   1.0566   1.3243
     1.4059

     the Fermi energy is    -0.9126 ev

!    total energy              =   -2205.56065843 Ry
     estimated scf accuracy    <       0.00000004 Ry
     smearing contrib. (-TS)   =      -0.00644969 Ry
     internal energy E=F+TS    =   -2205.55420874 Ry

     The total energy is F=E-TS. E is the sum of the following terms:
     one-electron contribution =  -18063.63028262 Ry
     hartree contribution      =    9018.91334404 Ry
     xc contribution           =    -385.39158364 Ry
     ewald contribution        =    7224.55431348 Ry

     convergence has been achieved in   9 iterations

     negative rho (up, down):  1.378E-04 0.000E+00

     Forces acting on atoms (cartesian axes, Ry/au):

     atom    1 type  1   force =    -0.00217935   -0.01170919   -0.00596174
     atom    2 type  2   force =    -0.00695048    0.00937315   -0.00083400
     atom    3 type  2   force =    -0.00910814    0.00484056   -0.01176843
     atom    4 type  1   force =     0.00416767    0.00300582   -0.00518550
     atom    5 type  2   force =     0.06883289   -0.02418571    0.04985528
     atom    6 type  2   force =    -0.00067903    0.00533408   -0.00264569
     atom    7 type  1   force =     0.00275594   -0.01353507   -0.00028798
     atom    8 type  2   force =    -0.00007196   -0.00782178    0.00913065
     atom    9 type  2   force =     0.01104502    0.00585798    0.00148707
     atom   10 type  1   force =    -0.00230805    0.00659123   -0.00464864
     atom   11 type  2   force =     0.00399631   -0.00293260   -0.00961504
     atom   12 type  2   force =    -0.00409856   -0.00054297    0.00259217
     atom   13 type  1   force =     0.00392860    0.00281126   -0.00162925
     atom   14 type  2   force =     0.00360561   -0.00282458    0.00672221
     atom   15 type  2   force =    -0.00902604    0.00009222   -0.00793502
     atom   16 type  1   force =    -0.00666606    0.01057604   -0.00384086
     atom   17 type  2   force =     0.00042580    0.00184649   -0.00338308
     atom   18 type  2   force =    -0.00761329   -0.00236561    0.00355584
     atom   19 type  1   force =    -0.00183716    0.00225227   -0.00317832
     atom   20 type  2   force =    -0.00130845    0.00352105   -0.00909750
     atom   21 type  1   force =    -0.00479366    0.00291534    0.00204128
     atom   22 type  2   force =    -0.00067580   -0.00129647   -0.00011100
     atom   23 type  2   force =     0.00030203    0.00313103    0.00163409
     atom   24 type  1   force =    -0.00488535    0.00024403   -0.00593853
     atom   25 type  2   force =     0.00896828    0.01162093   -0.00186316
     atom   26 type  2   force =    -0.00454238   -0.00102434   -0.00368561
     atom   27 type  1   force =    -0.00399596    0.00068876    0.00618189
     atom   28 type  2   force =    -0.00384021   -0.00294070   -0.00504115
     atom   29 type  2   force =     0.00385974    0.00159087   -0.00787696
     atom   30 type  1   force =    -0.00236512   -0.00019994    0.00426893
     atom   31 type  2   force =     0.00129442    0.00209987    0.00866317
     atom   32 type  2   force =    -0.00689346    0.00284543    0.00566852
     atom   33 type  1   force =     0.00344117    0.00026999    0.00172584
     atom   34 type  2   force =    -0.00044823   -0.02454395   -0.01396842
     atom   35 type  2   force =    -0.00462106    0.00680213    0.00579891
     atom   36 type  3   force =    -0.02771566    0.00761235   -0.00083000
     The non-local contrib.  to forces
     atom    1 type  1   force =    -0.00003852    0.01855755   -0.01333183
     atom    2 type  2   force =    -0.00653004    0.00355814   -0.26101968
     atom    3 type  2   force =    -0.01165868   -0.00574907    0.26548281
     atom    4 type  1   force =     0.00127690    0.02112216    0.00218606
     atom    5 type  2   force =     0.26074157   -0.01038492    0.07808746
     atom    6 type  2   force =    -0.00249986    0.00686904    0.26908400
     atom    7 type  1   force =    -0.02951970    0.00277634   -0.02227002
     atom    8 type  2   force =     0.00534581   -0.00619204   -0.25183134
     atom    9 type  2   force =     0.00620874   -0.01825447    0.27307580
     atom   10 type  1   force =     0.00496429   -0.00472067   -0.00465842
     atom   11 type  2   force =     0.01072339    0.00055889   -0.26382734
     atom   12 type  2   force =    -0.01397918   -0.02101619    0.26403449
     atom   13 type  1   force =    -0.00385586    0.01870342   -0.00887443
     atom   14 type  2   force =     0.00736823   -0.00598318   -0.26315372
     atom   15 type  2   force =    -0.00917067   -0.00659237    0.26006867
     atom   16 type  1   force =     0.01066829    0.04751746   -0.01620228
     atom   17 type  2   force =    -0.01254938   -0.02734356   -0.24082029
     atom   18 type  2   force =    -0.00486414    0.00379558    0.26918459
     atom   19 type  1   force =     0.01968641   -0.00564083   -0.00535389
     atom   20 type  2   force =     0.00029352   -0.01665948    0.25673265
     atom   21 type  1   force =    -0.00173279    0.01833122    0.00139534
     atom   22 type  2   force =    -0.00528176    0.00800372   -0.25651819
     atom   23 type  2   force =     0.00604087   -0.01338072    0.26116406
     atom   24 type  1   force =     0.00746152    0.01472404   -0.00979784
     atom   25 type  2   force =     0.00630147    0.00308173   -0.26586489
     atom   26 type  2   force =     0.00325361   -0.01086443    0.26402278
     atom   27 type  1   force =     0.00034428    0.01001549    0.00472423
     atom   28 type  2   force =    -0.00879795   -0.02597875   -0.25125014
     atom   29 type  2   force =     0.00532907    0.00108527    0.26303436
     atom   30 type  1   force =     0.00399634    0.02044688    0.00890248
     atom   31 type  2   force =    -0.00872291   -0.00022875   -0.25911157
     atom   32 type  2   force =    -0.00277534   -0.01016350    0.27331856
     atom   33 type  1   force =    -0.00095910    0.00399341    0.00479615
     atom   34 type  2   force =    -0.00434116   -0.02335718   -0.27779824
     atom   35 type  2   force =    -0.00078707   -0.01158218    0.26721761
     atom   36 type  3   force =    -0.03614689    0.00277770   -0.03284908
     The ionic contribution  to forces
[...]
     atom   27 type  1   force =    -0.00163769    0.01414891    0.00403652
     atom   28 type  2   force =    -0.00443830   -0.01158102   -0.26050470
     atom   29 type  2   force =    -0.00216104   -0.00771191    0.26639182
     atom   30 type  1   force =     0.00410267    0.02379431    0.00801774
     atom   31 type  2   force =    -0.01003743   -0.00665985   -0.26397434
     atom   32 type  2   force =     0.00610649   -0.00990063    0.26919234
     atom   33 type  1   force =     0.00100083    0.00261303    0.00399339
     atom   34 type  2   force =    -0.00222736   -0.00757023   -0.27102044
     atom   35 type  2   force =     0.00059078   -0.01382973    0.26682307
     atom   36 type  3   force =    -0.01703373    0.00158398   -0.05712292
     The ionic contribution  to forces
     atom    1 type  1   force =    -0.47601894    0.40480166    3.00791717
     atom    2 type  2   force =    -0.00781071   -0.21765932   38.95773720
     atom    3 type  2   force =     0.01928455   -0.09828930  -37.54339009
     atom    4 type  1   force =    -0.20801210    0.74332377   -0.18305080
     atom    5 type  2   force =    -1.48091080    1.22924724   36.42757567
     atom    6 type  2   force =     0.07103924   -0.38763824  -37.86390055
     atom    7 type  1   force =    -2.61893281   -1.50035563    3.54775399
     atom    8 type  2   force =    -1.08957405    0.41802736   38.20007582
     atom    9 type  2   force =     0.14615973    0.15280664  -37.88725770
     atom   10 type  1   force =    -0.60756637   -0.71712516    2.90820613
     atom   11 type  2   force =    -0.43894066   -1.43389528   38.48693732
     atom   12 type  2   force =     0.23412508    0.20678224  -37.57541285
     atom   13 type  1   force =     0.19349526    0.90886132    2.37464594
     atom   14 type  2   force =    -0.13795147   -0.09822887   38.68018114
     atom   15 type  2   force =     0.05683387   -0.00740578  -37.43009269
     atom   16 type  1   force =    -0.99646192    3.59234587    2.27576505
     atom   17 type  2   force =     0.81944628    1.31242757   38.10547922
     atom   18 type  2   force =    -0.07751151   -0.20958165  -37.70308382
     atom   19 type  1   force =     2.65508808   -2.79455712    1.11108785
     atom   20 type  2   force =    -0.08401278   -0.10316457  -38.48496634
     atom   21 type  1   force =     0.35778547   -0.41074222    1.44868865
     atom   22 type  2   force =     0.42293467   -1.49494281   38.75085888
     atom   23 type  2   force =    -0.09221766    0.37418974  -38.35906214
     atom   24 type  1   force =     0.16755824    0.14277428    2.22159780
     atom   25 type  2   force =     0.21398844    0.00367678   38.79058389
     atom   26 type  2   force =    -0.02284606    0.02630329  -37.53449232
     atom   27 type  1   force =     1.05262990    0.65924624    1.08773626
     atom   28 type  2   force =     0.32607682    0.44667098   38.30200244
     atom   29 type  2   force =     0.08998059   -0.17827338  -37.87583188
     atom   30 type  1   force =    -0.14619443   -0.44879306    1.51034838
     atom   31 type  2   force =     1.44160886    0.12445916   38.05025640
     atom   32 type  2   force =    -0.15740909   -0.11492613  -37.91293734
     atom   33 type  1   force =     0.18199102   -0.32157018    2.32736095
     atom   34 type  2   force =     0.05832346   -0.48120702   38.74455597
     atom   35 type  2   force =    -0.09268497    0.16371236  -37.56987728
     atom   36 type  3   force =     0.22670678    0.10869926    8.60600369
     The local contribution  to forces
     atom    1 type  1   force =     0.47958434   -0.41475999   -2.99290393
     atom    2 type  2   force =     0.01422246    0.21858895  -38.72084548
     atom    3 type  2   force =    -0.01621544    0.10857628   37.29479281
     atom    4 type  1   force =     0.20393567   -0.75976266    0.18589468
     atom    5 type  2   force =     1.37534511   -1.20867408  -36.65275827
     atom    6 type  2   force =    -0.07477342    0.39238926   37.61030534
     atom    7 type  1   force =     2.65620996    1.50235936   -3.52225570
     atom    8 type  2   force =     1.08453198   -0.41192395  -37.96234247
     atom    9 type  2   force =    -0.14360451   -0.13065001   37.63991537
     atom   10 type  1   force =     0.60243767    0.72244925   -2.90873563
     atom   11 type  2   force =     0.43554857    1.43676454  -38.24721313
     atom   12 type  2   force =    -0.22401036   -0.19145971   37.32953584
     atom   13 type  1   force =    -0.19009971   -0.93041689   -2.36762758
     atom   14 type  2   force =     0.13164843    0.10092625  -38.43967650
     atom   15 type  2   force =    -0.05765543    0.01615744   37.18683924
     atom   16 type  1   force =     0.99337346   -3.64122821   -2.25606374
     atom   17 type  2   force =    -0.81426300   -1.29701655  -37.88298516
     atom   18 type  2   force =     0.07628236    0.21010066   37.45706804
     atom   19 type  1   force =    -2.67503880    2.80134732   -1.10652404
     atom   20 type  2   force =     0.08394671    0.11658154   38.24481509
     atom   21 type  1   force =    -0.35241344    0.39703212   -1.44866127
     atom   22 type  2   force =    -0.41725289    1.48825359  -38.51441225
     atom   23 type  2   force =     0.08785280   -0.36266354   38.12116570
     atom   24 type  1   force =    -0.17071769   -0.15899480   -2.22072534
     atom   25 type  2   force =    -0.21599560    0.00175630  -38.54609539
     atom   26 type  2   force =     0.02058707   -0.01859038   37.28714687
     atom   27 type  1   force =    -1.05112177   -0.67341257   -1.09243263
     atom   28 type  2   force =    -0.32104794   -0.43637061  -38.06216269
     atom   29 type  2   force =    -0.08832642    0.18519396   37.63015261
     atom   30 type  1   force =     0.14228571    0.42580176   -1.51758021
     atom   31 type  2   force =    -1.43210635   -0.11987197  -37.80621968
     atom   32 type  2   force =     0.15290837    0.12533039   37.66356585
     atom   33 type  1   force =    -0.18242892    0.31886790   -2.33053814
     atom   34 type  2   force =    -0.05570709    0.48907711  -38.49430190
     atom   35 type  2   force =     0.09204750   -0.14991490   37.32542820
     atom   36 type  3   force =    -0.21110603   -0.10965656   -8.55032791
     The core correction contribution to forces
     atom    1 type  1   force =     0.00000000    0.00000000    0.00000000
     atom    2 type  2   force =     0.00052022   -0.00032595    0.02025941
     atom    3 type  2   force =     0.00026860    0.00041358   -0.02107385
     atom    4 type  1   force =     0.00000000    0.00000000    0.00000000
     atom    5 type  2   force =    -0.00718414    0.00113917   -0.00888405
     atom    6 type  2   force =    -0.00015748   -0.00024349   -0.02123969
     atom    7 type  1   force =     0.00000000    0.00000000    0.00000000
     atom    8 type  2   force =    -0.00004964    0.00091149    0.02020997
     atom    9 type  2   force =     0.00021431    0.00127565   -0.02089311
     atom   10 type  1   force =     0.00000000    0.00000000    0.00000000
     atom   11 type  2   force =     0.00000465   -0.00009653    0.02043945
     atom   12 type  2   force =     0.00073807    0.00081727   -0.02076027
     atom   13 type  1   force =     0.00000000    0.00000000    0.00000000
     atom   14 type  2   force =    -0.00047263   -0.00031467    0.02046548
     atom   15 type  2   force =     0.00001490    0.00040844   -0.02074875
     atom   16 type  1   force =     0.00000000    0.00000000    0.00000000
     atom   17 type  2   force =     0.00023058    0.00075771    0.01973509
     atom   18 type  2   force =    -0.00005190   -0.00024955   -0.02077860
     atom   19 type  1   force =     0.00000000    0.00000000    0.00000000
     atom   20 type  2   force =    -0.00015642    0.00064311   -0.02115014
     atom   21 type  1   force =     0.00000000    0.00000000    0.00000000
     atom   22 type  2   force =     0.00006269   -0.00065014    0.02048222
     atom   23 type  2   force =    -0.00038468    0.00100427   -0.02070664
     atom   24 type  1   force =     0.00000000    0.00000000    0.00000000
     atom   25 type  2   force =     0.00000433    0.00014540    0.02067656
     atom   26 type  2   force =    -0.00014224    0.00040936   -0.02097272
     atom   27 type  1   force =     0.00000000    0.00000000    0.00000000
     atom   28 type  2   force =     0.00049262    0.00074127    0.02044922
     atom   29 type  2   force =     0.00024619    0.00012075   -0.02086054
     atom   30 type  1   force =     0.00000000    0.00000000    0.00000000
     atom   31 type  2   force =     0.00071617    0.00061570    0.02065046
     atom   32 type  2   force =    -0.00042911    0.00048659   -0.02090360
     atom   33 type  1   force =     0.00000000    0.00000000    0.00000000
     atom   34 type  2   force =     0.00024069    0.00024154    0.02105799
     atom   35 type  2   force =    -0.00000137    0.00082973   -0.02091677
     atom   36 type  3   force =     0.00000000    0.00000000    0.00000000
     The Hubbard contrib.    to forces
     atom    1 type  1   force =     0.00000000    0.00000000    0.00000000
     atom    2 type  2   force =     0.00000000    0.00000000    0.00000000
     atom    3 type  2   force =     0.00000000    0.00000000    0.00000000
     atom    4 type  1   force =     0.00000000    0.00000000    0.00000000
     atom    5 type  2   force =     0.00000000    0.00000000    0.00000000
     atom    6 type  2   force =     0.00000000    0.00000000    0.00000000
     atom    7 type  1   force =     0.00000000    0.00000000    0.00000000
     atom    8 type  2   force =     0.00000000    0.00000000    0.00000000
     atom    9 type  2   force =     0.00000000    0.00000000    0.00000000
     atom   10 type  1   force =     0.00000000    0.00000000    0.00000000
     atom   11 type  2   force =     0.00000000    0.00000000    0.00000000
     atom   12 type  2   force =     0.00000000    0.00000000    0.00000000
     atom   13 type  1   force =     0.00000000    0.00000000    0.00000000
     atom   14 type  2   force =     0.00000000    0.00000000    0.00000000
     atom   15 type  2   force =     0.00000000    0.00000000    0.00000000
     atom   16 type  1   force =     0.00000000    0.00000000    0.00000000
     atom   17 type  2   force =     0.00000000    0.00000000    0.00000000
     atom   18 type  2   force =     0.00000000    0.00000000    0.00000000
     atom   19 type  1   force =     0.00000000    0.00000000    0.00000000
     atom   20 type  2   force =     0.00000000    0.00000000    0.00000000
     atom   21 type  1   force =     0.00000000    0.00000000    0.00000000
     atom   22 type  2   force =     0.00000000    0.00000000    0.00000000
     atom   23 type  2   force =     0.00000000    0.00000000    0.00000000
     atom   24 type  1   force =     0.00000000    0.00000000    0.00000000
     atom   25 type  2   force =     0.00000000    0.00000000    0.00000000
     atom   26 type  2   force =     0.00000000    0.00000000    0.00000000
     atom   27 type  1   force =     0.00000000    0.00000000    0.00000000
     atom   28 type  2   force =     0.00000000    0.00000000    0.00000000
     atom   29 type  2   force =     0.00000000    0.00000000    0.00000000
     atom   30 type  1   force =     0.00000000    0.00000000    0.00000000
     atom   31 type  2   force =     0.00000000    0.00000000    0.00000000
     atom   32 type  2   force =     0.00000000    0.00000000    0.00000000
     atom   33 type  1   force =     0.00000000    0.00000000    0.00000000
     atom   34 type  2   force =     0.00000000    0.00000000    0.00000000
     atom   35 type  2   force =     0.00000000    0.00000000    0.00000000
     atom   36 type  3   force =     0.00000000    0.00000000    0.00000000
     The SCF correction term to forces
     atom    1 type  1   force =    -0.00000228    0.00002811    0.00002875
     atom    2 type  2   force =     0.00000429   -0.00003081    0.00000138
     atom    3 type  2   force =     0.00000339   -0.00002273    0.00000220
     atom    4 type  1   force =    -0.00007887    0.00001928   -0.00001022
     atom    5 type  2   force =    -0.00003674    0.00001399   -0.00005089
     atom    6 type  2   force =    -0.00000929    0.00002908    0.00003693
     atom    7 type  1   force =    -0.00004842   -0.00000019   -0.00001614
     atom    8 type  2   force =    -0.00000775    0.00000208    0.00000622
     atom    9 type  2   force =    -0.00000861    0.00001275   -0.00001595
     atom   10 type  1   force =    -0.00001179   -0.00000568   -0.00001315
     atom   11 type  2   force =    -0.00000388    0.00000639   -0.00001402
     atom   12 type  2   force =     0.00000588   -0.00001743    0.00002040
     atom   13 type  1   force =    -0.00003621   -0.00006833    0.00003713
     atom   14 type  2   force =    -0.00001131   -0.00000885    0.00000838
     atom   15 type  2   force =    -0.00001011   -0.00001653    0.00000899
     atom   16 type  1   force =     0.00006950    0.00002647    0.00002530
     atom   17 type  2   force =     0.00002179   -0.00000006    0.00001751
     atom   18 type  2   force =     0.00000744   -0.00000112    0.00000095
     atom   19 type  1   force =     0.00006777    0.00002379    0.00000174
     atom   20 type  2   force =     0.00002604   -0.00000070    0.00001101
     atom   21 type  1   force =    -0.00002353   -0.00003207    0.00004504
     atom   22 type  2   force =     0.00002153    0.00001897    0.00000932
     atom   23 type  2   force =     0.00000800    0.00001340   -0.00000184
     atom   24 type  1   force =     0.00005408   -0.00004775    0.00003452
     atom   25 type  2   force =     0.00001074   -0.00001044   -0.00001173
     atom   26 type  2   force =     0.00000271   -0.00001215    0.00002328
     atom   27 type  1   force =    -0.00002317   -0.00000426    0.00002321
     atom   28 type  2   force =     0.00000743    0.00000265   -0.00000852
     atom   29 type  2   force =     0.00000297   -0.00000295    0.00000486
     atom   30 type  1   force =    -0.00003627    0.00001693   -0.00005341
     atom   31 type  2   force =    -0.00000498   -0.00000993    0.00000960
     atom   32 type  2   force =    -0.00001014   -0.00000022   -0.00000710
     atom   33 type  1   force =    -0.00003058    0.00005721   -0.00002655
     atom   34 type  2   force =    -0.00000592    0.00001644    0.00000835
     atom   35 type  2   force =    -0.00000763    0.00001805   -0.00000940
     atom   36 type  3   force =     0.00000024    0.00000031    0.00000129

     Total force =     0.008149     Total SCF correction =     0.000257
     Energy error            =      9.8E-05 Ry
     Gradient error          =      2.3E-03 Ry/Bohr

     bfgs converged in  27 scf cycles and  26 bfgs steps
     (criteria: energy <  1.0E-04 Ry, force <  1.0E-02 Ry/Bohr)

     End of BFGS Geometry Optimization

     Final energy             =   -2205.5944450826 Ry

     File ./MoS2-V-O.bfgs deleted, as requested
Begin final coordinates

ATOMIC_POSITIONS (angstrom)
Mo            6.5861652789        1.7368958286        2.7717132270
S             8.1572864083        0.8311902645        4.3735284748
S             8.1535055930        0.8359633888        1.1682753577
Mo            8.1663789927        4.4923306697        2.7047658900
S             6.5797075005        3.6467843584        4.2691917080
S             6.5790016761        3.5490519596        1.1219878223
Mo            6.5021681795        7.1605352358        2.6798292584
S             8.0989338183        6.3091635895        4.3032923001
S             8.1352451184        6.3217143278        1.1067474469
Mo            8.1473261764        9.9308885131        2.7636501680
S             6.5263878839        8.9412025676        4.3237342030
S             6.5905563557        9.0193039906        1.1352493974
Mo            3.4434071693        1.7649687112        2.7515856205
S             4.9973018015        0.8117699099        4.3478840538
S             5.0136199198        0.8446884174        1.1687924769
Mo            5.0377305321        4.5427613520        2.6622419362
S             3.4771545627        3.6740161802        4.2951796666
S             3.4495966674        3.5795879862        1.1169987189
Mo            3.4630961177        7.2396093982        2.6352114131
S             4.9857888319        6.3083399403        1.0437927560
Mo            4.9947526787        9.9128245945        2.7297448763
S             3.4666477952        8.9652514436        4.3230777639
S             3.4073035493        9.0667436217        1.0957117815
Mo            0.2770979446        1.7494503711        2.7606042222
S             1.8716277036        0.8550376621        4.3554781418
S             1.8591318661        0.8590715332        1.1651312010
Mo            1.8696153064        4.5009203900        2.7157960965
S             0.2904867150        3.6117481701        4.3154072187
S             0.2896656807        3.5633473874        1.1327188027
Mo            0.2701884857        7.2168422042        2.7219961913
S             1.9177217836        6.3317095550        4.2852348369
S             1.8431078320        6.3192597500        1.1006434359
Mo            1.8604139202        9.9476756420        2.7485269706
S             0.2803466451        9.0228126421        4.3433151659
S             0.2696370379        9.0504423114        1.1572286441
H             6.9695012617        3.6100092094        5.5964803315
End final coordinates



     Writing all to output data dir ./MoS2-V-O.save/
 
     init_run     :      2.49s CPU      2.67s WALL (       1 calls)
     electrons    :   2498.13s CPU   2743.68s WALL (      27 calls)
     update_pot   :     36.68s CPU     38.27s WALL (      26 calls)
     forces       :     37.64s CPU     40.19s WALL (      27 calls)

     Called by init_run:
     wfcinit      :      0.39s CPU      0.44s WALL (       1 calls)
     potinit      :      1.37s CPU      1.45s WALL (       1 calls)
     hinit0       :      0.17s CPU      0.19s WALL (       1 calls)

     Called by electrons:
     c_bands      :    295.55s CPU    299.03s WALL (     241 calls)
     sum_band     :     81.13s CPU     88.15s WALL (     241 calls)
     v_of_rho     :    101.06s CPU    116.23s WALL (     250 calls)
     newd         :     41.75s CPU     46.77s WALL (     250 calls)
     mix_rho      :   1990.67s CPU   2203.93s WALL (     241 calls)

     Called by c_bands:
     init_us_2    :      5.28s CPU      5.49s WALL (     483 calls)
     init_us_2:cp :      5.28s CPU      5.49s WALL (     483 calls)
     regterg      :    277.42s CPU    280.66s WALL (     241 calls)

     Called by *egterg:
     rdiaghg      :     21.89s CPU     22.10s WALL (    1246 calls)
     h_psi        :    159.96s CPU    161.32s WALL (    1291 calls)
     s_psi        :     20.92s CPU     21.01s WALL (    1291 calls)
     g_psi        :      1.05s CPU      1.06s WALL (    1049 calls)

     Called by h_psi:
     h_psi:calbec :     22.90s CPU     23.01s WALL (    1291 calls)
     vloc_psi     :    113.63s CPU    114.74s WALL (    1291 calls)
     add_vuspsi   :     20.95s CPU     21.06s WALL (    1291 calls)

     General routines
     calbec       :     33.32s CPU     33.47s WALL (    1640 calls)
     fft          :     70.95s CPU     81.97s WALL (   16833 calls)
     ffts         :    895.27s CPU   1101.42s WALL (  486773 calls)
     fftw         :     94.94s CPU     95.85s WALL (  144423 calls)
     interpolate  :      1.82s CPU      2.10s WALL (     250 calls)
 
     Parallel routines
 
     PWSCF        :  43m 0.46s CPU  47m12.63s WALL

 
   This run was terminated on:   1:39:34   4Nov2023            

=------------------------------------------------------------------------------=
   JOB DONE.
=------------------------------------------------------------------------------=
