
     Program PWSCF v.7.2 starts on  4Nov2023 at  7:43:20 

     This program is part of the open-source Quantum ESPRESSO suite
     for quantum simulation of materials; please cite
         "P. Giannozzi et al., J. Phys.:Condens. Matter 21 395502 (2009);
         "P. Giannozzi et al., J. Phys.:Condens. Matter 29 465901 (2017);
         "P. Giannozzi et al., J. Chem. Phys. 152 154105 (2020);
          URL http://www.quantum-espresso.org", 
     in publications or presentations arising from this work. More details at
     http://www.quantum-espresso.org/quote

     Parallel version (MPI & OpenMP), running on      48 processor cores
     Number of MPI processes:                48
     Threads/MPI process:                     1

     MPI processes distributed on     1 nodes
     63957 MiB available memory on the printing compute node when the environment starts
 
     Waiting for input...
     Reading input from standard input
Warning: card &CELL ignored
Warning: card CELL_DYNAMICS = 'BFGS', ignored
Warning: card CELL_DOFREE = '2DXY' ignored
Warning: card / ignored

     Current dimensions of program PWSCF are:
     Max number of different atomic species (ntypx) = 10
     Max number of k-points (npk) =  40000
     Max angular momentum in pseudopotentials (lmaxx) =  4

     IMPORTANT: XC functional enforced from input :
     Exchange-correlation= RVV10
                           (   1   4  13   4  26   0   0)
     Any further DFT definition will be discarded
     Please, verify this is what you really want


     gamma-point specific algorithms are used
     signal trapping enabled: kill the code with -SIGUSR1 to stop cleanly the simulation 
 
     R & G space division:  proc/nbgrp/npool/nimage =      48
     Subspace diagonalization in iterative solution of the eigenvalue problem:
     one sub-group per band group will be used
     scalapack distributed-memory algorithm (size of sub-group:  2*  2 procs)

 
     Parallelization info
     --------------------
     sticks:   dense  smooth     PW     G-vecs:    dense   smooth      PW
     Min         243     194     47                49060    35090    4376
     Max         246     196     50                49086    35128    4410
     Sum       11735    9389   2349              2355467  1685513  210763
 
     Using Slab Decomposition
 


     bravais-lattice index     =            0
     lattice parameter (alat)  =      17.8707  a.u.
     unit-cell volume          =   17436.2743 (a.u.)^3
     number of atoms/cell      =           36
     number of atomic types    =            3
     number of electrons       =       307.00
     number of Kohn-Sham states=          185
     kinetic-energy cutoff     =      80.0000  Ry
     charge density cutoff     =     400.0000  Ry
     scf convergence threshold =      1.0E-06
     mixing beta               =       0.7000
     number of iterations used =            8  local-TF  mixing
     energy convergence thresh.=      1.0E-04
     force convergence thresh. =      1.0E-02
     Exchange-correlation= RVV10
                           (   1   4  13   4  26   0   0)
     nstep                     =          200


     celldm(1)=  17.870686  celldm(2)=   0.000000  celldm(3)=   0.000000
     celldm(4)=   0.000000  celldm(5)=   0.000000  celldm(6)=   0.000000

     crystal axes: (cart. coord. in units of alat)
               a(1) = (   1.000000   0.000000   0.000000 )  
               a(2) = (   0.000000   1.155671   0.000000 )  
               a(3) = (   0.000000   0.000000   2.643601 )  

     reciprocal axes: (cart. coord. in units 2 pi/alat)
               b(1) = (  1.000000  0.000000  0.000000 )  
               b(2) = (  0.000000  0.865298  0.000000 )  
               b(3) = (  0.000000  0.000000  0.378272 )  


     PseudoPot. # 1 for Mo read from file:
     ../pseudo/Mo_ONCV_PBE-1.0.oncvpsp.upf
     MD5 check sum: 1b5d28e075c9ccadda658a603575cd1f
     Pseudo is Norm-conserving, Zval = 14.0
     Generated using ONCVPSP code by D. R. Hamann
     Using radial grid of 1526 points,  6 beta functions with: 
                l(1) =   0
                l(2) =   0
                l(3) =   1
                l(4) =   1
                l(5) =   2
                l(6) =   2

     PseudoPot. # 2 for S  read from file:
     ../pseudo/s_pbe_v1.4.uspp.F.UPF
     MD5 check sum: 88d86576ff6df21479756cfb9bdac1df
     Pseudo is Ultrasoft + core correction, Zval =  6.0
     Generated by new atomic code, or converted to UPF format
     Using radial grid of  907 points,  6 beta functions with: 
                l(1) =   0
                l(2) =   0
                l(3) =   1
                l(4) =   1
                l(5) =   2
                l(6) =   2
     Q(r) pseudized with  8 coefficients,  rinner =    1.300   1.300   1.300
                                                       1.300   1.300

     PseudoPot. # 3 for H  read from file:
     ../pseudo/H_ONCV_PBE-1.0.oncvpsp.upf
     MD5 check sum: 1790becc920ee074925cf490c71280fe
     Pseudo is Norm-conserving, Zval =  1.0
     Generated using ONCVPSP code by D. R. Hamann
     Using radial grid of 1166 points,  2 beta functions with: 
                l(1) =   0
                l(2) =   0

     atomic species   valence    mass     pseudopotential
        Mo            14.00    95.94000     Mo( 1.00)
        S              6.00    32.06500     S ( 1.00)
        H              1.00     1.00794     H ( 1.00)

     No symmetry found



   Cartesian axes

     site n.     atom                  positions (alat units)
         1           Mo  tau(   1) = (   0.6952221   0.1890506   0.2985846  )
         2           S   tau(   2) = (   0.8646417   0.0856217   0.4689279  )
         3           S   tau(   3) = (   0.8663890   0.0857843   0.1351291  )
         4           Mo  tau(   4) = (   0.8560186   0.4753274   0.2873942  )
         5           S   tau(   5) = (   0.6873294   0.3936244   0.4596353  )
         6           S   tau(   6) = (   0.6929804   0.3713468   0.1185692  )
         7           Mo  tau(   7) = (   0.6862796   0.7633098   0.2825370  )
         8           S   tau(   8) = (   0.8545980   0.6708292   0.4486168  )
         9           S   tau(   9) = (   0.8545123   0.6666874   0.1146125  )
        10           Mo  tau(  10) = (   0.8629403   1.0471007   0.3006803  )
        11           S   tau(  11) = (   0.6868280   0.9456650   0.4634891  )
        12           S   tau(  12) = (   0.6998113   0.9568511   0.1205389  )
        13           Mo  tau(  13) = (   0.3618216   0.1847309   0.2935964  )
        14           S   tau(  14) = (   0.5260962   0.0863870   0.4600448  )
        15           S   tau(  15) = (   0.5348379   0.0894875   0.1297123  )
        16           Mo  tau(  16) = (   0.5265817   0.4772436   0.2784130  )
        17           S   tau(  17) = (   0.3624753   0.3882513   0.4525556  )
        18           S   tau(  18) = (   0.3635411   0.3752055   0.1119148  )
        19           Mo  tau(  19) = (   0.3652268   0.7630864   0.2781795  )
        20           S   tau(  20) = (   0.5269494   0.6690381   0.1096838  )
        21           Mo  tau(  21) = (   0.5300192   1.0470394   0.2900995  )
        22           S   tau(  22) = (   0.3670346   0.9457522   0.4574073  )
        23           S   tau(  23) = (   0.3604225   0.9585725   0.1159032  )
        24           Mo  tau(  24) = (   0.0313099   0.1847895   0.3013130  )
        25           S   tau(  25) = (   0.1956761   0.0838230   0.4650863  )
        26           S   tau(  26) = (   0.1967693   0.0903508   0.1278874  )
        27           Mo  tau(  27) = (   0.1967578   0.4753919   0.2813011  )
        28           S   tau(  28) = (   0.0287851   0.3864324   0.4586755  )
        29           S   tau(  29) = (   0.0244514   0.3729871   0.1239344  )
        30           Mo  tau(  30) = (   0.0286728   0.7631204   0.2856894  )
        31           S   tau(  31) = (   0.2011512   0.6675435   0.4465001  )
        32           S   tau(  32) = (   0.1969214   0.6672839   0.1104564  )
        33           Mo  tau(  33) = (   0.1950294   1.0511147   0.2932237  )
        34           S   tau(  34) = (   0.0312912   0.9612169   0.4667423  )
        35           S   tau(  35) = (   0.0292670   0.9563028   0.1216485  )
        36           H   tau(  36) = (   0.3333333   0.8988550   0.5792558  )

     number of k points=     1  Gaussian smearing, width (Ry)=  0.0100
                       cart. coord. in units 2pi/alat
        k(    1) = (   0.0000000   0.0000000   0.0000000), wk =   2.0000000

     Dense  grid:  1177734 G-vectors     FFT dimensions: ( 120, 135, 320)

     Smooth grid:   842757 G-vectors     FFT dimensions: ( 108, 120, 270)

     Estimated max dynamical RAM per process >     146.59 MB

     Estimated total dynamical RAM >       6.87 GB

     Initial potential from superposition of free atoms

     starting charge     306.9873, renormalised to     307.0000

     negative rho (up, down):  1.402E-04 0.000E+00


---------------------------------------------------------------------------------
Carrying out rVV10 run using the following parameters:
Nqs =      20    Nr_points =    1024   r_max =   100.000
b_value =  6.30000    beta =  0.00901
     q_mesh =  0.00010000  0.00030000  0.00058939  0.00100810
               0.00161396  0.00249058  0.00375900  0.00559430
               0.00824984  0.01209221  0.01765183  0.02569619
               0.03733578  0.05417739  0.07854596  0.11380545
               0.16482331  0.23864234  0.34545298  0.50000000

Gradients computed in Reciprocal space

---------------------------------------------------------------------------------


     Starting wfcs are  213 randomized atomic wfcs

     total cpu time spent up to now is        2.8 secs

     Self-consistent Calculation

     iteration #  1     ecut=    80.00 Ry     beta= 0.70
     Davidson diagonalization with overlap
     ethr =  1.00E-02,  avg # of iterations =  2.0

     Threshold (ethr) on eigenvalues was too large:
     Diagonalizing with lowered threshold

     Davidson diagonalization with overlap
     ethr =  3.87E-04,  avg # of iterations =  4.0

     negative rho (up, down):  1.643E-08 0.000E+00

     total cpu time spent up to now is       21.5 secs

     total energy              =   -2205.62949691 Ry
     estimated scf accuracy    <       1.46909455 Ry

     iteration #  2     ecut=    80.00 Ry     beta= 0.70
     Davidson diagonalization with overlap
     ethr =  4.79E-04,  avg # of iterations =  1.0

     total cpu time spent up to now is       23.9 secs

     total energy              =   -2205.45156541 Ry
     estimated scf accuracy    <       0.61538974 Ry

     iteration #  3     ecut=    80.00 Ry     beta= 0.70
     Davidson diagonalization with overlap
     ethr =  2.00E-04,  avg # of iterations =  3.0

     total cpu time spent up to now is       26.4 secs

     total energy              =   -2205.54602126 Ry
     estimated scf accuracy    <       0.07989799 Ry

     iteration #  4     ecut=    80.00 Ry     beta= 0.70
     Davidson diagonalization with overlap
     ethr =  2.60E-05,  avg # of iterations = 15.0

     total cpu time spent up to now is       29.6 secs

     total energy              =   -2205.55136685 Ry
     estimated scf accuracy    <       0.03515981 Ry

     iteration #  5     ecut=    80.00 Ry     beta= 0.70
     Davidson diagonalization with overlap
     ethr =  1.15E-05,  avg # of iterations =  2.0

     total cpu time spent up to now is       31.9 secs

     total energy              =   -2205.55005605 Ry
     estimated scf accuracy    <       0.01961941 Ry

     iteration #  6     ecut=    80.00 Ry     beta= 0.70
     Davidson diagonalization with overlap
     ethr =  6.39E-06,  avg # of iterations =  2.0

     total cpu time spent up to now is       34.1 secs

     total energy              =   -2205.54958403 Ry
     estimated scf accuracy    <       0.01426206 Ry

     iteration #  7     ecut=    80.00 Ry     beta= 0.70
     Davidson diagonalization with overlap
     ethr =  4.65E-06,  avg # of iterations =  1.0

     negative rho (up, down):  1.243E-06 0.000E+00

     total cpu time spent up to now is       38.1 secs

     total energy              =   -2205.54726638 Ry
     estimated scf accuracy    <       0.00941042 Ry

     iteration #  8     ecut=    80.00 Ry     beta= 0.70
     Davidson diagonalization with overlap
     c_bands:  1 eigenvalues not converged
     ethr =  3.07E-06,  avg # of iterations = 20.0

     negative rho (up, down):  5.437E-03 0.000E+00

     total cpu time spent up to now is       43.3 secs

     total energy              =   -2205.54709130 Ry
     estimated scf accuracy    <       0.00469251 Ry

     iteration #  9     ecut=    80.00 Ry     beta= 0.70
     Davidson diagonalization with overlap
     c_bands:  1 eigenvalues not converged
     ethr =  1.53E-06,  avg # of iterations = 20.0

     negative rho (up, down):  3.199E-02 0.000E+00

     total cpu time spent up to now is       48.8 secs

     total energy              =   -2205.54671226 Ry
     estimated scf accuracy    <       0.00299024 Ry

     iteration # 10     ecut=    80.00 Ry     beta= 0.70
     Davidson diagonalization with overlap
     ethr =  9.74E-07,  avg # of iterations =  2.0

     negative rho (up, down):  3.191E-02 0.000E+00

     total cpu time spent up to now is       53.3 secs

     total energy              =   -2205.54673810 Ry
     estimated scf accuracy    <       0.00113930 Ry

     iteration # 11     ecut=    80.00 Ry     beta= 0.70
     Davidson diagonalization with overlap
     ethr =  3.71E-07,  avg # of iterations =  2.0

     negative rho (up, down):  1.912E-02 0.000E+00

     total cpu time spent up to now is       59.1 secs

     total energy              =   -2205.54673131 Ry
     estimated scf accuracy    <       0.00055636 Ry

     iteration # 12     ecut=    80.00 Ry     beta= 0.70
     Davidson diagonalization with overlap
     ethr =  1.81E-07,  avg # of iterations =  2.0

     negative rho (up, down):  5.569E-03 0.000E+00

     total cpu time spent up to now is       65.4 secs

     total energy              =   -2205.54679390 Ry
     estimated scf accuracy    <       0.00015361 Ry

     iteration # 13     ecut=    80.00 Ry     beta= 0.70
     Davidson diagonalization with overlap
     ethr =  5.00E-08,  avg # of iterations =  6.0

     negative rho (up, down):  1.216E-03 0.000E+00

     total cpu time spent up to now is       72.5 secs

     total energy              =   -2205.54681570 Ry
     estimated scf accuracy    <       0.00001445 Ry

     iteration # 14     ecut=    80.00 Ry     beta= 0.70
     Davidson diagonalization with overlap
     ethr =  4.71E-09,  avg # of iterations =  5.0

     negative rho (up, down):  6.821E-04 0.000E+00

     total cpu time spent up to now is       82.5 secs

     total energy              =   -2205.54681855 Ry
     estimated scf accuracy    <       0.00000503 Ry

     iteration # 15     ecut=    80.00 Ry     beta= 0.70
     Davidson diagonalization with overlap
     ethr =  1.64E-09,  avg # of iterations =  2.0

     negative rho (up, down):  3.619E-04 0.000E+00

     total cpu time spent up to now is       92.5 secs

     total energy              =   -2205.54682341 Ry
     estimated scf accuracy    <       0.00000231 Ry

     iteration # 16     ecut=    80.00 Ry     beta= 0.70
     Davidson diagonalization with overlap
     ethr =  7.52E-10,  avg # of iterations =  2.0

     negative rho (up, down):  1.364E-04 0.000E+00

     total cpu time spent up to now is       94.5 secs

     End of self-consistent calculation

          k = 0.0000 0.0000 0.0000 (105382 PWs)   bands (ev):

   -62.8957 -62.8368 -62.8044 -62.7800 -62.7645 -62.7496 -62.7448 -62.7248
   -62.7063 -62.5753 -62.5405 -62.4975 -37.1747 -37.1487 -37.0993 -37.0964
   -37.0682 -37.0513 -37.0469 -37.0232 -37.0048 -36.9899 -36.9882 -36.9704
   -36.9491 -36.9425 -36.9338 -36.9298 -36.9219 -36.9180 -36.9053 -36.8959
   -36.8727 -36.8623 -36.8588 -36.8381 -36.8117 -36.7935 -36.7840 -36.7467
   -36.7429 -36.7337 -36.7171 -36.7018 -36.6687 -36.6530 -36.5503 -36.4941
   -16.6281 -15.7448 -15.0451 -15.0125 -14.8621 -14.7679 -14.6408 -14.4088
   -14.3691 -14.3422 -14.3034 -14.2617 -14.2469 -14.2116 -14.0835 -14.0484
   -14.0256 -14.0058 -13.9364 -13.8226 -13.7586 -13.7315 -13.6969  -9.4927
    -7.5911  -7.3552  -7.2567  -7.2497  -7.1929  -7.1287  -7.1056  -7.0265
    -6.7839  -6.7110  -6.6899  -6.6505  -6.5734  -6.4423  -6.3924  -6.3756
    -6.3004  -6.1708  -6.1656  -5.9046  -5.8755  -5.8276  -5.7478  -5.7031
    -5.6932  -5.6340  -5.5915  -5.5660  -5.5381  -5.4444  -5.4323  -5.3959
    -5.3810  -5.2946  -5.1433  -5.1012  -4.9866  -4.9373  -4.8876  -4.8786
    -4.8146  -4.7552  -4.6847  -4.5179  -4.4111  -4.2634  -4.2171  -4.1775
    -4.1299  -4.0006  -3.9313  -3.7652  -3.7549  -3.7230  -3.6515  -3.6282
    -3.5849  -3.4811  -3.4618  -3.4347  -3.4086  -3.3729  -3.3526  -3.2875
    -3.2676  -3.1360  -3.0551  -2.8541  -2.8303  -2.7835  -2.6723  -2.6527
    -2.6274  -2.5702  -2.5604  -2.5453  -2.4567  -2.1693  -1.9201  -1.9004
    -1.8269  -0.7436  -0.6655  -0.2502  -0.1265  -0.0424  -0.0252   0.0277
     0.0868   0.2322   0.2367   0.2442   0.3365   0.3793   0.4706   0.5477
     0.5760   0.6018   0.6505   0.6759   0.7435   0.7554   0.7702   0.8169
     0.8362   0.8772   0.9343   0.9714   1.0393   1.0584   1.1330   1.2432
     1.4461

     the Fermi energy is    -0.7750 ev

!    total energy              =   -2205.54682368 Ry
     estimated scf accuracy    <       0.00000078 Ry
     smearing contrib. (-TS)   =      -0.00830346 Ry
     internal energy E=F+TS    =   -2205.53852023 Ry

     The total energy is F=E-TS. E is the sum of the following terms:
     one-electron contribution =  -18045.61441828 Ry
     hartree contribution      =    9010.38784119 Ry
     xc contribution           =    -385.41047027 Ry
     ewald contribution        =    7215.09852714 Ry

     convergence has been achieved in  16 iterations

     negative rho (up, down):  1.364E-04 0.000E+00

     Forces acting on atoms (cartesian axes, Ry/au):

     atom    1 type  1   force =     0.01378048   -0.01977815    0.00619192
     atom    2 type  2   force =    -0.01514175    0.01719162    0.00147230
     atom    3 type  2   force =    -0.01259006    0.00919341   -0.00393985
     atom    4 type  1   force =     0.00696432    0.00107673   -0.00045052
     atom    5 type  2   force =    -0.00083423   -0.00602705   -0.00563667
     atom    6 type  2   force =     0.00203048    0.01056754   -0.00056853
     atom    7 type  1   force =     0.00932381   -0.01179229   -0.01177701
     atom    8 type  2   force =    -0.00031797   -0.00419329    0.01872897
     atom    9 type  2   force =     0.01297183    0.00485623    0.01089415
     atom   10 type  1   force =    -0.01073822    0.00826252   -0.02085772
     atom   11 type  2   force =     0.01555073   -0.00260672   -0.00404361
     atom   12 type  2   force =    -0.00546943    0.00449592    0.00709519
     atom   13 type  1   force =     0.00421480    0.00494100   -0.00432833
     atom   14 type  2   force =     0.00996200    0.00633755    0.01077940
     atom   15 type  2   force =    -0.01094040   -0.00018766   -0.00879561
     atom   16 type  1   force =     0.00524258    0.00531551    0.00594856
     atom   17 type  2   force =     0.00549013   -0.00078277    0.00247658
     atom   18 type  2   force =    -0.00594258   -0.00524486    0.01292484
     atom   19 type  1   force =    -0.00361360   -0.01210975   -0.01272128
     atom   20 type  2   force =     0.00112174   -0.00450086    0.00013858
     atom   21 type  1   force =     0.02039237    0.01052072   -0.01022149
     atom   22 type  2   force =    -0.00027961    0.01001167   -0.10688815
     atom   23 type  2   force =     0.00100321    0.00472938    0.01037074
     atom   24 type  1   force =    -0.01070549   -0.00332167   -0.01962414
     atom   25 type  2   force =     0.01563242    0.02282159    0.00749327
     atom   26 type  2   force =    -0.01046959   -0.00085251   -0.00407430
     atom   27 type  1   force =    -0.00183294   -0.00205481    0.00722627
     atom   28 type  2   force =     0.00020880   -0.00153859   -0.00654810
     atom   29 type  2   force =     0.00293920    0.00054373   -0.00243851
     atom   30 type  1   force =    -0.00381921    0.01489744   -0.00780238
     atom   31 type  2   force =     0.00250554   -0.00084356    0.01868639
     atom   32 type  2   force =    -0.00920819    0.00474786    0.00681647
     atom   33 type  1   force =     0.00275948   -0.00471642   -0.00157105
     atom   34 type  2   force =    -0.00046672   -0.04284214   -0.01333426
     atom   35 type  2   force =    -0.00574130    0.00580773    0.01478875
     atom   36 type  3   force =    -0.02398265   -0.02292503    0.10358913
     The non-local contrib.  to forces
     atom    1 type  1   force =    -0.00113160    0.03472780   -0.00987116
     atom    2 type  2   force =    -0.00956652    0.00265857   -0.26967748
     atom    3 type  2   force =    -0.01556053   -0.00366972    0.27198350
     atom    4 type  1   force =    -0.00224375    0.00619383    0.00469409
     atom    5 type  2   force =     0.00670537   -0.03278412   -0.25272847
     atom    6 type  2   force =    -0.00026914    0.01009596    0.25953984
     atom    7 type  1   force =    -0.03333201   -0.00393805   -0.01265179
     atom    8 type  2   force =     0.00550350   -0.00170696   -0.25084420
     atom    9 type  2   force =     0.00856609   -0.00689766    0.27737492
     atom   10 type  1   force =     0.00321319    0.00191770   -0.00259785
     atom   11 type  2   force =     0.02196065    0.00468987   -0.25071164
     atom   12 type  2   force =    -0.01653815   -0.00802426    0.26544576
     atom   13 type  1   force =     0.00021903    0.02715893   -0.00628673
     atom   14 type  2   force =     0.01314800   -0.00699725   -0.25648479
     atom   15 type  2   force =    -0.01260985   -0.01126228    0.26355487
     atom   16 type  1   force =    -0.00218597    0.04288667   -0.02351009
     atom   17 type  2   force =     0.00443472   -0.03122526   -0.24916750
     atom   18 type  2   force =    -0.00774510   -0.00529564    0.27229973
     atom   19 type  1   force =     0.03243833   -0.00797325   -0.00445752
     atom   20 type  2   force =    -0.00136472   -0.02207967    0.26420008
     atom   21 type  1   force =     0.00215599    0.01631377   -0.01170222
     atom   22 type  2   force =    -0.08053375   -0.06625393    0.11671333
     atom   23 type  2   force =     0.00240931   -0.01477727    0.27620901
     atom   24 type  1   force =     0.00203789    0.02065761   -0.01016957
     atom   25 type  2   force =     0.00983805    0.00169337   -0.25396638
     atom   26 type  2   force =    -0.00346186   -0.01577223    0.26530442
     atom   27 type  1   force =    -0.00194338    0.00741865    0.00658967
     atom   28 type  2   force =    -0.00283640   -0.02617986   -0.27378801
     atom   29 type  2   force =     0.00706080    0.00150170    0.26328175
     atom   30 type  1   force =    -0.00177910    0.01350104    0.01072365
     atom   31 type  2   force =    -0.00279987    0.00322992   -0.23826777
     atom   32 type  2   force =    -0.00199773   -0.00843854    0.27342835
     atom   33 type  1   force =    -0.00853858    0.00685830   -0.00079045
     atom   34 type  2   force =     0.00333367   -0.03611479   -0.26644507
     atom   35 type  2   force =     0.00040624   -0.00682571    0.27248169
     atom   36 type  3   force =     0.01987587    0.02909409   -0.06995855
     The ionic contribution  to forces
     atom    1 type  1   force =     0.43358173    0.29759846    5.68932123
     atom    2 type  2   force =    -0.67539342    0.46198988   39.27600286
     atom    3 type  2   force =    -0.16739546    0.03776828  -36.08463515
     atom    4 type  1   force =     0.08332874    0.51550257    0.66761379
     atom    5 type  2   force =    -0.94204109    1.47045383   38.74782926
     atom    6 type  2   force =     0.35357844   -0.50704921  -38.01627676
     atom    7 type  1   force =    -2.46525621   -2.87029092    2.42838362
     atom    8 type  2   force =    -0.99857777   -0.03115905   37.37083372
     atom    9 type  2   force =     0.33878664   -0.05622358  -38.01204253
     atom   10 type  1   force =    -1.13215397   -0.23336387    5.58798045
     atom   11 type  2   force =    -0.38616661   -1.57199378   39.07701983
     atom   12 type  2   force =     0.46730339    0.70245325  -37.88475091
     atom   13 type  1   force =     0.49325272    1.12668543    2.78097094
     atom   14 type  2   force =     0.14045931    0.14094707   38.47832369
     atom   15 type  2   force =     0.17588743   -0.02977706  -36.82317907
     atom   16 type  1   force =     0.04105223    3.82877741    0.42859186
     atom   17 type  2   force =     0.81818661    1.44985535   37.91908749
     atom   18 type  2   force =    -0.15886966   -0.65632306  -38.56834519
     atom   19 type  1   force =     2.78576623   -2.73780103    0.05967014
     atom   20 type  2   force =     0.25283157   -0.23095549  -38.51745003
     atom   21 type  1   force =     0.28974496    0.26409314    0.82403895
     atom   22 type  2   force =     0.96879491   -1.00024209   36.59302604
     atom   23 type  2   force =    -0.07941033    0.68435068  -38.39061206
     atom   24 type  1   force =    -0.61124959    1.22304739    5.81925804
     atom   25 type  2   force =     0.58234561    0.46682858   39.21823490
     atom   26 type  2   force =    -0.30342822    0.10220929  -37.35692555
     atom   27 type  1   force =    -0.02871910    0.27022968   -2.32055597
     atom   28 type  2   force =     0.02141782    0.97931620   38.20516340
     atom   29 type  2   force =    -0.27578388   -0.43524507  -37.25877057
     atom   30 type  1   force =    -0.53886909   -1.01683260   -0.22291816
     atom   31 type  2   force =     1.05721410   -0.35972336   37.16691769
     atom   32 type  2   force =    -0.50056304   -0.04376888  -38.68240155
     atom   33 type  1   force =     0.56010918   -0.57705059    1.61791190
     atom   34 type  2   force =    -0.02203151   -1.37651619   39.25713312
     atom   35 type  2   force =    -0.33388990    0.48905290  -37.85821726
     atom   36 type  3   force =    -0.24384277   -0.77684356    8.78376787
     The local contribution  to forces
     atom    1 type  1   force =    -0.41870781   -0.35197808   -5.67217988
     atom    2 type  2   force =     0.66962598   -0.44728412  -39.02523780
     atom    3 type  2   force =     0.16968488   -0.02499355   35.83026725
     atom    4 type  1   force =    -0.07413775   -0.52080156   -0.67166444
     atom    5 type  2   force =     0.93514800   -1.44559269  -38.52078396
     atom    6 type  2   force =    -0.35149110    0.50854412   37.77746848
     atom    7 type  1   force =     2.50782689    2.86233187   -2.42655604
     atom    8 type  2   force =     0.99310496    0.02819387  -37.12105209
     atom    9 type  2   force =    -0.33405860    0.06745101   37.76701976
     atom   10 type  1   force =     1.11838585    0.23991421   -5.60517534
     atom   11 type  2   force =     0.38060364    1.56535199  -38.84998775
     atom   12 type  2   force =    -0.45759381   -0.69070016   37.64777289
     atom   13 type  1   force =    -0.48926740   -1.14878372   -2.77794878
     atom   14 type  2   force =    -0.14307638   -0.12761541  -38.23101456
     atom   15 type  2   force =    -0.17492520    0.04023892   36.57208069
     atom   16 type  1   force =    -0.03378768   -3.86651163   -0.39811086
     atom   17 type  2   force =    -0.81703455   -1.42105340  -37.68735937
     atom   18 type  2   force =     0.16039592    0.65674247   38.33052142
     atom   19 type  1   force =    -2.82203961    2.73348348   -0.06691715
     atom   20 type  2   force =    -0.25072087    0.24765247   38.27505704
     atom   21 type  1   force =    -0.27157014   -0.26978174   -0.82153681
     atom   22 type  2   force =    -0.89381136    1.07145773  -36.81314937
     atom   23 type  2   force =     0.07829969   -0.66603285   38.14666120
     atom   24 type  1   force =     0.59854652   -1.24700640   -5.82762293
     atom   25 type  2   force =    -0.57635170   -0.44560258  -38.97676285
     atom   26 type  2   force =     0.29652255   -0.08815601   37.10910528
     atom   27 type  1   force =     0.02899426   -0.27962987    2.32227988
     atom   28 type  2   force =    -0.01856832   -0.95657722  -37.95851827
     atom   29 type  2   force =     0.27226881    0.43480846   37.01420573
     atom   30 type  1   force =     0.53713268    1.01817686    0.20542917
     atom   31 type  2   force =    -1.05191402    0.35604105  -36.92924167
     atom   32 type  2   force =     0.49353671    0.05638537   38.43739281
     atom   33 type  1   force =    -0.54890818    0.56550827   -1.61763568
     atom   34 type  2   force =     0.01834946    1.36872935  -39.02440169
     atom   35 type  2   force =     0.32800977   -0.47716058   37.62226675
     atom   36 type  3   force =     0.19998052    0.72481538   -8.61015766
     The core correction contribution to forces
     atom    1 type  1   force =     0.00000000    0.00000000    0.00000000
     atom    2 type  2   force =     0.00020942   -0.00012318    0.02067658
     atom    3 type  2   force =     0.00069445    0.00012033   -0.02097722
     atom    4 type  1   force =     0.00000000    0.00000000    0.00000000
     atom    5 type  2   force =    -0.00065951    0.00186932    0.02028334
     atom    6 type  2   force =     0.00017028   -0.00101253   -0.02068707
     atom    7 type  1   force =     0.00000000    0.00000000    0.00000000
     atom    8 type  2   force =    -0.00024467    0.00036460    0.02016585
     atom    9 type  2   force =    -0.00023484    0.00043216   -0.02099414
     atom   10 type  1   force =     0.00000000    0.00000000    0.00000000
     atom   11 type  2   force =    -0.00084567   -0.00055089    0.02002032
     atom   12 type  2   force =     0.00134927    0.00085269   -0.02092797
     atom   13 type  1   force =     0.00000000    0.00000000    0.00000000
     atom   14 type  2   force =    -0.00056418    0.00007098    0.02025731
     atom   15 type  2   force =     0.00069963    0.00067161   -0.02069493
     atom   16 type  1   force =     0.00000000    0.00000000    0.00000000
     atom   17 type  2   force =    -0.00008140    0.00167036    0.02014572
     atom   18 type  2   force =     0.00030718   -0.00031960   -0.02094088
     atom   19 type  1   force =     0.00000000    0.00000000    0.00000000
     atom   20 type  2   force =     0.00020514    0.00079442   -0.02112645
     atom   21 type  1   force =     0.00000000    0.00000000    0.00000000
     atom   22 type  2   force =     0.00522380    0.00497503   -0.00319346
     atom   23 type  2   force =    -0.00032810    0.00109474   -0.02132297
     atom   24 type  1   force =     0.00000000    0.00000000    0.00000000
     atom   25 type  2   force =    -0.00021776   -0.00006191    0.02026326
     atom   26 type  2   force =    -0.00010172    0.00089495   -0.02097634
     atom   27 type  1   force =     0.00000000    0.00000000    0.00000000
     atom   28 type  2   force =     0.00019605    0.00187960    0.02088521
     atom   29 type  2   force =    -0.00059154   -0.00051380   -0.02058488
     atom   30 type  1   force =     0.00000000    0.00000000    0.00000000
     atom   31 type  2   force =     0.00008559   -0.00040107    0.01950000
     atom   32 type  2   force =    -0.00010092    0.00056556   -0.02098621
     atom   33 type  1   force =     0.00000000    0.00000000    0.00000000
     atom   34 type  2   force =    -0.00008101    0.00108439    0.02066208
     atom   35 type  2   force =    -0.00021814    0.00073882   -0.02118599
     atom   36 type  3   force =     0.00000000    0.00000000    0.00000000
     The Hubbard contrib.    to forces
     atom    1 type  1   force =     0.00000000    0.00000000    0.00000000
     atom    2 type  2   force =     0.00000000    0.00000000    0.00000000
     atom    3 type  2   force =     0.00000000    0.00000000    0.00000000
     atom    4 type  1   force =     0.00000000    0.00000000    0.00000000
     atom    5 type  2   force =     0.00000000    0.00000000    0.00000000
     atom    6 type  2   force =     0.00000000    0.00000000    0.00000000
     atom    7 type  1   force =     0.00000000    0.00000000    0.00000000
     atom    8 type  2   force =     0.00000000    0.00000000    0.00000000
     atom    9 type  2   force =     0.00000000    0.00000000    0.00000000
     atom   10 type  1   force =     0.00000000    0.00000000    0.00000000
     atom   11 type  2   force =     0.00000000    0.00000000    0.00000000
     atom   12 type  2   force =     0.00000000    0.00000000    0.00000000
     atom   13 type  1   force =     0.00000000    0.00000000    0.00000000
     atom   14 type  2   force =     0.00000000    0.00000000    0.00000000
     atom   15 type  2   force =     0.00000000    0.00000000    0.00000000
     atom   16 type  1   force =     0.00000000    0.00000000    0.00000000
     atom   17 type  2   force =     0.00000000    0.00000000    0.00000000
     atom   18 type  2   force =     0.00000000    0.00000000    0.00000000
     atom   19 type  1   force =     0.00000000    0.00000000    0.00000000
     atom   20 type  2   force =     0.00000000    0.00000000    0.00000000
     atom   21 type  1   force =     0.00000000    0.00000000    0.00000000
     atom   22 type  2   force =     0.00000000    0.00000000    0.00000000
     atom   23 type  2   force =     0.00000000    0.00000000    0.00000000
     atom   24 type  1   force =     0.00000000    0.00000000    0.00000000
     atom   25 type  2   force =     0.00000000    0.00000000    0.00000000
     atom   26 type  2   force =     0.00000000    0.00000000    0.00000000
     atom   27 type  1   force =     0.00000000    0.00000000    0.00000000
     atom   28 type  2   force =     0.00000000    0.00000000    0.00000000
     atom   29 type  2   force =     0.00000000    0.00000000    0.00000000
     atom   30 type  1   force =     0.00000000    0.00000000    0.00000000
     atom   31 type  2   force =     0.00000000    0.00000000    0.00000000
     atom   32 type  2   force =     0.00000000    0.00000000    0.00000000
     atom   33 type  1   force =     0.00000000    0.00000000    0.00000000
     atom   34 type  2   force =     0.00000000    0.00000000    0.00000000
     atom   35 type  2   force =     0.00000000    0.00000000    0.00000000
     atom   36 type  3   force =     0.00000000    0.00000000    0.00000000
     The SCF correction term to forces
     atom    1 type  1   force =     0.00003864   -0.00013022   -0.00104464
     atom    2 type  2   force =    -0.00001673   -0.00005343   -0.00025823
     atom    3 type  2   force =    -0.00001293   -0.00003583   -0.00054460
     atom    4 type  1   force =     0.00001756    0.00017799   -0.00106033
     atom    5 type  2   force =     0.00001347    0.00002271   -0.00020322
     atom    6 type  2   force =     0.00004247   -0.00001469   -0.00057939
     atom    7 type  1   force =     0.00008561    0.00010090   -0.00091917
     atom    8 type  2   force =    -0.00010351    0.00011035   -0.00034068
     atom    9 type  2   force =    -0.00008699    0.00009041   -0.00043024
     atom   10 type  1   force =    -0.00018282   -0.00020942   -0.00103134
     atom   11 type  2   force =    -0.00000081   -0.00010781   -0.00035075
     atom   12 type  2   force =     0.00001034   -0.00008950   -0.00041096
     atom   13 type  1   force =     0.00001093   -0.00012353   -0.00103013
     atom   14 type  2   force =    -0.00000428   -0.00007174   -0.00026862
     atom   15 type  2   force =     0.00000807   -0.00006274   -0.00052355
     atom   16 type  1   force =     0.00016448    0.00015916   -0.00098872
     atom   17 type  2   force =    -0.00001478   -0.00003371   -0.00019613
     atom   18 type  2   force =    -0.00003044   -0.00005293   -0.00057661
     atom   19 type  1   force =     0.00022193    0.00017715   -0.00098312
     atom   20 type  2   force =     0.00017110    0.00008352   -0.00050843
     atom   21 type  1   force =     0.00006203   -0.00010835   -0.00098777
     atom   22 type  2   force =     0.00004727    0.00007104   -0.00025106
     atom   23 type  2   force =     0.00003311    0.00009018   -0.00053082
     atom   24 type  1   force =    -0.00003984   -0.00002416   -0.00105606
     atom   25 type  2   force =     0.00001869   -0.00003977   -0.00024203
     atom   26 type  2   force =     0.00000014   -0.00003242   -0.00054848
     atom   27 type  1   force =    -0.00016425   -0.00007716   -0.00105367
     atom   28 type  2   force =     0.00000012    0.00001879   -0.00025681
     atom   29 type  2   force =    -0.00001452   -0.00001145   -0.00053691
     atom   30 type  1   force =    -0.00030323    0.00004824   -0.00100341
     atom   31 type  2   force =    -0.00007979    0.00000601   -0.00018823
     atom   32 type  2   force =    -0.00008273    0.00000045   -0.00058330
     atom   33 type  1   force =     0.00009753   -0.00003629   -0.00102319
     atom   34 type  2   force =    -0.00003685   -0.00002880   -0.00024906
     atom   35 type  2   force =    -0.00004879   -0.00000161   -0.00052280
     atom   36 type  3   force =     0.00000421    0.00000518   -0.00002891

     Total force =     0.183626     Total SCF correction =     0.004131

     BFGS Geometry Optimization
     Energy error            =      0.0E+00 Ry
     Gradient error          =      1.1E-01 Ry/Bohr

     number of scf cycles    =   1
     number of bfgs steps    =   0

     energy             new  =   -2205.5468236837 Ry

     new trust radius        =       0.1087723878 bohr
     new conv_thr            =       0.0000010000 Ry


ATOMIC_POSITIONS (angstrom)
Mo            6.5818407245        1.7773400814        2.8269196545
S             8.1686966682        0.8188014390        4.4353174623
S             8.1865707107        0.8161066883        1.2757985454
Mo            8.0988479251        4.4956267229        2.7175799877
S             6.4994678016        3.7192221081        4.3436778494
S             6.5544242829        3.5173296548        1.1209793769
Mo            6.4949156444        7.2121970717        2.6656523601
S             8.0815594644        6.3416519995        4.2523725081
S             8.0877820452        6.3072721214        1.0896279337
Mo            8.1549366272        9.9065527497        2.8324243302
S             6.5033966855        8.9415473982        4.3809657457
S             6.6150529025        9.0510903508        1.1436619167
Mo            3.4238900387        1.7495705153        2.7741807065
S             4.9804371523        0.8202948940        4.3562373046
S             5.0520443454        0.8461628042        1.2220040253
Mo            4.9825309355        4.5159908488        2.6360323939
S             3.4307469139        3.6711854604        4.2810201310
S             3.4347759032        3.5454532370        1.0651912139
Mo            3.4519495068        7.2099163365        2.6239450514
S             4.9838277920        6.3245505330        1.0373270636
Mo            5.0230550979        9.9071673744        2.7379919805
S             3.4708101535        8.9490492163        4.2690285372
S             3.4089600418        9.0674926621        1.1015562570
Mo            0.2904253877        1.7457517802        2.8390600607
S             1.8587345357        0.8047706706        4.4021747062
S             1.8552597674        0.8539747866        1.2072448260
Mo            1.8597213599        4.4945794047        2.6640213600
S             0.2723243397        3.6535846407        4.3341189922
S             0.2327865668        3.5275369570        1.1707274792
Mo            0.2691311113        7.2245294825        2.6975675876
S             1.9035641227        6.3123524447        4.2323325317
S             1.8573654512        6.3128562740        1.0481664054
Mo            1.8458069183        9.9376433303        2.7721148885
S             0.2956659233        9.0673267414        4.4068132801
S             0.2737332358        9.0465990312        1.1582266502
H             3.1395622622        8.4881241543        5.5327004337



     Writing config-only to output data dir ./MoS2-V-O.save/
     NEW-OLD atomic charge density approx. for the potential

     negative rho (up, down):  1.499E-04 0.000E+00

     total cpu time spent up to now is       98.0 secs

     Self-consistent Calculation

     iteration #  1     ecut=    80.00 Ry     beta= 0.70
     Davidson diagonalization with overlap
     ethr =  1.00E-06,  avg # of iterations = 10.0

     negative rho (up, down):  2.460E-04 0.000E+00

     total cpu time spent up to now is      111.6 secs

     total energy              =   -2205.56539259 Ry
     estimated scf accuracy    <       0.00443076 Ry

     iteration #  2     ecut=    80.00 Ry     beta= 0.70
     Davidson diagonalization with overlap
     ethr =  1.44E-06,  avg # of iterations =  3.0

     negative rho (up, down):  3.663E-04 0.000E+00

     total cpu time spent up to now is      126.6 secs

     total energy              =   -2205.56551353 Ry
     estimated scf accuracy    <       0.00076074 Ry

     iteration #  3     ecut=    80.00 Ry     beta= 0.70
     Davidson diagonalization with overlap
     ethr =  2.48E-07,  avg # of iterations =  5.0

     negative rho (up, down):  4.511E-04 0.000E+00

     total cpu time spent up to now is      143.8 secs

     total energy              =   -2205.56558445 Ry
     estimated scf accuracy    <       0.00017122 Ry

     iteration #  4     ecut=    80.00 Ry     beta= 0.70
     Davidson diagonalization with overlap
     ethr =  5.58E-08,  avg # of iterations =  5.0

     negative rho (up, down):  4.800E-04 0.000E+00

     total cpu time spent up to now is      160.1 secs

     total energy              =   -2205.56560670 Ry
     estimated scf accuracy    <       0.00001317 Ry

     iteration #  5     ecut=    80.00 Ry     beta= 0.70
     Davidson diagonalization with overlap
     ethr =  4.29E-09,  avg # of iterations =  6.0

     negative rho (up, down):  4.666E-04 0.000E+00

     total cpu time spent up to now is      175.1 secs

     total energy              =   -2205.56561099 Ry
     estimated scf accuracy    <       0.00000717 Ry

     iteration #  6     ecut=    80.00 Ry     beta= 0.70
     Davidson diagonalization with overlap
     ethr =  2.33E-09,  avg # of iterations =  2.0

     negative rho (up, down):  4.208E-04 0.000E+00

     total cpu time spent up to now is      187.7 secs

     total energy              =   -2205.56561170 Ry
     estimated scf accuracy    <       0.00000231 Ry

     iteration #  7     ecut=    80.00 Ry     beta= 0.70
     Davidson diagonalization with overlap
     ethr =  7.51E-10,  avg # of iterations =  5.0

     negative rho (up, down):  1.364E-04 0.000E+00

     total cpu time spent up to now is      189.9 secs

     End of self-consistent calculation

          k = 0.0000 0.0000 0.0000 (105382 PWs)   bands (ev):

   -62.8909 -62.8317 -62.8030 -62.7867 -62.7735 -62.7605 -62.7557 -62.7326
   -62.7093 -62.5919 -62.5603 -62.4876 -37.1740 -37.1527 -37.0994 -37.0988
   -37.0680 -37.0563 -37.0436 -37.0307 -37.0064 -36.9956 -36.9928 -36.9772
   -36.9585 -36.9506 -36.9439 -36.9371 -36.9311 -36.9258 -36.9132 -36.9049
   -36.8797 -36.8670 -36.8616 -36.8445 -36.8154 -36.8028 -36.7907 -36.7589
   -36.7519 -36.7461 -36.7369 -36.7090 -36.6817 -36.6516 -36.5648 -36.4932
   -16.3925 -15.7052 -15.0451 -15.0225 -14.8551 -14.7696 -14.6409 -14.4079
   -14.3652 -14.3463 -14.3146 -14.2686 -14.2624 -14.2188 -14.0895 -14.0553
   -14.0328 -14.0173 -13.9511 -13.8213 -13.7572 -13.7436 -13.7191  -9.1818
    -7.6059  -7.3660  -7.2712  -7.2571  -7.1954  -7.1425  -7.1181  -7.0416
    -6.7866  -6.7145  -6.6955  -6.6595  -6.5771  -6.4515  -6.4006  -6.3794
    -6.2951  -6.1806  -6.1794  -5.9089  -5.8826  -5.8399  -5.7556  -5.7238
    -5.6963  -5.6425  -5.5963  -5.5803  -5.5587  -5.4654  -5.4414  -5.4021
    -5.3750  -5.2847  -5.1502  -5.0940  -4.9790  -4.9437  -4.8999  -4.8887
    -4.8344  -4.7705  -4.6813  -4.5222  -4.4169  -4.2824  -4.2361  -4.1795
    -4.1415  -4.0166  -3.9438  -3.7745  -3.7608  -3.7312  -3.6616  -3.6225
    -3.5948  -3.4874  -3.4750  -3.4546  -3.4209  -3.3837  -3.3633  -3.3005
    -3.2848  -3.1489  -3.0641  -2.8611  -2.8199  -2.7876  -2.6864  -2.6614
    -2.6346  -2.5874  -2.5725  -2.5474  -2.4599  -2.1739  -1.9185  -1.9133
    -1.8582  -0.7639  -0.6564  -0.2844  -0.1240  -0.0493  -0.0174   0.0337
     0.0999   0.2286   0.2371   0.2742   0.3216   0.3835   0.4691   0.5386
     0.5877   0.6045   0.6452   0.6859   0.7179   0.7422   0.7782   0.8112
     0.8440   0.8810   0.9297   0.9745   1.0466   1.0524   1.1241   1.2271
     1.4475

     the Fermi energy is    -0.7857 ev

!    total energy              =   -2205.56561246 Ry
     estimated scf accuracy    <       0.00000064 Ry
     smearing contrib. (-TS)   =      -0.00778695 Ry
     internal energy E=F+TS    =   -2205.55782550 Ry

     The total energy is F=E-TS. E is the sum of the following terms:
     one-electron contribution =  -18052.78547821 Ry
     hartree contribution      =    9013.86178287 Ry
     xc contribution           =    -385.38372201 Ry
     ewald contribution        =    7218.74959185 Ry

     convergence has been achieved in   7 iterations

     negative rho (up, down):  1.364E-04 0.000E+00

     Forces acting on atoms (cartesian axes, Ry/au):

     atom    1 type  1   force =     0.00380624   -0.00879366   -0.00035775
     atom    2 type  2   force =    -0.00962440    0.01134304    0.00008899
     atom    3 type  2   force =    -0.01115845    0.00735757   -0.00872639
     atom    4 type  1   force =     0.00520623    0.00264193    0.00130827
     atom    5 type  2   force =     0.00164535   -0.00612206   -0.00435790
     atom    6 type  2   force =     0.00169181    0.00696973    0.00135363
     atom    7 type  1   force =     0.00943220   -0.01286343   -0.00271044
     atom    8 type  2   force =     0.00027065   -0.00364706    0.01263834
     atom    9 type  2   force =     0.01170154    0.00441557    0.00616122
     atom   10 type  1   force =    -0.00357636    0.00774461   -0.00857533
     atom   11 type  2   force =     0.01286942   -0.00289737   -0.00571707
     atom   12 type  2   force =    -0.00318462    0.00237283    0.00026182
     atom   13 type  1   force =     0.00366746    0.00306861   -0.00199051
     atom   14 type  2   force =     0.00781907    0.00430834    0.00784760
     atom   15 type  2   force =    -0.00720554    0.00244473   -0.00766516
     atom   16 type  1   force =     0.00532792    0.00498940    0.00457100
     atom   17 type  2   force =     0.00516693   -0.00045763    0.00254338
     atom   18 type  2   force =    -0.00449213   -0.00330032    0.01080101
     atom   19 type  1   force =    -0.00509174   -0.01059616   -0.01211102
     atom   20 type  2   force =     0.00189445   -0.00498219   -0.00321869
     atom   21 type  1   force =     0.01418170    0.01034378   -0.00656252
     atom   22 type  2   force =    -0.02322497   -0.03114093    0.00700437
     atom   23 type  2   force =     0.00209734    0.00393549    0.00437999
     atom   24 type  1   force =    -0.00657420   -0.00231053   -0.00929283
     atom   25 type  2   force =     0.01061887    0.01714237    0.00187468
     atom   26 type  2   force =    -0.00717086   -0.00080193   -0.00383493
     atom   27 type  1   force =    -0.00082726   -0.00039331    0.00630852
     atom   28 type  2   force =    -0.00028244   -0.00294100   -0.00586728
     atom   29 type  2   force =     0.00269639    0.00133652   -0.00350208
     atom   30 type  1   force =    -0.00204238    0.00318898    0.00222275
     atom   31 type  2   force =     0.00226895    0.00169297    0.01336054
     atom   32 type  2   force =    -0.00935817    0.00270191    0.00406660
     atom   33 type  1   force =    -0.00327334    0.00282951   -0.00153662
     atom   34 type  2   force =    -0.00193404   -0.03179068   -0.01421289
     atom   35 type  2   force =    -0.00527000    0.00737257    0.00713477
     atom   36 type  3   force =     0.00192839    0.01483782    0.00631194
     The non-local contrib.  to forces
     atom    1 type  1   force =     0.00068816    0.03115887   -0.00934612
     atom    2 type  2   force =    -0.00614659   -0.00147424   -0.26898660
     atom    3 type  2   force =    -0.01289794   -0.00554083    0.26752767
     atom    4 type  1   force =    -0.00128610    0.00724588    0.00452415
     atom    5 type  2   force =     0.00828209   -0.03342145   -0.25321289
     atom    6 type  2   force =     0.00022059    0.00686915    0.26177720
     atom    7 type  1   force =    -0.03398457   -0.00145149   -0.01511419
     atom    8 type  2   force =     0.00710137   -0.00134574   -0.25495501
     atom    9 type  2   force =     0.00697642   -0.00714924    0.27448307
     atom   10 type  1   force =     0.00138056    0.00214251   -0.00417085
     atom   11 type  2   force =     0.01878936    0.00365532   -0.25212826
     atom   12 type  2   force =    -0.01407108   -0.01078514    0.26090162
     atom   13 type  1   force =     0.00089128    0.02774697   -0.00728900
     atom   14 type  2   force =     0.01157996   -0.00904622   -0.25854691
     atom   15 type  2   force =    -0.00995071   -0.00935508    0.26294195
     atom   16 type  1   force =    -0.00466882    0.04318633   -0.02559665
     atom   17 type  2   force =     0.00428725   -0.03017674   -0.24935579
     atom   18 type  2   force =    -0.00658154   -0.00344678    0.27158463
     atom   19 type  1   force =     0.03146709   -0.00677910   -0.00225385
     atom   20 type  2   force =    -0.00035158   -0.02143475    0.26234170
     atom   21 type  1   force =     0.00168885    0.01751657   -0.01070867
     atom   22 type  2   force =    -0.09637567   -0.08887747    0.21818104
     atom   23 type  2   force =     0.00366506   -0.01655736    0.27466534
     atom   24 type  1   force =     0.00044129    0.02108453   -0.00937387
     atom   25 type  2   force =     0.00596868   -0.00339301   -0.25839699
     atom   26 type  2   force =    -0.00063568   -0.01488704    0.26565740
     atom   27 type  1   force =    -0.00229540    0.00664669    0.00506568
     atom   28 type  2   force =    -0.00307304   -0.02598371   -0.27423703
     atom   29 type  2   force =     0.00666721    0.00047714    0.26357663
     atom   30 type  1   force =    -0.00134126    0.01613709    0.00994229
     atom   31 type  2   force =    -0.00485939    0.00467759   -0.24104768
     atom   32 type  2   force =    -0.00179650   -0.00851259    0.27225842
     atom   33 type  1   force =    -0.00799935    0.00499145   -0.00027356
     atom   34 type  2   force =     0.00156366   -0.02695932   -0.26784472
     atom   35 type  2   force =     0.00023907   -0.00639685    0.26752184
     atom   36 type  3   force =     0.01421174    0.02127452   -0.05295223
     The ionic contribution  to forces
     atom    1 type  1   force =     0.16563341    0.63048451    5.80834365
     atom    2 type  2   force =    -0.48551752    0.34753816   39.39463514
     atom    3 type  2   force =    -0.13595426    0.05933267  -36.21514003
     atom    4 type  1   force =     0.03683923    0.51158160    0.74055059
     atom    5 type  2   force =    -0.93771494    1.47278568   38.70760976
     atom    6 type  2   force =     0.30287997   -0.54374720  -37.95490897
     atom    7 type  1   force =    -2.59494462   -2.78616940    2.29567455
     atom    8 type  2   force =    -0.99866243   -0.02315516   37.50128349
     atom    9 type  2   force =     0.33822068   -0.10920512  -37.99962375
     atom   10 type  1   force =    -0.85738363   -0.24190686    5.39229639
     atom   11 type  2   force =    -0.45653884   -1.62550261   39.10959637
     atom   12 type  2   force =     0.43547852    0.59981260  -37.91679637
     atom   13 type  1   force =     0.44768304    1.03322440    2.76536118
     atom   14 type  2   force =     0.02181334    0.10090744   38.58460409
     atom   15 type  2   force =     0.14536246    0.07399667  -36.88217199
     atom   16 type  1   force =     0.01173282    3.73448207    0.63088633
     atom   17 type  2   force =     0.81177512    1.44349101   37.94710751
     atom   18 type  2   force =    -0.12824601   -0.60885908  -38.48520923
     atom   19 type  1   force =     2.84576622   -2.79493123   -0.16953523
     atom   20 type  2   force =     0.23812536   -0.24676919  -38.54316302
     atom   21 type  1   force =     0.15848671    0.20763230    0.76184528
     atom   22 type  2   force =     0.91902852   -1.13952794   36.41652146
     atom   23 type  2   force =    -0.06672975    0.67676412  -38.33382049
     atom   24 type  1   force =    -0.36000078    1.10829184    5.54337557
     atom   25 type  2   force =     0.49842918    0.39213693   39.22657313
     atom   26 type  2   force =    -0.24220836    0.09135204  -37.32145119
     atom   27 type  1   force =     0.00830625    0.32676303   -2.04390893
     atom   28 type  2   force =     0.03892520    0.91869793   38.20311481
     atom   29 type  2   force =    -0.24376018   -0.38533453  -37.28821738
     atom   30 type  1   force =    -0.45392778   -1.23507886   -0.25923046
     atom   31 type  2   force =     1.06764073   -0.31657295   37.27567761
     atom   32 type  2   force =    -0.49783436   -0.10663836  -38.65228519
     atom   33 type  1   force =     0.42555723   -0.25701409    1.84740343
     atom   34 type  2   force =    -0.03399767   -1.19793789   39.23546862
     atom   35 type  2   force =    -0.28117140    0.52112530  -37.82933511
     atom   36 type  3   force =    -0.14309148   -0.63204982    8.50686839
     The local contribution  to forces
     atom    1 type  1   force =    -0.16248702   -0.67057135   -5.79929583
     atom    2 type  2   force =     0.48182525   -0.33473773  -39.14603132
     atom    3 type  2   force =     0.13713210   -0.04673425   35.95964652
     atom    4 type  1   force =    -0.03044278   -0.51624984   -0.74376407
     atom    5 type  2   force =     0.93166662   -1.44726845  -38.47884628
     atom    6 type  2   force =    -0.30165721    0.54482297   37.71509611
     atom    7 type  1   force =     2.63810974    2.77467159   -2.28331612
     atom    8 type  2   force =     0.99225687    0.02049369  -37.25362363
     atom    9 type  2   force =    -0.33324708    0.12039938   37.75197112
     atom   10 type  1   force =     0.85257902    0.24749375   -5.39677499
     atom   11 type  2   force =     0.45130981    1.61964382  -38.88287519
     atom   12 type  2   force =    -0.42579984   -0.58737412   37.67668510
     atom   13 type  1   force =    -0.44491433   -1.05790717   -2.76009916
     atom   14 type  2   force =    -0.02498175   -0.08781037  -38.33827338
     atom   15 type  2   force =    -0.14321022   -0.06295561   36.63204918
     atom   16 type  1   force =    -0.00196023   -3.77249620   -0.60065787
     atom   17 type  2   force =    -0.81070942   -1.41521347  -37.71518410
     atom   18 type  2   force =     0.13016366    0.60945458   38.24526857
     atom   19 type  1   force =    -2.88259093    2.79123682    0.15977207
     atom   20 type  2   force =    -0.23626109    0.26236450   38.29854536
     atom   21 type  1   force =    -0.14644569   -0.21489277   -0.75759659
     atom   22 type  2   force =    -0.85192396    1.19133699  -36.62016130
     atom   23 type  2   force =     0.06544416   -0.65751466   38.08470784
     atom   24 type  1   force =     0.35297851   -1.13185245   -5.54335381
     atom   25 type  2   force =    -0.49364330   -0.37191984  -38.98635586
     atom   26 type  2   force =     0.23582979   -0.07822555   37.07273705
     atom   27 type  1   force =    -0.00651750   -0.33350999    2.04512798
     atom   28 type  2   force =    -0.03631159   -0.89739732  -37.95540504
     atom   29 type  2   force =     0.24034872    0.38659665   37.04157249
     atom   30 type  1   force =     0.45369929    1.22244765    0.25155724
     atom   31 type  2   force =    -1.06052502    0.31414464  -37.04057000
     atom   32 type  2   force =     0.49053651    0.11748390   38.40494375
     atom   33 type  1   force =    -0.42062682    0.25438309   -1.84855000
     atom   34 type  2   force =     0.03073665    1.19225225  -39.00230118
     atom   35 type  2   force =     0.27591801   -0.50810179   37.58989595
     atom   36 type  3   force =     0.13077886    0.62558619   -8.44750100
     The core correction contribution to forces
     atom    1 type  1   force =     0.00000000    0.00000000    0.00000000
     atom    2 type  2   force =     0.00016566   -0.00003043    0.02070035
     atom    3 type  2   force =     0.00056546    0.00020395   -0.02089065
     atom    4 type  1   force =     0.00000000    0.00000000    0.00000000
     atom    5 type  2   force =    -0.00072329    0.00187696    0.02027834
     atom    6 type  2   force =     0.00013023   -0.00090092   -0.02072414
     atom    7 type  1   force =     0.00000000    0.00000000    0.00000000
     atom    8 type  2   force =    -0.00029643    0.00035679    0.02030746
     atom    9 type  2   force =    -0.00012011    0.00038412   -0.02095114
     atom   10 type  1   force =     0.00000000    0.00000000    0.00000000
     atom   11 type  2   force =    -0.00068477   -0.00054538    0.02007674
     atom   12 type  2   force =     0.00121938    0.00090797   -0.02080404
     atom   13 type  1   force =     0.00000000    0.00000000    0.00000000
     atom   14 type  2   force =    -0.00056271    0.00015717    0.02034237
     atom   15 type  2   force =     0.00058243    0.00064915   -0.02067635
     atom   16 type  1   force =     0.00000000    0.00000000    0.00000000
     atom   17 type  2   force =    -0.00007514    0.00161135    0.02015740
     atom   18 type  2   force =     0.00026624   -0.00035463   -0.02093379
     atom   19 type  1   force =     0.00000000    0.00000000    0.00000000
     atom   20 type  2   force =     0.00015165    0.00075882   -0.02108022
     atom   21 type  1   force =     0.00000000    0.00000000    0.00000000
     atom   22 type  2   force =     0.00592537    0.00591173   -0.00768491
     atom   23 type  2   force =    -0.00036203    0.00117829   -0.02122300
     atom   24 type  1   force =     0.00000000    0.00000000    0.00000000
     atom   25 type  2   force =    -0.00008862    0.00015336    0.02038702
     atom   26 type  2   force =    -0.00019069    0.00082685   -0.02096940
     atom   27 type  1   force =     0.00000000    0.00000000    0.00000000
     atom   28 type  2   force =     0.00020596    0.00179860    0.02093214
     atom   29 type  2   force =    -0.00054667   -0.00042310   -0.02062037
     atom   30 type  1   force =     0.00000000    0.00000000    0.00000000
     atom   31 type  2   force =     0.00015627   -0.00040980    0.01955753
     atom   32 type  2   force =    -0.00014354    0.00051155   -0.02095624
     atom   33 type  1   force =     0.00000000    0.00000000    0.00000000
     atom   34 type  2   force =    -0.00005568    0.00074635    0.02073965
     atom   35 type  2   force =    -0.00018221    0.00075343   -0.02104308
     atom   36 type  3   force =     0.00000000    0.00000000    0.00000000
     The Hubbard contrib.    to forces
     atom    1 type  1   force =     0.00000000    0.00000000    0.00000000
     atom    2 type  2   force =     0.00000000    0.00000000    0.00000000
     atom    3 type  2   force =     0.00000000    0.00000000    0.00000000
     atom    4 type  1   force =     0.00000000    0.00000000    0.00000000
     atom    5 type  2   force =     0.00000000    0.00000000    0.00000000
     atom    6 type  2   force =     0.00000000    0.00000000    0.00000000
     atom    7 type  1   force =     0.00000000    0.00000000    0.00000000
     atom    8 type  2   force =     0.00000000    0.00000000    0.00000000
     atom    9 type  2   force =     0.00000000    0.00000000    0.00000000
     atom   10 type  1   force =     0.00000000    0.00000000    0.00000000
     atom   11 type  2   force =     0.00000000    0.00000000    0.00000000
     atom   12 type  2   force =     0.00000000    0.00000000    0.00000000
     atom   13 type  1   force =     0.00000000    0.00000000    0.00000000
     atom   14 type  2   force =     0.00000000    0.00000000    0.00000000
     atom   15 type  2   force =     0.00000000    0.00000000    0.00000000
     atom   16 type  1   force =     0.00000000    0.00000000    0.00000000
     atom   17 type  2   force =     0.00000000    0.00000000    0.00000000
     atom   18 type  2   force =     0.00000000    0.00000000    0.00000000
     atom   19 type  1   force =     0.00000000    0.00000000    0.00000000
     atom   20 type  2   force =     0.00000000    0.00000000    0.00000000
     atom   21 type  1   force =     0.00000000    0.00000000    0.00000000
     atom   22 type  2   force =     0.00000000    0.00000000    0.00000000
     atom   23 type  2   force =     0.00000000    0.00000000    0.00000000
     atom   24 type  1   force =     0.00000000    0.00000000    0.00000000
     atom   25 type  2   force =     0.00000000    0.00000000    0.00000000
     atom   26 type  2   force =     0.00000000    0.00000000    0.00000000
     atom   27 type  1   force =     0.00000000    0.00000000    0.00000000
     atom   28 type  2   force =     0.00000000    0.00000000    0.00000000
     atom   29 type  2   force =     0.00000000    0.00000000    0.00000000
     atom   30 type  1   force =     0.00000000    0.00000000    0.00000000
     atom   31 type  2   force =     0.00000000    0.00000000    0.00000000
     atom   32 type  2   force =     0.00000000    0.00000000    0.00000000
     atom   33 type  1   force =     0.00000000    0.00000000    0.00000000
     atom   34 type  2   force =     0.00000000    0.00000000    0.00000000
     atom   35 type  2   force =     0.00000000    0.00000000    0.00000000
     atom   36 type  3   force =     0.00000000    0.00000000    0.00000000
     The SCF correction term to forces
     atom    1 type  1   force =    -0.00002600    0.00013130   -0.00004974
     atom    2 type  2   force =     0.00005112    0.00004427   -0.00021888
     atom    3 type  2   force =    -0.00000148    0.00009304    0.00013979
     atom    4 type  1   force =     0.00009821    0.00006129    0.00000729
     atom    5 type  2   force =     0.00013719   -0.00009780   -0.00017712
     atom    6 type  2   force =     0.00012056   -0.00007727    0.00012313
     atom    7 type  1   force =     0.00025396    0.00008287    0.00005502
     atom    8 type  2   force =    -0.00012641    0.00000035   -0.00036427
     atom    9 type  2   force =    -0.00012606   -0.00001658    0.00029163
     atom   10 type  1   force =    -0.00014999    0.00001220    0.00008381
     atom   11 type  2   force =    -0.00000381   -0.00015152   -0.00037703
     atom   12 type  2   force =    -0.00000927   -0.00019149    0.00028521
     atom   13 type  1   force =     0.00000979    0.00000140    0.00004617
     atom   14 type  2   force =    -0.00002745    0.00009731   -0.00026886
     atom   15 type  2   force =     0.00001283    0.00010660    0.00020176
     atom   16 type  1   force =     0.00022647   -0.00018581   -0.00005111
     atom   17 type  2   force =    -0.00010856   -0.00017278   -0.00017193
     atom   18 type  2   force =    -0.00009215   -0.00009740    0.00010054
     atom   19 type  1   force =     0.00026820   -0.00012566   -0.00008430
     atom   20 type  2   force =     0.00023243    0.00009543    0.00014719
     atom   21 type  1   force =     0.00045415    0.00008466   -0.00009283
     atom   22 type  2   force =     0.00012309    0.00001277    0.00015777
     atom   23 type  2   force =     0.00008222    0.00006209    0.00006001
     atom   24 type  1   force =     0.00000911    0.00016254    0.00006898
     atom   25 type  2   force =    -0.00004474    0.00016193   -0.00032292
     atom   26 type  2   force =     0.00003639    0.00012877    0.00020092
     atom   27 type  1   force =    -0.00031829   -0.00029604    0.00003350
     atom   28 type  2   force =    -0.00002665   -0.00005950   -0.00026245
     atom   29 type  2   force =    -0.00001037    0.00001735    0.00019626
     atom   30 type  1   force =    -0.00047031   -0.00031990   -0.00003661
     atom   31 type  2   force =    -0.00014132   -0.00014951   -0.00024722
     atom   32 type  2   force =    -0.00011795   -0.00014560    0.00011556
     atom   33 type  1   force =    -0.00020207    0.00046605   -0.00010678
     atom   34 type  2   force =    -0.00017866    0.00010493   -0.00026556
     atom   35 type  2   force =    -0.00007114   -0.00001053    0.00010487
     atom   36 type  3   force =     0.00003159    0.00002393   -0.00009351

     Total force =     0.084823     Total SCF correction =     0.001743
     Energy error            =      1.9E-02 Ry
     Gradient error          =      3.2E-02 Ry/Bohr

     number of scf cycles    =   2
     number of bfgs steps    =   1

     energy             old  =   -2205.5468236837 Ry
     energy             new  =   -2205.5656124572 Ry

     CASE: energy            _new < energy            _old

     new trust radius        =       0.0547458016 bohr
     new conv_thr            =       0.0000000318 Ry


ATOMIC_POSITIONS (angstrom)
Mo            6.5862740319        1.7688180382        2.8275710691
S             8.1602975155        0.8286071316        4.4355851837
S             8.1775411281        0.8221877782        1.2695795772
Mo            8.1032164022        4.4974929691        2.7183638044
S             6.5004153966        3.7143936535        4.3400487039
S             6.5558106716        3.5233553562        1.1217757645
Mo            6.5023602190        7.2021760398        2.6622152167
S             8.0816895510        6.3386895693        4.2632371989
S             8.0972181496        6.3108273092        1.0951761101
Mo            8.1510863427        9.9127519377        2.8238898125
S             6.5139577772        8.9392972971        4.3766827791
S             6.6122082004        9.0532699239        1.1448438342
Mo            3.4268687560        1.7522646262        2.7722728749
S             4.9869270526        0.8239918939        4.3628623115
S             5.0458125892        0.8477208398        1.2157802940
Mo            4.9867326751        4.5199835470        2.6398441722
S             3.4348796055        3.6707771303        4.2830221944
S             3.4310161040        3.5425655708        1.0740368449
Mo            3.4481332584        7.2013197809        2.6142792434
S             4.9852158993        6.3206787235        1.0352603070
Mo            5.0351575755        9.9153736318        2.7322796217
S             3.4557145948        8.9302902487        4.2583206517
S             3.4104627647        9.0707185421        1.1058750743
Mo            0.2846364112        1.7437801054        2.8302364043
S             1.8678483504        0.8191389641        4.4044589502
S             1.8491176549        0.8533333155        1.2041775864
Mo            1.8589236033        4.4940313042        2.6691417692
S             0.2721710363        3.6514586334        4.3293813666
S             0.2349538132        3.5284809270        1.1681093706
Mo            0.2672622904        7.2287219989        2.6978954186
S             1.9053924168        6.3133295781        4.2436593188
S             1.8499853606        6.3152851225        1.0517750185
Mo            1.8440786308        9.9388047329        2.7708946475
S             0.2943455959        9.0406065258        4.3956974772
S             0.2694978978        9.0522068449        1.1649615317
H             3.1373910228        8.4944723746        5.5515700333



     Writing config-only to output data dir ./MoS2-V-O.save/
     NEW-OLD atomic charge density approx. for the potential

     negative rho (up, down):  1.442E-04 0.000E+00

     total cpu time spent up to now is      193.4 secs

     Self-consistent Calculation

     iteration #  1     ecut=    80.00 Ry     beta= 0.70
     Davidson diagonalization with overlap
     ethr =  1.00E-06,  avg # of iterations =  8.0

     negative rho (up, down):  1.342E-04 0.000E+00

     total cpu time spent up to now is      207.0 secs

     total energy              =   -2205.57375172 Ry
     estimated scf accuracy    <       0.00094821 Ry

     iteration #  2     ecut=    80.00 Ry     beta= 0.70
     Davidson diagonalization with overlap
     ethr =  3.09E-07,  avg # of iterations =  5.0

     negative rho (up, down):  1.344E-04 0.000E+00

     total cpu time spent up to now is      219.7 secs

     total energy              =   -2205.57379039 Ry
     estimated scf accuracy    <       0.00019138 Ry

     iteration #  3     ecut=    80.00 Ry     beta= 0.70
     Davidson diagonalization with overlap
     ethr =  6.23E-08,  avg # of iterations =  6.0

     negative rho (up, down):  1.348E-04 0.000E+00

     total cpu time spent up to now is      230.7 secs

     total energy              =   -2205.57380853 Ry
     estimated scf accuracy    <       0.00004420 Ry

     iteration #  4     ecut=    80.00 Ry     beta= 0.70
     Davidson diagonalization with overlap
     ethr =  1.44E-08,  avg # of iterations =  5.0

     negative rho (up, down):  1.347E-04 0.000E+00

     total cpu time spent up to now is      246.2 secs

     total energy              =   -2205.57381816 Ry
     estimated scf accuracy    <       0.00000287 Ry

     iteration #  5     ecut=    80.00 Ry     beta= 0.70
     Davidson diagonalization with overlap
     ethr =  9.36E-10,  avg # of iterations =  8.0

     negative rho (up, down):  1.348E-04 0.000E+00

     total cpu time spent up to now is      258.2 secs

     total energy              =   -2205.57381944 Ry
     estimated scf accuracy    <       0.00000128 Ry

     iteration #  6     ecut=    80.00 Ry     beta= 0.70
     Davidson diagonalization with overlap
     ethr =  4.16E-10,  avg # of iterations =  2.0

     negative rho (up, down):  1.352E-04 0.000E+00

     total cpu time spent up to now is      273.9 secs

     total energy              =   -2205.57381956 Ry
     estimated scf accuracy    <       0.00000021 Ry

     iteration #  7     ecut=    80.00 Ry     beta= 0.70
     Davidson diagonalization with overlap
     ethr =  6.84E-11,  avg # of iterations =  3.0

     negative rho (up, down):  1.353E-04 0.000E+00

     total cpu time spent up to now is      287.5 secs

     total energy              =   -2205.57381959 Ry
     estimated scf accuracy    <       0.00000006 Ry

     iteration #  8     ecut=    80.00 Ry     beta= 0.70
     Davidson diagonalization with overlap
     ethr =  1.94E-11,  avg # of iterations =  5.0

     negative rho (up, down):  1.366E-04 0.000E+00

     total cpu time spent up to now is      289.8 secs

     End of self-consistent calculation

          k = 0.0000 0.0000 0.0000 (105382 PWs)   bands (ev):

   -62.8915 -62.8353 -62.8000 -62.7918 -62.7794 -62.7671 -62.7631 -62.7369
   -62.7093 -62.5993 -62.5761 -62.4831 -37.1673 -37.1540 -37.1019 -37.1016
   -37.0685 -37.0611 -37.0450 -37.0344 -37.0085 -37.0003 -36.9922 -36.9810
   -36.9665 -36.9562 -36.9504 -36.9421 -36.9372 -36.9304 -36.9184 -36.9112
   -36.8836 -36.8710 -36.8611 -36.8495 -36.8177 -36.8107 -36.7949 -36.7653
   -36.7580 -36.7540 -36.7530 -36.7156 -36.6886 -36.6529 -36.5715 -36.4909
   -16.3487 -15.7008 -15.0475 -15.0332 -14.8487 -14.7702 -14.6437 -14.4071
   -14.3724 -14.3475 -14.3205 -14.2732 -14.2644 -14.2242 -14.0974 -14.0616
   -14.0380 -14.0237 -13.9623 -13.8252 -13.7583 -13.7524 -13.7324  -9.1087
    -7.6073  -7.3667  -7.2793  -7.2400  -7.1963  -7.1484  -7.1273  -7.0500
    -6.7800  -6.7110  -6.7009  -6.6683  -6.5789  -6.4583  -6.4096  -6.3850
    -6.2912  -6.1874  -6.1871  -5.9138  -5.8872  -5.8469  -5.7608  -5.7334
    -5.6966  -5.6430  -5.6026  -5.5828  -5.5729  -5.4847  -5.4466  -5.4069
    -5.3647  -5.2742  -5.1558  -5.0877  -4.9744  -4.9435  -4.9085  -4.8924
    -4.8498  -4.7818  -4.6825  -4.5222  -4.4236  -4.2893  -4.2461  -4.1800
    -4.1467  -4.0316  -3.9548  -3.7858  -3.7562  -3.7451  -3.6703  -3.6221
    -3.6076  -3.4975  -3.4757  -3.4680  -3.4254  -3.3905  -3.3702  -3.3103
    -3.2885  -3.1621  -3.0697  -2.8706  -2.8015  -2.7811  -2.6980  -2.6736
    -2.6425  -2.6016  -2.5784  -2.5398  -2.4577  -2.1736  -1.9257  -1.9147
    -1.8785  -0.7798  -0.6441  -0.2945  -0.1230  -0.0691  -0.0200   0.0405
     0.1193   0.2198   0.2351   0.2882   0.3128   0.3847   0.4632   0.5358
     0.5912   0.6019   0.6433   0.6848   0.7070   0.7322   0.7802   0.8114
     0.8483   0.8882   0.9299   0.9745   1.0449   1.0566   1.1172   1.2127
     1.4492

     the Fermi energy is    -0.7942 ev

!    total energy              =   -2205.57381959 Ry
     estimated scf accuracy    <       0.00000001 Ry
     smearing contrib. (-TS)   =      -0.00725044 Ry
     internal energy E=F+TS    =   -2205.56656915 Ry

     The total energy is F=E-TS. E is the sum of the following terms:
     one-electron contribution =  -18054.17149152 Ry
     hartree contribution      =    9014.55692200 Ry
     xc contribution           =    -385.38266276 Ry
     ewald contribution        =    7219.43066313 Ry

     convergence has been achieved in   8 iterations

     negative rho (up, down):  1.366E-04 0.000E+00

     Forces acting on atoms (cartesian axes, Ry/au):

     atom    1 type  1   force =    -0.00369104    0.00049230   -0.00525787
     atom    2 type  2   force =    -0.00443981    0.00594020   -0.00061070
     atom    3 type  2   force =    -0.00861522    0.00540831   -0.01103506
     atom    4 type  1   force =     0.00375177    0.00245033    0.00125344
     atom    5 type  2   force =     0.00358277   -0.00548530   -0.00264389
     atom    6 type  2   force =     0.00150509    0.00433723    0.00234523
     atom    7 type  1   force =     0.00773286   -0.00916016    0.00133920
     atom    8 type  2   force =     0.00069755   -0.00394351    0.00869215
     atom    9 type  2   force =     0.00984063    0.00326801    0.00219044
     atom   10 type  1   force =     0.00073278    0.00580021   -0.00061978
     atom   11 type  2   force =     0.00914822   -0.00222953   -0.00724262
     atom   12 type  2   force =    -0.00106678    0.00044909   -0.00302356
     atom   13 type  1   force =     0.00273685    0.00026573    0.00026435
     atom   14 type  2   force =     0.00537640    0.00175608    0.00416376
     atom   15 type  2   force =    -0.00345864    0.00361263   -0.00640019
     atom   16 type  1   force =     0.00434390    0.00454717    0.00321692
     atom   17 type  2   force =     0.00474496    0.00011749    0.00287125
     atom   18 type  2   force =    -0.00248749   -0.00073987    0.00813847
     atom   19 type  1   force =    -0.00636556   -0.01010145   -0.00614074
     atom   20 type  2   force =     0.00257005   -0.00469555   -0.00499263
     atom   21 type  1   force =     0.00002464    0.00279529    0.00377539
     atom   22 type  2   force =    -0.01179148   -0.02578324    0.01529971
     atom   23 type  2   force =     0.00317313    0.00404706    0.00293412
     atom   24 type  1   force =    -0.00355254   -0.00034852   -0.00256799
     atom   25 type  2   force =     0.00530180    0.01105281   -0.00236485
     atom   26 type  2   force =    -0.00390226   -0.00050109   -0.00306967
     atom   27 type  1   force =    -0.00037084    0.00135693    0.00517501
     atom   28 type  2   force =    -0.00050750   -0.00381565   -0.00409978
     atom   29 type  2   force =     0.00236319    0.00200297   -0.00312941
     atom   30 type  1   force =    -0.00060083   -0.00416157    0.00619297
     atom   31 type  2   force =     0.00139619    0.00023737    0.00722965
     atom   32 type  2   force =    -0.00883357    0.00054677    0.00131264
     atom   33 type  1   force =    -0.00437147    0.00449802    0.00241780
     atom   34 type  2   force =    -0.00370576   -0.01842642   -0.01223791
     atom   35 type  2   force =    -0.00393829    0.00702702    0.00157966
     atom   36 type  3   force =     0.00267630    0.01738282   -0.00495550
     The non-local contrib.  to forces
     atom    1 type  1   force =     0.00161967    0.02806334   -0.00905637
     atom    2 type  2   force =    -0.00272008   -0.00531692   -0.26769910
     atom    3 type  2   force =    -0.00971631   -0.00734946    0.26422144
     atom    4 type  1   force =    -0.00070226    0.00848538    0.00439193
     atom    5 type  2   force =     0.00943122   -0.03300436   -0.25339311
     atom    6 type  2   force =     0.00083549    0.00430353    0.26340955
     atom    7 type  1   force =    -0.03466821    0.00042963   -0.01690694
     atom    8 type  2   force =     0.00901391   -0.00120357   -0.25720285
     atom    9 type  2   force =     0.00502439   -0.00783638    0.27168299
     atom   10 type  1   force =    -0.00001431    0.00280410   -0.00431832
     atom   11 type  2   force =     0.01613804    0.00289130   -0.25348376
     atom   12 type  2   force =    -0.01167316   -0.01297826    0.25915714
     atom   13 type  1   force =     0.00174043    0.02800525   -0.00753306
     atom   14 type  2   force =     0.00934814   -0.01001908   -0.25996811
     atom   15 type  2   force =    -0.00696299   -0.00886170    0.26247490
     atom   16 type  1   force =    -0.00576898    0.04407927   -0.02784695
     atom   17 type  2   force =     0.00417718   -0.02878599   -0.24986297
     atom   18 type  2   force =    -0.00534215   -0.00122369    0.27026825
     atom   19 type  1   force =     0.03221089   -0.00537228   -0.00203636
     atom   20 type  2   force =     0.00031205   -0.02012351    0.26127985
     atom   21 type  1   force =     0.00479411    0.01957010   -0.01063127
     atom   22 type  2   force =    -0.09361324   -0.07982409    0.22928839
     atom   23 type  2   force =     0.00472034   -0.01729163    0.27563964
     atom   24 type  1   force =    -0.00115435    0.02145205   -0.00785838
     atom   25 type  2   force =     0.00188316   -0.00836320   -0.26091637
     atom   26 type  2   force =     0.00193180   -0.01330579    0.26605866
     atom   27 type  1   force =    -0.00285242    0.00620304    0.00368845
     atom   28 type  2   force =    -0.00270850   -0.02519487   -0.27398480
     atom   29 type  2   force =     0.00607813   -0.00068441    0.26480404
     atom   30 type  1   force =    -0.00140436    0.01775952    0.00942961
     atom   31 type  2   force =    -0.00632571    0.00319318   -0.24553308
     atom   32 type  2   force =    -0.00049733   -0.00923624    0.27053026
     atom   33 type  1   force =    -0.00903674    0.00406371   -0.00137984
     atom   34 type  2   force =     0.00023022   -0.01621067   -0.26766061
     atom   35 type  2   force =     0.00081368   -0.00690365    0.26449384
     atom   36 type  3   force =     0.01279192    0.01913388   -0.05158287
     The ionic contribution  to forces
     atom    1 type  1   force =    -0.05652057    0.87589422    5.79388295
     atom    2 type  2   force =    -0.32548663    0.24284691   39.49472948
     atom    3 type  2   force =    -0.09681683    0.06628612  -36.37597957
     atom    4 type  1   force =    -0.00648741    0.44552505    0.80354457
     atom    5 type  2   force =    -0.93492533    1.45726718   38.66500853
     atom    6 type  2   force =     0.26036091   -0.56479637  -37.90432171
     atom    7 type  1   force =    -2.87219122   -2.51302565    2.20979316
     atom    8 type  2   force =    -1.01684022   -0.01132868   37.66805661
     atom    9 type  2   force =     0.32833507   -0.13256527  -38.01429131
     atom   10 type  1   force =    -0.68033041   -0.27313321    5.22798698
[...]
     atom   27 type  1   force =    -0.00376637    0.00449278    0.00039012
     atom   28 type  2   force =     0.00242924   -0.01530602   -0.27030727
     atom   29 type  2   force =    -0.00057596   -0.00940190    0.26487346
     atom   30 type  1   force =    -0.00509594    0.01564797    0.00896226
     atom   31 type  2   force =    -0.00144378   -0.00202399   -0.25790634
     atom   32 type  2   force =     0.00817379   -0.01127523    0.27356664
     atom   33 type  1   force =    -0.01220317    0.00696963   -0.00266636
     atom   34 type  2   force =     0.00788195   -0.00474992   -0.26280028
     atom   35 type  2   force =    -0.00012250   -0.00996126    0.26610428
     atom   36 type  3   force =     0.00021991   -0.01485652   -0.05791796
     The ionic contribution  to forces
     atom    1 type  1   force =    -0.11995144    0.57110045    2.47785628
     atom    2 type  2   force =    -0.18575099   -0.03075987   38.87579153
     atom    3 type  2   force =     0.05400714   -0.15371145  -37.56367420
     atom    4 type  1   force =     0.05521683    0.67094687    0.49661784
     atom    5 type  2   force =    -0.87349837    1.20095294   38.68820482
     atom    6 type  2   force =     0.17514761   -0.29350223  -38.25317107
     atom    7 type  1   force =    -2.83765986   -1.12361956    3.10914532
     atom    8 type  2   force =    -1.05409902    0.27401288   38.28251285
     atom    9 type  2   force =     0.32137112    0.16390069  -37.91753824
     atom   10 type  1   force =    -0.75981042   -0.75968893    2.54587542
     atom   11 type  2   force =    -0.41567063   -1.58634809   38.22700098
     atom   12 type  2   force =     0.15266856    0.03730048  -37.62287537
     atom   13 type  1   force =     0.07495098    0.95573286    2.56018999
     atom   14 type  2   force =     0.09787374    0.09868576   38.68847717
     atom   15 type  2   force =    -0.00011814   -0.07192524  -37.72495102
     atom   16 type  1   force =    -1.01937785    3.81004217    2.00432738
     atom   17 type  2   force =     0.82045747    1.46317654   38.25520493
     atom   18 type  2   force =    -0.15236867   -0.10199985  -37.75547117
     atom   19 type  1   force =     2.66619720   -2.59478092    2.07298570
     atom   20 type  2   force =    -0.14761365    0.04549533  -38.41932970
     atom   21 type  1   force =     0.51038126   -0.93250654    0.76059742
     atom   22 type  2   force =     0.49794204   -2.05986692   36.43101742
     atom   23 type  2   force =    -0.15815299    0.18690906  -37.81936820
     atom   24 type  1   force =    -0.01358631    0.39088244    2.28445534
     atom   25 type  2   force =     0.12278821    0.26548059   38.93330376
     atom   26 type  2   force =    -0.01808850   -0.02124574  -37.60479385
     atom   27 type  1   force =     0.74689188    0.95786435    1.15475667
     atom   28 type  2   force =     0.07714023    0.59810667   38.41199504
     atom   29 type  2   force =     0.08156452   -0.01629961  -37.76668738
     atom   30 type  1   force =     0.03630919   -0.75041423    1.49357609
     atom   31 type  2   force =     1.30520949    0.07588546   37.92581256
     atom   32 type  2   force =    -0.22302440   -0.04443950  -37.71203583
     atom   33 type  1   force =     0.19793843   -0.74714836    2.68703362
     atom   34 type  2   force =    -0.09698714   -0.65159242   38.77268226
     atom   35 type  2   force =     0.02085257    0.04977469  -37.60153325
     atom   36 type  3   force =     0.06084990    0.12359922    8.62200890
     The local contribution  to forces
     atom    1 type  1   force =     0.12035142   -0.59847136   -2.47676892
     atom    2 type  2   force =     0.18591072    0.04138475  -38.63230678
     atom    3 type  2   force =    -0.05233127    0.16482837   37.31640666
     atom    4 type  1   force =    -0.05633282   -0.68255435   -0.49962002
     atom    5 type  2   force =     0.87117736   -1.17577250  -38.45313631
     atom    6 type  2   force =    -0.17847796    0.29872646   38.01275195
     atom    7 type  1   force =     2.87514108    1.13110905   -3.08437469
     atom    8 type  2   force =     1.04314996   -0.27576885  -38.03884364
     atom    9 type  2   force =    -0.31974758   -0.15042746   37.67173951
     atom   10 type  1   force =     0.75934898    0.75412670   -2.54750364
     atom   11 type  2   force =     0.41629759    1.58646635  -37.99104490
     atom   12 type  2   force =    -0.14279829   -0.02750837   37.37547517
     atom   13 type  1   force =    -0.07713517   -0.98290397   -2.55274005
     atom   14 type  2   force =    -0.09502461   -0.08451859  -38.45242932
     atom   15 type  2   force =     0.00001299    0.08232063   37.48328089
     atom   16 type  1   force =     1.02797825   -3.85724992   -1.98142026
     atom   17 type  2   force =    -0.81377550   -1.44196100  -38.02355008
     atom   18 type  2   force =     0.15075781    0.10818594   37.50941555
     atom   19 type  1   force =    -2.69944858    2.59709838   -2.06009544
     atom   20 type  2   force =     0.14953480   -0.03487267   38.17753973
     atom   21 type  1   force =    -0.51699983    0.91402277   -0.75404267
     atom   22 type  2   force =    -0.49563334    1.95950665  -36.66438560
     atom   23 type  2   force =     0.15377825   -0.17470746   37.56726718
     atom   24 type  1   force =     0.01682337   -0.41446597   -2.28358378
     atom   25 type  2   force =    -0.12571848   -0.24935489  -38.69651447
     atom   26 type  2   force =     0.01599053    0.03347874   37.35749880
     atom   27 type  1   force =    -0.74271530   -0.96160112   -1.15555825
     atom   28 type  2   force =    -0.07955903   -0.58356557  -38.16322146
     atom   29 type  2   force =    -0.08116316    0.02570270   37.52239818
     atom   30 type  1   force =    -0.03077915    0.73324957   -1.50241706
     atom   31 type  2   force =    -1.30427645   -0.07441912  -37.68774554
     atom   32 type  2   force =     0.21461369    0.05460961   37.45909531
     atom   33 type  1   force =    -0.18567435    0.74030089   -2.68417353
     atom   34 type  2   force =     0.08960088    0.65614965  -38.52918461
     atom   35 type  2   force =    -0.02134097   -0.03995457   37.35667834
     atom   36 type  3   force =    -0.05912976   -0.10953238   -8.56523881
     The core correction contribution to forces
     atom    1 type  1   force =     0.00000000    0.00000000    0.00000000
     atom    2 type  2   force =    -0.00001637    0.00043254    0.02063251
     atom    3 type  2   force =     0.00006737    0.00048330   -0.02094002
     atom    4 type  1   force =     0.00000000    0.00000000    0.00000000
     atom    5 type  2   force =    -0.00032700    0.00129894    0.02038221
     atom    6 type  2   force =     0.00002642   -0.00008555   -0.02071506
     atom    7 type  1   force =     0.00000000    0.00000000    0.00000000
     atom    8 type  2   force =    -0.00052859    0.00017673    0.02067824
     atom    9 type  2   force =     0.00035101    0.00075892   -0.02084121
     atom   10 type  1   force =     0.00000000    0.00000000    0.00000000
     atom   11 type  2   force =     0.00037430   -0.00038664    0.02005859
     atom   12 type  2   force =     0.00073075    0.00040128   -0.02083440
     atom   13 type  1   force =     0.00000000    0.00000000    0.00000000
     atom   14 type  2   force =     0.00029964    0.00069901    0.02025880
     atom   15 type  2   force =    -0.00002699    0.00052028   -0.02073191
     atom   16 type  1   force =     0.00000000    0.00000000    0.00000000
     atom   17 type  2   force =     0.00057319    0.00117537    0.02012757
     atom   18 type  2   force =    -0.00006979    0.00011329   -0.02075867
     atom   19 type  1   force =     0.00000000    0.00000000    0.00000000
     atom   20 type  2   force =    -0.00007058    0.00041822   -0.02114532
     atom   21 type  1   force =     0.00000000    0.00000000    0.00000000
     atom   22 type  2   force =     0.00002241   -0.00672427   -0.00922332
     atom   23 type  2   force =    -0.00046696    0.00094457   -0.02122284
     atom   24 type  1   force =     0.00000000    0.00000000    0.00000000
     atom   25 type  2   force =    -0.00020493    0.00109289    0.02024388
     atom   26 type  2   force =    -0.00006138    0.00063261   -0.02103598
     atom   27 type  1   force =     0.00000000    0.00000000    0.00000000
     atom   28 type  2   force =    -0.00018780    0.00091782    0.02098863
     atom   29 type  2   force =     0.00006068    0.00036245   -0.02074523
     atom   30 type  1   force =     0.00000000    0.00000000    0.00000000
     atom   31 type  2   force =     0.00009397    0.00016943    0.02031126
     atom   32 type  2   force =    -0.00058089    0.00057421   -0.02101717
     atom   33 type  1   force =     0.00000000    0.00000000    0.00000000
     atom   34 type  2   force =    -0.00055329   -0.00001507    0.02063835
     atom   35 type  2   force =     0.00005562    0.00059342   -0.02097034
     atom   36 type  3   force =     0.00000000    0.00000000    0.00000000
     The Hubbard contrib.    to forces
     atom    1 type  1   force =     0.00000000    0.00000000    0.00000000
     atom    2 type  2   force =     0.00000000    0.00000000    0.00000000
     atom    3 type  2   force =     0.00000000    0.00000000    0.00000000
     atom    4 type  1   force =     0.00000000    0.00000000    0.00000000
     atom    5 type  2   force =     0.00000000    0.00000000    0.00000000
     atom    6 type  2   force =     0.00000000    0.00000000    0.00000000
     atom    7 type  1   force =     0.00000000    0.00000000    0.00000000
     atom    8 type  2   force =     0.00000000    0.00000000    0.00000000
     atom    9 type  2   force =     0.00000000    0.00000000    0.00000000
     atom   10 type  1   force =     0.00000000    0.00000000    0.00000000
     atom   11 type  2   force =     0.00000000    0.00000000    0.00000000
     atom   12 type  2   force =     0.00000000    0.00000000    0.00000000
     atom   13 type  1   force =     0.00000000    0.00000000    0.00000000
     atom   14 type  2   force =     0.00000000    0.00000000    0.00000000
     atom   15 type  2   force =     0.00000000    0.00000000    0.00000000
     atom   16 type  1   force =     0.00000000    0.00000000    0.00000000
     atom   17 type  2   force =     0.00000000    0.00000000    0.00000000
     atom   18 type  2   force =     0.00000000    0.00000000    0.00000000
     atom   19 type  1   force =     0.00000000    0.00000000    0.00000000
     atom   20 type  2   force =     0.00000000    0.00000000    0.00000000
     atom   21 type  1   force =     0.00000000    0.00000000    0.00000000
     atom   22 type  2   force =     0.00000000    0.00000000    0.00000000
     atom   23 type  2   force =     0.00000000    0.00000000    0.00000000
     atom   24 type  1   force =     0.00000000    0.00000000    0.00000000
     atom   25 type  2   force =     0.00000000    0.00000000    0.00000000
     atom   26 type  2   force =     0.00000000    0.00000000    0.00000000
     atom   27 type  1   force =     0.00000000    0.00000000    0.00000000
     atom   28 type  2   force =     0.00000000    0.00000000    0.00000000
     atom   29 type  2   force =     0.00000000    0.00000000    0.00000000
     atom   30 type  1   force =     0.00000000    0.00000000    0.00000000
     atom   31 type  2   force =     0.00000000    0.00000000    0.00000000
     atom   32 type  2   force =     0.00000000    0.00000000    0.00000000
     atom   33 type  1   force =     0.00000000    0.00000000    0.00000000
     atom   34 type  2   force =     0.00000000    0.00000000    0.00000000
     atom   35 type  2   force =     0.00000000    0.00000000    0.00000000
     atom   36 type  3   force =     0.00000000    0.00000000    0.00000000
     The SCF correction term to forces
     atom    1 type  1   force =     0.00002384    0.00000225   -0.00001397
     atom    2 type  2   force =     0.00000425    0.00000344   -0.00002560
     atom    3 type  2   force =     0.00001491   -0.00002041   -0.00000777
     atom    4 type  1   force =     0.00002472    0.00005011    0.00000036
     atom    5 type  2   force =     0.00001595    0.00002128   -0.00000622
     atom    6 type  2   force =     0.00002877    0.00001145    0.00001029
     atom    7 type  1   force =     0.00004658   -0.00000613   -0.00001676
     atom    8 type  2   force =    -0.00000467   -0.00000682   -0.00003505
     atom    9 type  2   force =     0.00000470    0.00001821    0.00001992
     atom   10 type  1   force =     0.00003018   -0.00005342   -0.00007842
     atom   11 type  2   force =     0.00000124   -0.00002964   -0.00003204
     atom   12 type  2   force =     0.00001933   -0.00001716   -0.00000223
     atom   13 type  1   force =    -0.00002766   -0.00001197   -0.00000732
     atom   14 type  2   force =    -0.00000275    0.00000286   -0.00001702
     atom   15 type  2   force =     0.00000046   -0.00001909    0.00000009
     atom   16 type  1   force =     0.00001917    0.00005094    0.00002086
     atom   17 type  2   force =    -0.00000906    0.00001473   -0.00000191
     atom   18 type  2   force =    -0.00001753    0.00000056    0.00001281
     atom   19 type  1   force =    -0.00001163    0.00000772   -0.00000624
     atom   20 type  2   force =     0.00001785    0.00002374    0.00001109
     atom   21 type  1   force =     0.00000549   -0.00003954   -0.00004128
     atom   22 type  2   force =     0.00000017   -0.00001885   -0.00001452
     atom   23 type  2   force =    -0.00000914   -0.00000251   -0.00000727
     atom   24 type  1   force =     0.00000281    0.00001139   -0.00004084
     atom   25 type  2   force =    -0.00000002    0.00000549   -0.00002873
     atom   26 type  2   force =    -0.00001338   -0.00001719   -0.00000430
     atom   27 type  1   force =    -0.00004772    0.00002528    0.00001135
     atom   28 type  2   force =    -0.00000708    0.00001978   -0.00002719
     atom   29 type  2   force =    -0.00000993    0.00001163    0.00001750
     atom   30 type  1   force =    -0.00002876   -0.00000416   -0.00004264
     atom   31 type  2   force =    -0.00000868   -0.00000285   -0.00000842
     atom   32 type  2   force =    -0.00002613    0.00001230    0.00000858
     atom   33 type  1   force =    -0.00004012   -0.00003246   -0.00006910
     atom   34 type  2   force =    -0.00000051   -0.00001902   -0.00004216
     atom   35 type  2   force =    -0.00000850   -0.00000534   -0.00000497
     atom   36 type  3   force =    -0.00000052   -0.00000324   -0.00000242

     Total force =     0.006171     Total SCF correction =     0.000238
     Energy error            =      9.5E-05 Ry
     Gradient error          =      1.9E-03 Ry/Bohr

     bfgs converged in  30 scf cycles and  29 bfgs steps
     (criteria: energy <  1.0E-04 Ry, force <  1.0E-02 Ry/Bohr)

     End of BFGS Geometry Optimization

     Final energy             =   -2205.5971456521 Ry

     File ./MoS2-V-O.bfgs deleted, as requested
Begin final coordinates

ATOMIC_POSITIONS (angstrom)
Mo            6.5615991716        1.7375668742        2.7622272750
S             8.1257856075        0.8227007157        4.3696816384
S             8.1333152134        0.8173333313        1.1755647845
Mo            8.1294964790        4.4635067012        2.7158984198
S             6.5421824584        3.6379977646        4.3296360679
S             6.5620405197        3.5343302787        1.1085217137
Mo            6.4963348396        7.1172891352        2.6816279603
S             8.0768059875        6.2712658191        4.3096081496
S             8.1255590159        6.2938931620        1.1143025482
Mo            8.1269079841        9.9094000617        2.7679871418
S             6.5196657625        8.9134203071        4.3251180856
S             6.5715661868        8.9949939064        1.1362058328
Mo            3.4247803120        1.7332829579        2.7647021449
S             5.0002587904        0.8116214975        4.3533895969
S             4.9917033176        0.8247388228        1.1628466410
Mo            5.0271288260        4.4953323461        2.6628136819
S             3.4756743564        3.6423900269        4.3126052123
S             3.4247923285        3.5403273333        1.1271780561
Mo            3.4568404938        7.1891078763        2.6648486577
S             4.9594826642        6.2773873011        1.0580560446
Mo            4.9941946367        9.9150262703        2.7345666118
S             3.4491095068        8.9704774899        4.2822706179
S             3.3869936695        9.0394465423        1.1375436243
Mo            0.2550339323        1.7248022015        2.7704497505
S             1.8419787590        0.8448301152        4.3774577158
S             1.8397232578        0.8298316406        1.1766917302
Mo            1.8547901805        4.4573080200        2.7255954084
S             0.2590090792        3.5798454700        4.3283906758
S             0.2671095853        3.5353268331        1.1460124651
Mo            0.2531872466        7.1986209458        2.7335235202
S             1.8848516757        6.2819255918        4.2938489651
S             1.8409466536        6.2929987748        1.1187216227
Mo            1.8237843950        9.9389685536        2.7766319513
S             0.2409717617        9.0039775665        4.3584358488
S             0.2541509629        9.0294701305        1.1689362147
H             3.4468447279        9.3104596011        5.6228651612
End final coordinates



     Writing all to output data dir ./MoS2-V-O.save/
 
     init_run     :      2.40s CPU      2.66s WALL (       1 calls)
     electrons    :   2750.49s CPU   3063.04s WALL (      30 calls)
     update_pot   :     41.08s CPU     43.26s WALL (      29 calls)
     forces       :     40.43s CPU     46.82s WALL (      30 calls)

     Called by init_run:
     wfcinit      :      0.39s CPU      0.43s WALL (       1 calls)
     potinit      :      1.32s CPU      1.44s WALL (       1 calls)
     hinit0       :      0.17s CPU      0.18s WALL (       1 calls)

     Called by electrons:
     c_bands      :    338.16s CPU    343.71s WALL (     254 calls)
     sum_band     :     76.54s CPU     97.38s WALL (     254 calls)
     v_of_rho     :    106.69s CPU    129.99s WALL (     267 calls)
     newd         :     35.35s CPU     55.89s WALL (     267 calls)
     mix_rho      :   2206.04s CPU   2448.92s WALL (     254 calls)

     Called by c_bands:
     init_us_2    :      5.41s CPU      5.87s WALL (     509 calls)
     init_us_2:cp :      5.41s CPU      5.87s WALL (     509 calls)
     regterg      :    318.97s CPU    324.03s WALL (     254 calls)

     Called by *egterg:
     rdiaghg      :     24.12s CPU     24.42s WALL (    1361 calls)
     h_psi        :    174.06s CPU    175.57s WALL (    1408 calls)
     s_psi        :     20.93s CPU     21.01s WALL (    1408 calls)
     g_psi        :      2.08s CPU      2.10s WALL (    1153 calls)

     Called by h_psi:
     h_psi:calbec :     25.42s CPU     25.54s WALL (    1408 calls)
     vloc_psi     :    123.69s CPU    124.89s WALL (    1408 calls)
     add_vuspsi   :     21.00s CPU     21.16s WALL (    1408 calls)

     General routines
     calbec       :     36.08s CPU     36.28s WALL (    1782 calls)
     fft          :     71.55s CPU     84.23s WALL (   18043 calls)
     ffts         :    996.16s CPU   1231.12s WALL (  539986 calls)
     fftw         :    105.37s CPU    106.20s WALL (  155030 calls)
     interpolate  :      1.95s CPU      2.29s WALL (     267 calls)
 
     Parallel routines
 
     PWSCF        :  47m19.55s CPU  52m44.72s WALL

 
   This run was terminated on:   8:36: 5   4Nov2023            

=------------------------------------------------------------------------------=
   JOB DONE.
=------------------------------------------------------------------------------=
