
     Program PWSCF v.7.2 starts on  4Nov2023 at  4:38:40 

     This program is part of the open-source Quantum ESPRESSO suite
     for quantum simulation of materials; please cite
         "P. Giannozzi et al., J. Phys.:Condens. Matter 21 395502 (2009);
         "P. Giannozzi et al., J. Phys.:Condens. Matter 29 465901 (2017);
         "P. Giannozzi et al., J. Chem. Phys. 152 154105 (2020);
          URL http://www.quantum-espresso.org", 
     in publications or presentations arising from this work. More details at
     http://www.quantum-espresso.org/quote

     Parallel version (MPI & OpenMP), running on      48 processor cores
     Number of MPI processes:                48
     Threads/MPI process:                     1

     MPI processes distributed on     1 nodes
     52593 MiB available memory on the printing compute node when the environment starts
 
     Waiting for input...
     Reading input from standard input
Warning: card &CELL ignored
Warning: card CELL_DYNAMICS = 'BFGS', ignored
Warning: card CELL_DOFREE = '2DXY' ignored
Warning: card / ignored

     Current dimensions of program PWSCF are:
     Max number of different atomic species (ntypx) = 10
     Max number of k-points (npk) =  40000
     Max angular momentum in pseudopotentials (lmaxx) =  4

     IMPORTANT: XC functional enforced from input :
     Exchange-correlation= RVV10
                           (   1   4  13   4  26   0   0)
     Any further DFT definition will be discarded
     Please, verify this is what you really want


     gamma-point specific algorithms are used
     signal trapping enabled: kill the code with -SIGUSR1 to stop cleanly the simulation 
 
     R & G space division:  proc/nbgrp/npool/nimage =      48
     Subspace diagonalization in iterative solution of the eigenvalue problem:
     one sub-group per band group will be used
     scalapack distributed-memory algorithm (size of sub-group:  2*  2 procs)

 
     Parallelization info
     --------------------
     sticks:   dense  smooth     PW     G-vecs:    dense   smooth      PW
     Min         243     194     47                49060    35090    4376
     Max         246     196     50                49086    35128    4410
     Sum       11735    9389   2349              2355467  1685513  210763
 
     Using Slab Decomposition
 


     bravais-lattice index     =            0
     lattice parameter (alat)  =      17.8707  a.u.
     unit-cell volume          =   17436.2743 (a.u.)^3
     number of atoms/cell      =           36
     number of atomic types    =            3
     number of electrons       =       307.00
     number of Kohn-Sham states=          185
     kinetic-energy cutoff     =      80.0000  Ry
     charge density cutoff     =     400.0000  Ry
     scf convergence threshold =      1.0E-06
     mixing beta               =       0.7000
     number of iterations used =            8  local-TF  mixing
     energy convergence thresh.=      1.0E-04
     force convergence thresh. =      1.0E-02
     Exchange-correlation= RVV10
                           (   1   4  13   4  26   0   0)
     nstep                     =          200


     celldm(1)=  17.870686  celldm(2)=   0.000000  celldm(3)=   0.000000
     celldm(4)=   0.000000  celldm(5)=   0.000000  celldm(6)=   0.000000

     crystal axes: (cart. coord. in units of alat)
               a(1) = (   1.000000   0.000000   0.000000 )  
               a(2) = (   0.000000   1.155671   0.000000 )  
               a(3) = (   0.000000   0.000000   2.643601 )  

     reciprocal axes: (cart. coord. in units 2 pi/alat)
               b(1) = (  1.000000  0.000000  0.000000 )  
               b(2) = (  0.000000  0.865298  0.000000 )  
               b(3) = (  0.000000  0.000000  0.378272 )  


     PseudoPot. # 1 for Mo read from file:
     ../pseudo/Mo_ONCV_PBE-1.0.oncvpsp.upf
     MD5 check sum: 1b5d28e075c9ccadda658a603575cd1f
     Pseudo is Norm-conserving, Zval = 14.0
     Generated using ONCVPSP code by D. R. Hamann
     Using radial grid of 1526 points,  6 beta functions with: 
                l(1) =   0
                l(2) =   0
                l(3) =   1
                l(4) =   1
                l(5) =   2
                l(6) =   2

     PseudoPot. # 2 for S  read from file:
     ../pseudo/s_pbe_v1.4.uspp.F.UPF
     MD5 check sum: 88d86576ff6df21479756cfb9bdac1df
     Pseudo is Ultrasoft + core correction, Zval =  6.0
     Generated by new atomic code, or converted to UPF format
     Using radial grid of  907 points,  6 beta functions with: 
                l(1) =   0
                l(2) =   0
                l(3) =   1
                l(4) =   1
                l(5) =   2
                l(6) =   2
     Q(r) pseudized with  8 coefficients,  rinner =    1.300   1.300   1.300
                                                       1.300   1.300

     PseudoPot. # 3 for H  read from file:
     ../pseudo/H_ONCV_PBE-1.0.oncvpsp.upf
     MD5 check sum: 1790becc920ee074925cf490c71280fe
     Pseudo is Norm-conserving, Zval =  1.0
     Generated using ONCVPSP code by D. R. Hamann
     Using radial grid of 1166 points,  2 beta functions with: 
                l(1) =   0
                l(2) =   0

     atomic species   valence    mass     pseudopotential
        Mo            14.00    95.94000     Mo( 1.00)
        S              6.00    32.06500     S ( 1.00)
        H              1.00     1.00794     H ( 1.00)

     No symmetry found



   Cartesian axes

     site n.     atom                  positions (alat units)
         1           Mo  tau(   1) = (   0.6952221   0.1890506   0.2985846  )
         2           S   tau(   2) = (   0.8646417   0.0856217   0.4689279  )
         3           S   tau(   3) = (   0.8663890   0.0857843   0.1351291  )
         4           Mo  tau(   4) = (   0.8560186   0.4753274   0.2873942  )
         5           S   tau(   5) = (   0.6873294   0.3936244   0.4596353  )
         6           S   tau(   6) = (   0.6929804   0.3713468   0.1185692  )
         7           Mo  tau(   7) = (   0.6862796   0.7633098   0.2825370  )
         8           S   tau(   8) = (   0.8545980   0.6708292   0.4486168  )
         9           S   tau(   9) = (   0.8545123   0.6666874   0.1146125  )
        10           Mo  tau(  10) = (   0.8629403   1.0471007   0.3006803  )
        11           S   tau(  11) = (   0.6868280   0.9456650   0.4634891  )
        12           S   tau(  12) = (   0.6998113   0.9568511   0.1205389  )
        13           Mo  tau(  13) = (   0.3618216   0.1847309   0.2935964  )
        14           S   tau(  14) = (   0.5260962   0.0863870   0.4600448  )
        15           S   tau(  15) = (   0.5348379   0.0894875   0.1297123  )
        16           Mo  tau(  16) = (   0.5265817   0.4772436   0.2784130  )
        17           S   tau(  17) = (   0.3624753   0.3882513   0.4525556  )
        18           S   tau(  18) = (   0.3635411   0.3752055   0.1119148  )
        19           Mo  tau(  19) = (   0.3652268   0.7630864   0.2781795  )
        20           S   tau(  20) = (   0.5269494   0.6690381   0.1096838  )
        21           Mo  tau(  21) = (   0.5300192   1.0470394   0.2900995  )
        22           S   tau(  22) = (   0.3670346   0.9457522   0.4574073  )
        23           S   tau(  23) = (   0.3604225   0.9585725   0.1159032  )
        24           Mo  tau(  24) = (   0.0313099   0.1847895   0.3013130  )
        25           S   tau(  25) = (   0.1956761   0.0838230   0.4650863  )
        26           S   tau(  26) = (   0.1967693   0.0903508   0.1278874  )
        27           Mo  tau(  27) = (   0.1967578   0.4753919   0.2813011  )
        28           S   tau(  28) = (   0.0287851   0.3864324   0.4586755  )
        29           S   tau(  29) = (   0.0244514   0.3729871   0.1239344  )
        30           Mo  tau(  30) = (   0.0286728   0.7631204   0.2856894  )
        31           S   tau(  31) = (   0.2011512   0.6675435   0.4465001  )
        32           S   tau(  32) = (   0.1969214   0.6672839   0.1104564  )
        33           Mo  tau(  33) = (   0.1950294   1.0511147   0.2932237  )
        34           S   tau(  34) = (   0.0312912   0.9612169   0.4667423  )
        35           S   tau(  35) = (   0.0292670   0.9563028   0.1216485  )
        36           H   tau(  36) = (   0.7777778   0.6420393   0.5656742  )

     number of k points=     1  Gaussian smearing, width (Ry)=  0.0100
                       cart. coord. in units 2pi/alat
        k(    1) = (   0.0000000   0.0000000   0.0000000), wk =   2.0000000

     Dense  grid:  1177734 G-vectors     FFT dimensions: ( 120, 135, 320)

     Smooth grid:   842757 G-vectors     FFT dimensions: ( 108, 120, 270)

     Estimated max dynamical RAM per process >     146.59 MB

     Estimated total dynamical RAM >       6.87 GB

     Initial potential from superposition of free atoms

     starting charge     306.9873, renormalised to     307.0000

     negative rho (up, down):  1.406E-04 0.000E+00


---------------------------------------------------------------------------------
Carrying out rVV10 run using the following parameters:
Nqs =      20    Nr_points =    1024   r_max =   100.000
b_value =  6.30000    beta =  0.00901
     q_mesh =  0.00010000  0.00030000  0.00058939  0.00100810
               0.00161396  0.00249058  0.00375900  0.00559430
               0.00824984  0.01209221  0.01765183  0.02569619
               0.03733578  0.05417739  0.07854596  0.11380545
               0.16482331  0.23864234  0.34545298  0.50000000

Gradients computed in Reciprocal space

---------------------------------------------------------------------------------


     Starting wfcs are  213 randomized atomic wfcs

     total cpu time spent up to now is        2.8 secs

     Self-consistent Calculation

     iteration #  1     ecut=    80.00 Ry     beta= 0.70
     Davidson diagonalization with overlap
     ethr =  1.00E-02,  avg # of iterations =  2.0

     Threshold (ethr) on eigenvalues was too large:
     Diagonalizing with lowered threshold

     Davidson diagonalization with overlap
     ethr =  3.88E-04,  avg # of iterations =  4.0

     negative rho (up, down):  1.806E-08 0.000E+00

     total cpu time spent up to now is       19.5 secs

     total energy              =   -2205.63342934 Ry
     estimated scf accuracy    <       1.48058160 Ry

     iteration #  2     ecut=    80.00 Ry     beta= 0.70
     Davidson diagonalization with overlap
     ethr =  4.82E-04,  avg # of iterations =  1.0

     total cpu time spent up to now is       21.9 secs

     total energy              =   -2205.45737264 Ry
     estimated scf accuracy    <       0.61746992 Ry

     iteration #  3     ecut=    80.00 Ry     beta= 0.70
     Davidson diagonalization with overlap
     ethr =  2.01E-04,  avg # of iterations =  3.0

     total cpu time spent up to now is       24.4 secs

     total energy              =   -2205.55159955 Ry
     estimated scf accuracy    <       0.06961760 Ry

     iteration #  4     ecut=    80.00 Ry     beta= 0.70
     Davidson diagonalization with overlap
     c_bands:  1 eigenvalues not converged
     ethr =  2.27E-05,  avg # of iterations = 20.0

     total cpu time spent up to now is       27.8 secs

     total energy              =   -2205.55550465 Ry
     estimated scf accuracy    <       0.03921296 Ry

     iteration #  5     ecut=    80.00 Ry     beta= 0.70
     Davidson diagonalization with overlap
     ethr =  1.28E-05,  avg # of iterations =  2.0

     total cpu time spent up to now is       30.0 secs

     total energy              =   -2205.55605331 Ry
     estimated scf accuracy    <       0.02535803 Ry

     iteration #  6     ecut=    80.00 Ry     beta= 0.70
     Davidson diagonalization with overlap
     ethr =  8.26E-06,  avg # of iterations =  1.0

     total cpu time spent up to now is       32.1 secs

     total energy              =   -2205.55528196 Ry
     estimated scf accuracy    <       0.01491220 Ry

     iteration #  7     ecut=    80.00 Ry     beta= 0.70
     Davidson diagonalization with overlap
     ethr =  4.86E-06,  avg # of iterations =  2.0

     total cpu time spent up to now is       34.2 secs

     total energy              =   -2205.55320308 Ry
     estimated scf accuracy    <       0.01086443 Ry

     iteration #  8     ecut=    80.00 Ry     beta= 0.70
     Davidson diagonalization with overlap
     ethr =  3.54E-06,  avg # of iterations =  2.0

     negative rho (up, down):  2.330E-03 0.000E+00

     total cpu time spent up to now is       38.6 secs

     total energy              =   -2205.55243449 Ry
     estimated scf accuracy    <       0.00496532 Ry

     iteration #  9     ecut=    80.00 Ry     beta= 0.70
     Davidson diagonalization with overlap
     ethr =  1.62E-06,  avg # of iterations = 10.0

     negative rho (up, down):  1.358E-02 0.000E+00

     total cpu time spent up to now is       43.5 secs

     total energy              =   -2205.55216280 Ry
     estimated scf accuracy    <       0.00321279 Ry

     iteration # 10     ecut=    80.00 Ry     beta= 0.70
     Davidson diagonalization with overlap
     ethr =  1.05E-06,  avg # of iterations =  2.0

     negative rho (up, down):  3.226E-02 0.000E+00

     total cpu time spent up to now is       47.4 secs

     total energy              =   -2205.55216470 Ry
     estimated scf accuracy    <       0.00186305 Ry

     iteration # 11     ecut=    80.00 Ry     beta= 0.70
     Davidson diagonalization with overlap
     ethr =  6.07E-07,  avg # of iterations =  2.0

     negative rho (up, down):  2.504E-02 0.000E+00

     total cpu time spent up to now is       52.0 secs

     total energy              =   -2205.55218481 Ry
     estimated scf accuracy    <       0.00067712 Ry

     iteration # 12     ecut=    80.00 Ry     beta= 0.70
     Davidson diagonalization with overlap
     ethr =  2.21E-07,  avg # of iterations =  2.0

     negative rho (up, down):  1.135E-02 0.000E+00

     total cpu time spent up to now is       58.7 secs

     total energy              =   -2205.55223633 Ry
     estimated scf accuracy    <       0.00012013 Ry

     iteration # 13     ecut=    80.00 Ry     beta= 0.70
     Davidson diagonalization with overlap
     ethr =  3.91E-08,  avg # of iterations =  6.0

     negative rho (up, down):  3.094E-03 0.000E+00

     total cpu time spent up to now is       65.3 secs

     total energy              =   -2205.55229482 Ry
     estimated scf accuracy    <       0.00002483 Ry

     iteration # 14     ecut=    80.00 Ry     beta= 0.70
     Davidson diagonalization with overlap
     ethr =  8.09E-09,  avg # of iterations =  5.0

     negative rho (up, down):  9.145E-04 0.000E+00

     total cpu time spent up to now is       73.5 secs

     total energy              =   -2205.55229240 Ry
     estimated scf accuracy    <       0.00000891 Ry

     iteration # 15     ecut=    80.00 Ry     beta= 0.70
     Davidson diagonalization with overlap
     ethr =  2.90E-09,  avg # of iterations =  3.0

     negative rho (up, down):  3.939E-04 0.000E+00

     total cpu time spent up to now is       81.9 secs

     total energy              =   -2205.55229494 Ry
     estimated scf accuracy    <       0.00000259 Ry

     iteration # 16     ecut=    80.00 Ry     beta= 0.70
     Davidson diagonalization with overlap
     ethr =  8.44E-10,  avg # of iterations =  2.0

     negative rho (up, down):  2.621E-04 0.000E+00

     total cpu time spent up to now is       91.6 secs

     total energy              =   -2205.55229743 Ry
     estimated scf accuracy    <       0.00000110 Ry

     iteration # 17     ecut=    80.00 Ry     beta= 0.70
     Davidson diagonalization with overlap
     ethr =  3.57E-10,  avg # of iterations =  2.0

     negative rho (up, down):  1.367E-04 0.000E+00

     total cpu time spent up to now is       93.5 secs

     End of self-consistent calculation

          k = 0.0000 0.0000 0.0000 (105382 PWs)   bands (ev):

   -62.8148 -62.8015 -62.7898 -62.7864 -62.7739 -62.7622 -62.7508 -62.7460
   -62.7102 -62.6209 -62.6019 -62.5178 -37.1500 -37.0885 -37.0778 -37.0535
   -37.0454 -37.0259 -37.0248 -37.0121 -36.9975 -36.9851 -36.9833 -36.9695
   -36.9594 -36.9578 -36.9492 -36.9425 -36.9316 -36.9293 -36.9257 -36.9157
   -36.8897 -36.8778 -36.8471 -36.8393 -36.8292 -36.8140 -36.8028 -36.7789
   -36.7716 -36.7598 -36.7360 -36.7262 -36.6984 -36.6642 -36.5645 -36.5459
   -16.4206 -15.7343 -15.1022 -14.9772 -14.8453 -14.7795 -14.6264 -14.4149
   -14.3920 -14.3483 -14.2950 -14.2586 -14.2396 -14.1987 -14.1190 -14.0737
   -14.0341 -14.0238 -13.9482 -13.8343 -13.7802 -13.7520 -13.7192  -9.1831
    -7.6340  -7.4214  -7.3054  -7.2236  -7.1714  -7.1072  -7.0979  -7.0155
    -6.7802  -6.7455  -6.7138  -6.6186  -6.5422  -6.4820  -6.4079  -6.3446
    -6.3040  -6.1820  -6.0859  -5.8974  -5.8496  -5.8017  -5.7871  -5.7000
    -5.6749  -5.6706  -5.6110  -5.5935  -5.5511  -5.4687  -5.4477  -5.4254
    -5.4032  -5.3686  -5.1022  -5.0777  -5.0449  -4.9550  -4.8941  -4.8461
    -4.8431  -4.7894  -4.6307  -4.5327  -4.4127  -4.2284  -4.2217  -4.1642
    -4.1567  -3.9704  -3.9477  -3.9114  -3.7442  -3.7060  -3.6703  -3.6466
    -3.6007  -3.5231  -3.4667  -3.4285  -3.4232  -3.3969  -3.3505  -3.3252
    -3.2864  -3.1758  -3.0674  -2.8107  -2.8080  -2.7331  -2.7067  -2.6724
    -2.6339  -2.6092  -2.5860  -2.5278  -2.4878  -2.1977  -1.9375  -1.9125
    -1.8661  -0.7226  -0.6277  -0.5667  -0.1063  -0.0648  -0.0167   0.0315
     0.1641   0.2178   0.2230   0.3193   0.3370   0.3560   0.4124   0.4996
     0.5822   0.5920   0.6124   0.6578   0.7010   0.7520   0.7962   0.8148
     0.8693   0.8829   0.9060   0.9729   0.9906   1.0662   1.1180   1.2938
     1.4375

     the Fermi energy is    -0.7528 ev

!    total energy              =   -2205.55229670 Ry
     estimated scf accuracy    <       0.00000046 Ry
     smearing contrib. (-TS)   =      -0.00866211 Ry
     internal energy E=F+TS    =   -2205.54363459 Ry

     The total energy is F=E-TS. E is the sum of the following terms:
     one-electron contribution =  -18047.74863898 Ry
     hartree contribution      =    9011.36447054 Ry
     xc contribution           =    -385.36732280 Ry
     ewald contribution        =    7216.20785665 Ry

     convergence has been achieved in  17 iterations

     negative rho (up, down):  1.367E-04 0.000E+00

     Forces acting on atoms (cartesian axes, Ry/au):

     atom    1 type  1   force =     0.01488882   -0.02498878    0.00175398
     atom    2 type  2   force =    -0.01396157    0.01493826    0.00247429
     atom    3 type  2   force =    -0.01160452    0.01049600   -0.00288805
     atom    4 type  1   force =     0.00533718   -0.01221139   -0.00019736
     atom    5 type  2   force =    -0.00227409   -0.00587684   -0.00468069
     atom    6 type  2   force =     0.00394854    0.01021179    0.00213053
     atom    7 type  1   force =    -0.01120809    0.00594939   -0.02234273
     atom    8 type  2   force =    -0.02071758   -0.02362169   -0.00192222
     atom    9 type  2   force =     0.01481974    0.00523639    0.01349199
     atom   10 type  1   force =    -0.01223644    0.00716782   -0.02630576
     atom   11 type  2   force =     0.00363963   -0.00025762   -0.00432940
     atom   12 type  2   force =    -0.00156428    0.00060403    0.00649945
     atom   13 type  1   force =     0.00656543    0.00582496   -0.00717299
     atom   14 type  2   force =     0.00762674   -0.00006207    0.01089901
     atom   15 type  2   force =    -0.01162318    0.00216789   -0.00855745
     atom   16 type  1   force =     0.00191439    0.00627981   -0.00004212
     atom   17 type  2   force =     0.00519798    0.00112773    0.00136637
     atom   18 type  2   force =    -0.00443727   -0.00613472    0.01527786
     atom   19 type  1   force =     0.00766124   -0.00647373   -0.00195949
     atom   20 type  2   force =     0.00430179   -0.00467998    0.00144818
     atom   21 type  1   force =    -0.00424920    0.00565848    0.00020348
     atom   22 type  2   force =    -0.00234692   -0.00063312   -0.00223421
     atom   23 type  2   force =    -0.00014244    0.00238918    0.00952962
     atom   24 type  1   force =    -0.01167969   -0.00129571   -0.02146603
     atom   25 type  2   force =     0.01560095    0.01826691    0.00751797
     atom   26 type  2   force =    -0.01118063   -0.00113536   -0.00419201
     atom   27 type  1   force =    -0.00771999   -0.00326334    0.00913119
     atom   28 type  2   force =     0.00458877   -0.00339609   -0.00569245
     atom   29 type  2   force =     0.00290709   -0.00062577   -0.00313779
     atom   30 type  1   force =     0.02100497    0.02517181   -0.01271205
     atom   31 type  2   force =     0.00863336    0.00099624    0.01272398
     atom   32 type  2   force =    -0.01391709    0.00839518    0.00972915
     atom   33 type  1   force =     0.01370938   -0.00572781   -0.00710740
     atom   34 type  2   force =     0.00582112   -0.03536488   -0.01071462
     atom   35 type  2   force =    -0.00850987    0.00434736    0.01453652
     atom   36 type  3   force =     0.00120573    0.00051969    0.02894128
     The non-local contrib.  to forces
     atom    1 type  1   force =    -0.00719434    0.03135478   -0.01366282
     atom    2 type  2   force =    -0.00881004    0.00047297   -0.26928629
     atom    3 type  2   force =    -0.01462830   -0.00406514    0.27164874
     atom    4 type  1   force =    -0.00332742    0.00545753   -0.00257415
     atom    5 type  2   force =     0.00584630   -0.02268261   -0.24328110
     atom    6 type  2   force =     0.00417923    0.01175124    0.26373969
     atom    7 type  1   force =    -0.03701507    0.00021770   -0.01405423
     atom    8 type  2   force =    -0.15998525   -0.03652785    0.14547039
     atom    9 type  2   force =     0.01081828   -0.00955549    0.28612164
     atom   10 type  1   force =     0.00194250    0.00515582   -0.00024404
     atom   11 type  2   force =     0.01056387   -0.00224071   -0.25119239
     atom   12 type  2   force =    -0.01321718   -0.01654496    0.26260288
     atom   13 type  1   force =     0.00004144    0.02095625   -0.00798958
     atom   14 type  2   force =     0.01281658   -0.01049749   -0.26248863
     atom   15 type  2   force =    -0.01328301   -0.00567209    0.26186631
     atom   16 type  1   force =    -0.00146431    0.03947043   -0.01705780
     atom   17 type  2   force =     0.00044311   -0.02801325   -0.24673470
     atom   18 type  2   force =    -0.00555051   -0.00344219    0.27287776
     atom   19 type  1   force =     0.02531291   -0.00746865   -0.01620987
     atom   20 type  2   force =     0.00042493   -0.01764159    0.26323223
     atom   21 type  1   force =     0.00048731    0.02124652    0.00624496
     atom   22 type  2   force =    -0.00823408    0.00393229   -0.25809244
     atom   23 type  2   force =     0.00610856   -0.01249956    0.26835052
     atom   24 type  1   force =     0.00743416    0.01180599   -0.01233749
     atom   25 type  2   force =     0.00675052    0.00382527   -0.25825361
     atom   26 type  2   force =    -0.00337660   -0.01349291    0.26361119
     atom   27 type  1   force =     0.00484151    0.00687837    0.00909372
     atom   28 type  2   force =    -0.00669977   -0.02388249   -0.26722720
     atom   29 type  2   force =     0.00696981    0.00016516    0.26373818
     atom   30 type  1   force =     0.00494892    0.01255532   -0.00679994
     atom   31 type  2   force =    -0.00353079   -0.00051039   -0.24776768
     atom   32 type  2   force =    -0.00969301   -0.00500006    0.27331205
     atom   33 type  1   force =    -0.00258279    0.01210999    0.00575731
     atom   34 type  2   force =     0.00396525   -0.03408337   -0.26585419
     atom   35 type  2   force =    -0.00104827   -0.01710752    0.27409137
     atom   36 type  3   force =     0.03588556    0.01359603   -0.05135101
     The ionic contribution  to forces
     atom    1 type  1   force =     0.35277632    0.08927798    5.64153586
     atom    2 type  2   force =    -0.64641742    0.38805699   39.27907672
     atom    3 type  2   force =    -0.15726840    0.01039199  -36.08671723
     atom    4 type  1   force =     0.25184006    0.22364737    0.14064666
     atom    5 type  2   force =    -1.10107479    1.11915733   38.60412438
     atom    6 type  2   force =     0.33181343   -0.54848423  -38.07438316
     atom    7 type  1   force =    -2.82737870   -2.47723922    1.94941639
     atom    8 type  2   force =    -0.01010177    0.39824153   35.91490133
     atom    9 type  2   force =     0.36327592   -0.02688280  -38.11125002
     atom   10 type  1   force =    -1.05304283   -0.12223992    5.57928318
     atom   11 type  2   force =    -0.64366028   -1.33063513   39.06350442
     atom   12 type  2   force =     0.43166975    0.73947237  -37.89028325
     atom   13 type  1   force =     0.45142293    0.92181827    2.85948629
     atom   14 type  2   force =     0.02954171   -0.01896354   38.52053000
     atom   15 type  2   force =     0.14614593   -0.06878287  -36.79965182
     atom   16 type  1   force =    -0.24468034    3.77350068    0.24831097
     atom   17 type  2   force =     0.76194949    1.42654562   37.91939224
     atom   18 type  2   force =    -0.17216855   -0.67042117  -38.57384420
     atom   19 type  1   force =     2.62049170   -2.36425320    0.55178564
     atom   20 type  2   force =     0.19095423   -0.19023524  -38.53735674
     atom   21 type  1   force =    -0.03782147    0.18019537    1.12553026
     atom   22 type  2   force =     0.41642945   -1.64328111   38.42387522
     atom   23 type  2   force =    -0.09599022    0.69072712  -38.29224822
     atom   24 type  1   force =    -0.48684506    1.04269492    5.81926756
     atom   25 type  2   force =     0.67095930    0.27493343   39.27665771
     atom   26 type  2   force =    -0.28336812    0.06068544  -37.32083478
     atom   27 type  1   force =     0.10733515    0.31313658   -2.33761283
     atom   28 type  2   force =     0.19272472    0.84302317   38.15654767
     atom   29 type  2   force =    -0.24013528   -0.46466821  -37.29431791
     atom   30 type  1   force =    -0.07348707   -0.74163076   -0.31649067
     atom   31 type  2   force =     1.31135199   -0.04104852   37.29246583
     atom   32 type  2   force =    -0.46449339   -0.00112979  -38.66084024
     atom   33 type  1   force =     0.82746692   -0.77166250    2.06575779
     atom   34 type  2   force =     0.33296499   -1.30627577   39.32921332
     atom   35 type  2   force =    -0.27917570    0.51314808  -37.83303337
     atom   36 type  3   force =    -0.97400458   -0.22082024    8.36755502
     The local contribution  to forces
     atom    1 type  1   force =    -0.33055287   -0.14570766   -5.62533538
     atom    2 type  2   force =     0.64109381   -0.37355842  -39.02749969
     atom    3 type  2   force =     0.15964927    0.00405243   35.83328596
     atom    4 type  1   force =    -0.24302093   -0.24125848   -0.13744727
     atom    5 type  2   force =     1.09384617   -1.10334970  -38.38458569
     atom    6 type  2   force =    -0.33185828    0.54799200   37.83374664
     atom    7 type  1   force =     2.85326845    2.48295819   -1.95677945
     atom    8 type  2   force =     0.13851672   -0.38860619  -36.05778607
     atom    9 type  2   force =    -0.35882529    0.04109773   37.86032306
     atom   10 type  1   force =     1.03892194    0.12422647   -5.60455546
     atom   11 type  2   force =     0.63745800    1.33253083  -38.83614115
     atom   12 type  2   force =    -0.42113588   -0.72360730   37.65509794
     atom   13 type  1   force =    -0.44495484   -0.93710565   -2.85791200
     atom   14 type  2   force =    -0.03404498    0.02934203  -38.26726231
     atom   15 type  2   force =    -0.14517892    0.07623090   36.54996080
     atom   16 type  1   force =     0.24815307   -3.80656817   -0.23047609
     atom   17 type  2   force =    -0.75732722   -1.39892709  -37.69075260
     atom   18 type  2   force =     0.17301133    0.66811619   38.33726557
     atom   19 type  1   force =    -2.63816809    2.36527058   -0.53669628
     atom   20 type  2   force =    -0.18714309    0.20262593   38.29673841
     atom   21 type  1   force =     0.03311854   -0.19569101   -1.13083348
     atom   22 type  2   force =    -0.41083831    1.63923892  -38.18794254
     atom   23 type  2   force =     0.09019960   -0.67690455   38.05444041
     atom   24 type  1   force =     0.46767896   -1.05584320   -5.82762427
     atom   25 type  2   force =    -0.66218769   -0.26019557  -39.03095171
     atom   26 type  2   force =     0.27563494   -0.04910606   37.07403299
     atom   27 type  1   force =    -0.12014188   -0.32323150    2.33838794
     atom   28 type  2   force =    -0.18196684   -0.82409988  -37.91499817
     atom   29 type  2   force =     0.23660429    0.46434843   37.04819445
     atom   30 type  1   force =     0.08944797    0.75423948    0.31141166
     atom   31 type  2   force =    -1.29975417    0.04249768  -37.05167314
     atom   32 type  2   force =     0.45988150    0.01417719   38.41840475
     atom   33 type  1   force =    -0.81127117    0.75384299   -2.07787655
     atom   34 type  2   force =    -0.33137488    1.30375610  -39.09429495
     atom   35 type  2   force =     0.27184253   -0.49303253   37.59488821
     atom   36 type  3   force =     0.93934558    0.20774581   -8.28720150
     The core correction contribution to forces
     atom    1 type  1   force =     0.00000000    0.00000000    0.00000000
     atom    2 type  2   force =     0.00017969   -0.00004656    0.02066035
     atom    3 type  2   force =     0.00064352    0.00010456   -0.02095505
     atom    4 type  1   force =     0.00000000    0.00000000    0.00000000
     atom    5 type  2   force =    -0.00081609    0.00098902    0.01960525
     atom    6 type  2   force =    -0.00010842   -0.00111109   -0.02088142
     atom    7 type  1   force =     0.00000000    0.00000000    0.00000000
     atom    8 type  2   force =     0.01094329    0.00330652   -0.00400298
     atom    9 type  2   force =    -0.00036058    0.00058600   -0.02152819
     atom   10 type  1   force =     0.00000000    0.00000000    0.00000000
     atom   11 type  2   force =    -0.00066362    0.00006857    0.02000323
     atom   12 type  2   force =     0.00116586    0.00133634   -0.02078496
     atom   13 type  1   force =     0.00000000    0.00000000    0.00000000
     atom   14 type  2   force =    -0.00067820    0.00002924    0.02061358
     atom   15 type  2   force =     0.00070907    0.00036690   -0.02059994
     atom   16 type  1   force =     0.00000000    0.00000000    0.00000000
     atom   17 type  2   force =     0.00010074    0.00147859    0.02001910
     atom   18 type  2   force =     0.00021830   -0.00045736   -0.02095506
     atom   19 type  1   force =     0.00000000    0.00000000    0.00000000
     atom   20 type  2   force =     0.00009260    0.00059004   -0.02107421
     atom   21 type  1   force =     0.00000000    0.00000000    0.00000000
     atom   22 type  2   force =     0.00026063   -0.00050039    0.02043108
     atom   23 type  2   force =    -0.00049698    0.00113035   -0.02089760
     atom   24 type  1   force =     0.00000000    0.00000000    0.00000000
     atom   25 type  2   force =     0.00005738   -0.00032870    0.02055931
     atom   26 type  2   force =    -0.00009616    0.00075038   -0.02086484
     atom   27 type  1   force =     0.00000000    0.00000000    0.00000000
     atom   28 type  2   force =     0.00048410    0.00158464    0.02047868
     atom   29 type  2   force =    -0.00056100   -0.00049724   -0.02060912
     atom   30 type  1   force =     0.00000000    0.00000000    0.00000000
     atom   31 type  2   force =     0.00045175    0.00009411    0.02018640
     atom   32 type  2   force =     0.00027760    0.00037502   -0.02100023
     atom   33 type  1   force =     0.00000000    0.00000000    0.00000000
     atom   34 type  2   force =     0.00024402    0.00117655    0.02068471
     atom   35 type  2   force =    -0.00013360    0.00132073   -0.02122722
     atom   36 type  3   force =     0.00000000    0.00000000    0.00000000
     The Hubbard contrib.    to forces
     atom    1 type  1   force =     0.00000000    0.00000000    0.00000000
     atom    2 type  2   force =     0.00000000    0.00000000    0.00000000
     atom    3 type  2   force =     0.00000000    0.00000000    0.00000000
     atom    4 type  1   force =     0.00000000    0.00000000    0.00000000
     atom    5 type  2   force =     0.00000000    0.00000000    0.00000000
     atom    6 type  2   force =     0.00000000    0.00000000    0.00000000
     atom    7 type  1   force =     0.00000000    0.00000000    0.00000000
     atom    8 type  2   force =     0.00000000    0.00000000    0.00000000
     atom    9 type  2   force =     0.00000000    0.00000000    0.00000000
     atom   10 type  1   force =     0.00000000    0.00000000    0.00000000
     atom   11 type  2   force =     0.00000000    0.00000000    0.00000000
     atom   12 type  2   force =     0.00000000    0.00000000    0.00000000
     atom   13 type  1   force =     0.00000000    0.00000000    0.00000000
     atom   14 type  2   force =     0.00000000    0.00000000    0.00000000
     atom   15 type  2   force =     0.00000000    0.00000000    0.00000000
     atom   16 type  1   force =     0.00000000    0.00000000    0.00000000
     atom   17 type  2   force =     0.00000000    0.00000000    0.00000000
     atom   18 type  2   force =     0.00000000    0.00000000    0.00000000
     atom   19 type  1   force =     0.00000000    0.00000000    0.00000000
     atom   20 type  2   force =     0.00000000    0.00000000    0.00000000
     atom   21 type  1   force =     0.00000000    0.00000000    0.00000000
     atom   22 type  2   force =     0.00000000    0.00000000    0.00000000
     atom   23 type  2   force =     0.00000000    0.00000000    0.00000000
     atom   24 type  1   force =     0.00000000    0.00000000    0.00000000
     atom   25 type  2   force =     0.00000000    0.00000000    0.00000000
     atom   26 type  2   force =     0.00000000    0.00000000    0.00000000
     atom   27 type  1   force =     0.00000000    0.00000000    0.00000000
     atom   28 type  2   force =     0.00000000    0.00000000    0.00000000
     atom   29 type  2   force =     0.00000000    0.00000000    0.00000000
     atom   30 type  1   force =     0.00000000    0.00000000    0.00000000
     atom   31 type  2   force =     0.00000000    0.00000000    0.00000000
     atom   32 type  2   force =     0.00000000    0.00000000    0.00000000
     atom   33 type  1   force =     0.00000000    0.00000000    0.00000000
     atom   34 type  2   force =     0.00000000    0.00000000    0.00000000
     atom   35 type  2   force =     0.00000000    0.00000000    0.00000000
     atom   36 type  3   force =     0.00000000    0.00000000    0.00000000
     The SCF correction term to forces
     atom    1 type  1   force =    -0.00014052    0.00008219   -0.00075386
     atom    2 type  2   force =    -0.00000783    0.00000937   -0.00044698
     atom    3 type  2   force =    -0.00000084    0.00000825   -0.00012067
     atom    4 type  1   force =    -0.00015475   -0.00006174   -0.00079279
     atom    5 type  2   force =    -0.00007589    0.00000519   -0.00051370
     atom    6 type  2   force =    -0.00007765    0.00005995   -0.00006140
     atom    7 type  1   force =    -0.00008299    0.00000879   -0.00089563
     atom    8 type  2   force =    -0.00009079   -0.00003964   -0.00047508
     atom    9 type  2   force =    -0.00008881   -0.00001297   -0.00014469
     atom   10 type  1   force =    -0.00005829    0.00002152   -0.00075963
     atom   11 type  2   force =    -0.00005856    0.00001490   -0.00047370
     atom   12 type  2   force =    -0.00004707   -0.00005633   -0.00010335
     atom   13 type  1   force =     0.00005568    0.00015217   -0.00072788
     atom   14 type  2   force =    -0.00000859    0.00002376   -0.00046382
     atom   15 type  2   force =    -0.00001649    0.00002111   -0.00010299
     atom   16 type  1   force =    -0.00009425   -0.00012705   -0.00078939
     atom   17 type  2   force =     0.00003163    0.00003993   -0.00052785
     atom   18 type  2   force =     0.00005194    0.00006588   -0.00003640
     atom   19 type  1   force =     0.00002449   -0.00002639   -0.00080917
     atom   20 type  2   force =    -0.00002711   -0.00002305   -0.00006170
     atom   21 type  1   force =    -0.00003381   -0.00009633   -0.00070844
     atom   22 type  2   force =     0.00003517   -0.00002674   -0.00047572
     atom   23 type  2   force =     0.00003637   -0.00006810   -0.00008569
     atom   24 type  1   force =     0.00005203    0.00004265   -0.00074202
     atom   25 type  2   force =     0.00002121    0.00002855   -0.00046391
     atom   26 type  2   force =     0.00002508    0.00002387   -0.00010675
     atom   27 type  1   force =     0.00024501   -0.00005071   -0.00070783
     atom   28 type  2   force =     0.00004632   -0.00002545   -0.00046361
     atom   29 type  2   force =     0.00002904    0.00002216   -0.00011357
     atom   30 type  1   force =     0.00009492    0.00000385   -0.00080328
     atom   31 type  2   force =     0.00011434   -0.00004057   -0.00045760
     atom   32 type  2   force =     0.00010997   -0.00003111   -0.00011736
     atom   33 type  1   force =     0.00009619   -0.00002222   -0.00071614
     atom   34 type  2   force =     0.00002151    0.00005769   -0.00043370
     atom   35 type  2   force =     0.00000495    0.00001467   -0.00015265
     atom   36 type  3   force =    -0.00002107   -0.00000582   -0.00003142

     Total force =     0.111295     Total SCF correction =     0.003164

     BFGS Geometry Optimization
     Energy error            =      0.0E+00 Ry
     Gradient error          =      3.5E-02 Ry/Bohr

     number of scf cycles    =   1
     number of bfgs steps    =   0

     energy             new  =   -2205.5522966972 Ry

     new trust radius        =       0.0374080601 bohr
     new conv_thr            =       0.0000010000 Ry


ATOMIC_POSITIONS (angstrom)
Mo            6.5824272321        1.7745827355        2.8245712005
S             8.1693211950        0.8176090138        4.4358476912
S             8.1870922383        0.8167959900        1.2763551363
Mo            8.0979868810        4.4885949575        2.7177139532
S             6.4987058617        3.7193015958        4.3441837366
S             6.5554392750        3.5171414007        1.1224076547
Mo            6.4840506307        7.2215855631        2.6600612225
S             8.0707644588        6.3313709321        4.2414443673
S             8.0887599165        6.3074732959        1.0910026497
Mo            8.1541438016        9.9059734592        2.8295413498
S             6.4970936063        8.9427904878        4.3808145117
S             6.6171194179        9.0490308532        1.1433466630
Mo            3.4251339389        1.7500382851        2.7726753783
S             4.9792013880        0.8169083634        4.3563005994
S             5.0516830297        0.8474093050        1.2221300541
Mo            4.9807697352        4.5165011336        2.6328622604
S             3.4305923144        3.6721964548        4.2804326329
S             3.4355724807        3.5449823436        1.0664363766
Mo            3.4579158937        7.2128987860        2.6296399418
S             4.9855106025        6.3244557467        1.0380200750
Mo            5.0100153380        9.9045943886        2.7435086375
S             3.4697161831        8.9434162368        4.3244090175
S             3.4083537888        9.0662542815        1.1011111567
Mo            0.2899098609        1.7468238713        2.8380853762
S             1.8587178808        0.8023604379        4.4021877758
S             1.8548834985        0.8538251115        1.2071825360
Mo            1.8566060682        4.4939398779        2.6650293951
S             0.2746421199        3.6526016941        4.3345717847
S             0.2327695725        3.5269180820        1.1703574355
Mo            0.2822675030        7.2299664413        2.6949695013
S             1.9068068273        6.3133260228        4.2291773626
S             1.8548736081        6.3147863506        1.0497077301
Mo            1.8516013519        9.9371081252        2.7691851770
S             0.2989933012        9.0712835406        4.4081995331
S             0.2722681694        9.0458262369        1.1580931732
H             7.3558958202        6.0718861199        5.3647597722



     Writing config-only to output data dir ./MoS2-V-O.save/
     NEW-OLD atomic charge density approx. for the potential

     negative rho (up, down):  1.405E-04 0.000E+00

     total cpu time spent up to now is       96.8 secs

     Self-consistent Calculation

     iteration #  1     ecut=    80.00 Ry     beta= 0.70
     Davidson diagonalization with overlap
     ethr =  1.00E-06,  avg # of iterations =  8.0

     negative rho (up, down):  1.227E-04 0.000E+00

     total cpu time spent up to now is      115.7 secs

     total energy              =   -2205.56230845 Ry
     estimated scf accuracy    <       0.00091490 Ry

     iteration #  2     ecut=    80.00 Ry     beta= 0.70
     Davidson diagonalization with overlap
     ethr =  2.98E-07,  avg # of iterations =  2.0

     negative rho (up, down):  1.214E-04 0.000E+00

     total cpu time spent up to now is      130.3 secs

     total energy              =   -2205.56233396 Ry
     estimated scf accuracy    <       0.00025917 Ry

     iteration #  3     ecut=    80.00 Ry     beta= 0.70
     Davidson diagonalization with overlap
     ethr =  8.44E-08,  avg # of iterations =  2.0

     negative rho (up, down):  1.183E-04 0.000E+00

     total cpu time spent up to now is      142.3 secs

     total energy              =   -2205.56235752 Ry
     estimated scf accuracy    <       0.00011316 Ry

     iteration #  4     ecut=    80.00 Ry     beta= 0.70
     Davidson diagonalization with overlap
     ethr =  3.69E-08,  avg # of iterations =  6.0

     negative rho (up, down):  1.179E-04 0.000E+00

     total cpu time spent up to now is      158.1 secs

     total energy              =   -2205.56237247 Ry
     estimated scf accuracy    <       0.00000514 Ry

     iteration #  5     ecut=    80.00 Ry     beta= 0.70
     Davidson diagonalization with overlap
     ethr =  1.67E-09,  avg # of iterations =  6.0

     negative rho (up, down):  1.176E-04 0.000E+00

     total cpu time spent up to now is      175.2 secs

     total energy              =   -2205.56237575 Ry
     estimated scf accuracy    <       0.00000284 Ry

     iteration #  6     ecut=    80.00 Ry     beta= 0.70
     Davidson diagonalization with overlap
     ethr =  9.26E-10,  avg # of iterations =  2.0

     negative rho (up, down):  1.369E-04 0.000E+00

     total cpu time spent up to now is      177.1 secs

     End of self-consistent calculation

          k = 0.0000 0.0000 0.0000 (105382 PWs)   bands (ev):

   -62.8168 -62.8020 -62.7903 -62.7842 -62.7728 -62.7586 -62.7509 -62.7463
   -62.7149 -62.6203 -62.6022 -62.5143 -37.1503 -37.0879 -37.0786 -37.0526
   -37.0462 -37.0285 -37.0238 -37.0147 -36.9946 -36.9846 -36.9835 -36.9696
   -36.9580 -36.9574 -36.9463 -36.9427 -36.9320 -36.9301 -36.9259 -36.9162
   -36.8948 -36.8788 -36.8485 -36.8385 -36.8286 -36.8140 -36.8039 -36.7798
   -36.7732 -36.7614 -36.7376 -36.7273 -36.6956 -36.6622 -36.5632 -36.5454
   -16.3901 -15.7300 -15.1102 -14.9794 -14.8349 -14.7890 -14.6246 -14.4163
   -14.3880 -14.3520 -14.3052 -14.2601 -14.2403 -14.2018 -14.1247 -14.0810
   -14.0332 -14.0278 -13.9555 -13.8334 -13.7746 -13.7576 -13.7374  -9.1407
    -7.6292  -7.4193  -7.3085  -7.2218  -7.1662  -7.1203  -7.1063  -7.0226
    -6.7747  -6.7565  -6.7161  -6.6263  -6.5362  -6.4856  -6.4038  -6.3460
    -6.3054  -6.1856  -6.0900  -5.8951  -5.8521  -5.8061  -5.7883  -5.7050
    -5.6811  -5.6694  -5.6194  -5.6016  -5.5600  -5.4775  -5.4525  -5.4267
    -5.3868  -5.3652  -5.0954  -5.0621  -5.0355  -4.9689  -4.8924  -4.8555
    -4.8483  -4.8001  -4.6336  -4.5380  -4.4163  -4.2326  -4.2216  -4.1654
    -4.1647  -3.9749  -3.9503  -3.9234  -3.7450  -3.7042  -3.6732  -3.6550
    -3.5995  -3.5266  -3.4645  -3.4514  -3.4296  -3.3962  -3.3534  -3.3285
    -3.2861  -3.1802  -3.0746  -2.8142  -2.8027  -2.7245  -2.7080  -2.6701
    -2.6345  -2.6141  -2.5986  -2.5246  -2.4939  -2.1909  -1.9421  -1.9102
    -1.8874  -0.7319  -0.6273  -0.5559  -0.1000  -0.0544  -0.0331   0.0409
     0.1657   0.2146   0.2284   0.3368   0.3502   0.3661   0.4146   0.4957
     0.5914   0.6010   0.6127   0.6602   0.7041   0.7628   0.7851   0.8190
     0.8564   0.8775   0.9152   0.9647   1.0093   1.0715   1.1216   1.2966
     1.4332

     the Fermi energy is    -0.7577 ev

!    total energy              =   -2205.56237574 Ry
     estimated scf accuracy    <       0.00000050 Ry
     smearing contrib. (-TS)   =      -0.00832279 Ry
     internal energy E=F+TS    =   -2205.55405295 Ry

     The total energy is F=E-TS. E is the sum of the following terms:
     one-electron contribution =  -18051.42527812 Ry
     hartree contribution      =    9013.21765139 Ry
     xc contribution           =    -385.38212728 Ry
     ewald contribution        =    7218.03570107 Ry

     convergence has been achieved in   6 iterations

     negative rho (up, down):  1.369E-04 0.000E+00

     Forces acting on atoms (cartesian axes, Ry/au):

     atom    1 type  1   force =     0.00382792   -0.01332741   -0.00140629
     atom    2 type  2   force =    -0.00864914    0.00906706   -0.00021801
     atom    3 type  2   force =    -0.01040031    0.00794073   -0.00917721
     atom    4 type  1   force =     0.00512312   -0.01116286    0.00005619
     atom    5 type  2   force =    -0.00136957   -0.00755231   -0.00491906
     atom    6 type  2   force =     0.00333581    0.00579796    0.00283953
     atom    7 type  1   force =    -0.00714226    0.00472521   -0.00929138
     atom    8 type  2   force =    -0.01728861   -0.01660165   -0.00316506
     atom    9 type  2   force =     0.01439658    0.00450346    0.01052922
     atom   10 type  1   force =    -0.00447572    0.00577322   -0.00880019
     atom   11 type  2   force =     0.00256177   -0.00060469   -0.00684657
     atom   12 type  2   force =    -0.00377201    0.00220646   -0.00083657
     atom   13 type  1   force =     0.00464190    0.00308078   -0.00258988
     atom   14 type  2   force =     0.00569061   -0.00000586    0.00732333
     atom   15 type  2   force =    -0.00808054    0.00171008   -0.00738536
     atom   16 type  1   force =     0.00118718    0.00385518    0.00042530
     atom   17 type  2   force =     0.00484869    0.00113171    0.00104456
     atom   18 type  2   force =    -0.00373927   -0.00350222    0.01230209
     atom   19 type  1   force =     0.00707318   -0.00487523    0.00134140
     atom   20 type  2   force =     0.00230426   -0.00473379   -0.00402821
     atom   21 type  1   force =    -0.00333830    0.00455652    0.00258187
     atom   22 type  2   force =    -0.00053482   -0.00082957   -0.00207424
     atom   23 type  2   force =     0.00104507    0.00085226    0.00509428
     atom   24 type  1   force =    -0.00594582   -0.00168220   -0.00909577
     atom   25 type  2   force =     0.01083650    0.01424926    0.00023812
     atom   26 type  2   force =    -0.00724776   -0.00130607   -0.00439508
     atom   27 type  1   force =    -0.00468205   -0.00073240    0.00802399
     atom   28 type  2   force =     0.00301131   -0.00481295   -0.00479739
     atom   29 type  2   force =     0.00219727    0.00027024   -0.00514361
     atom   30 type  1   force =     0.01034087    0.01046481    0.00059794
     atom   31 type  2   force =     0.00716071    0.00144758    0.00870089
     atom   32 type  2   force =    -0.00976398    0.00656139    0.00700530
     atom   33 type  1   force =     0.00618997   -0.00036873    0.00066533
     atom   34 type  2   force =     0.00300709   -0.02523226   -0.01440430
     atom   35 type  2   force =    -0.00517908    0.00788634    0.00591351
     atom   36 type  3   force =     0.00282944    0.00124995    0.02389137
     The non-local contrib.  to forces
     atom    1 type  1   force =    -0.00520885    0.02849841   -0.01446919
     atom    2 type  2   force =    -0.00541783   -0.00349468   -0.26923966
     atom    3 type  2   force =    -0.01237938   -0.00710999    0.26653522
     atom    4 type  1   force =    -0.00312400    0.00538225   -0.00344652
     atom    5 type  2   force =     0.00700483   -0.02449383   -0.24455669
     atom    6 type  2   force =     0.00367639    0.00754947    0.26498737
     atom    7 type  1   force =    -0.03901940   -0.00125853   -0.01530943
     atom    8 type  2   force =    -0.16091829   -0.03131827    0.14956651
     atom    9 type  2   force =     0.00999197   -0.00998302    0.28577133
     atom   10 type  1   force =     0.00030722    0.00434533   -0.00126569
     atom   11 type  2   force =     0.00860065   -0.00222062   -0.25277311
     atom   12 type  2   force =    -0.01408180   -0.01483976    0.25834289
     atom   13 type  1   force =     0.00088977    0.02241259   -0.00825982
     atom   14 type  2   force =     0.01160051   -0.01021568   -0.26432274
     atom   15 type  2   force =    -0.01030017   -0.00618505    0.26196301
     atom   16 type  1   force =    -0.00138839    0.04113888   -0.01769613
     atom   17 type  2   force =    -0.00012050   -0.02739111   -0.24721791
     atom   18 type  2   force =    -0.00487858   -0.00172713    0.27144648
     atom   19 type  1   force =     0.02587011   -0.00841277   -0.01760476
     atom   20 type  2   force =    -0.00100174   -0.01675395    0.25981325
     atom   21 type  1   force =    -0.00002793    0.02131006    0.00489708
     atom   22 type  2   force =    -0.00628704    0.00304767   -0.25844068
     atom   23 type  2   force =     0.00732499   -0.01395672    0.26582206
     atom   24 type  1   force =     0.00516709    0.01244720   -0.01186184
     atom   25 type  2   force =     0.00308640    0.00058214   -0.26285568
     atom   26 type  2   force =    -0.00069973   -0.01320613    0.26416078
     atom   27 type  1   force =     0.00379456    0.00616986    0.00812361
     atom   28 type  2   force =    -0.00742512   -0.02404379   -0.26668221
     atom   29 type  2   force =     0.00640990   -0.00109767    0.26271772
     atom   30 type  1   force =     0.00888623    0.01595164   -0.00800292
     atom   31 type  2   force =    -0.00383924   -0.00136521   -0.25023428
     atom   32 type  2   force =    -0.00609750   -0.00602997    0.27178219
     atom   33 type  1   force =    -0.00096222    0.01012522    0.00426355
     atom   34 type  2   force =     0.00173151   -0.02553877   -0.26871583
     atom   35 type  2   force =     0.00068390   -0.01369813    0.26871896
     atom   36 type  3   force =     0.03473682    0.01275402   -0.05151969
     The ionic contribution  to forces
     atom    1 type  1   force =     0.05169186    0.39470753    5.69492005
     atom    2 type  2   force =    -0.45988816    0.25593699   39.38465865
     atom    3 type  2   force =    -0.12526765    0.00904652  -36.21659683
     atom    4 type  1   force =     0.21286958    0.46533321    0.22009941
     atom    5 type  2   force =    -1.11429091    1.12446888   38.55047294
     atom    6 type  2   force =     0.27392615   -0.56630077  -38.00426838
     atom    7 type  1   force =    -2.50132843   -2.57655879    1.59710193
     atom    8 type  2   force =     0.01072739    0.49822397   35.78181615
     atom    9 type  2   force =     0.37508845   -0.07978930  -37.94095588
     atom   10 type  1   force =    -0.78528795   -0.21291902    5.31838218
     atom   11 type  2   force =    -0.55885143   -1.39051870   39.06286525
     atom   12 type  2   force =     0.38769484    0.72749905  -37.91853116
     atom   13 type  1   force =     0.38461784    0.88220568    2.79293590
     atom   14 type  2   force =    -0.03906484    0.01355120   38.60420531
     atom   15 type  2   force =     0.14663244   -0.01522879  -36.85467263
     atom   16 type  1   force =    -0.19795876    3.64509522    0.31531751
     atom   17 type  2   force =     0.76766124    1.41151933   37.92934866
     atom   18 type  2   force =    -0.16986423   -0.60396504  -38.48734631
     atom   19 type  1   force =     2.57545979   -2.43682861    0.58104122
     atom   20 type  2   force =     0.14659833   -0.24824583  -38.60828803
     atom   21 type  1   force =    -0.06906793    0.17980469    1.29111983
     atom   22 type  2   force =     0.41845533   -1.63992391   38.47288718
     atom   23 type  2   force =    -0.07987163    0.65601066  -38.28832661
     atom   24 type  1   force =    -0.21387670    0.85574218    5.53253218
     atom   25 type  2   force =     0.55146678    0.23255813   39.24440751
     atom   26 type  2   force =    -0.23957640    0.06063941  -37.28613218
     atom   27 type  1   force =     0.14357772    0.40996919   -2.04211661
     atom   28 type  2   force =     0.19121695    0.81185067   38.18234507
     atom   29 type  2   force =    -0.20088914   -0.38235403  -37.35109036
     atom   30 type  1   force =    -0.38392516   -1.08044826   -0.33228165
     atom   31 type  2   force =     1.24488686   -0.05457996   37.37058259
     atom   32 type  2   force =    -0.40885878   -0.10037696  -38.61772440
     atom   33 type  1   force =     0.64554785   -0.46864196    2.18631585
     atom   34 type  2   force =     0.22209947   -1.14691082   39.27397028
     atom   35 type  2   force =    -0.25482802    0.56805799  -37.80318362
     atom   36 type  3   force =    -0.94752274   -0.19862973    8.36418899
     The local contribution  to forces
     atom    1 type  1   force =    -0.04281167   -0.43702078   -5.68211031
     atom    2 type  2   force =     0.45659393   -0.24354423  -39.13652923
     atom    3 type  2   force =     0.12666857    0.00569384   35.96158343
     atom    4 type  1   force =    -0.20461882   -0.48201751   -0.21706210
     atom    5 type  2   force =     1.10667649   -1.10881069  -38.33081663
     atom    6 type  2   force =    -0.27420363    0.56536237   37.76292469
     atom    7 type  1   force =     2.53301281    2.58279043   -1.59154612
     atom    8 type  2   force =     0.12209435   -0.48648936  -35.93039439
     atom    9 type  2   force =    -0.37026717    0.09365529   37.68710678
     atom   10 type  1   force =     0.78058007    0.21464232   -5.32621435
     atom   11 type  2   force =     0.55341163    1.39233590  -38.83718793
     atom   12 type  2   force =    -0.37860598   -0.71148941   37.67982979
     atom   13 type  1   force =    -0.38064883   -0.90193638   -2.78751559
     atom   14 type  2   force =     0.03371890   -0.00337528  -38.35346654
     atom   15 type  2   force =    -0.14505259    0.02269817   36.60582043
     atom   16 type  1   force =     0.20043933   -3.68266206   -0.29751260
     atom   17 type  2   force =    -0.76276162   -1.38461499  -37.70133345
     atom   18 type  2   force =     0.17083792    0.60257568   38.24909827
     atom   19 type  1   force =    -2.59438786    2.44049585   -0.56237478
     atom   20 type  2   force =    -0.14354400    0.25972219   38.36522994
     atom   21 type  1   force =     0.06540609   -0.19608721   -1.29377167
     atom   22 type  2   force =    -0.41294913    1.63665876  -38.23725613
     atom   23 type  2   force =     0.07417475   -0.64226788   38.04842717
     atom   24 type  1   force =     0.20292332   -0.87052746   -5.53012199
     atom   25 type  2   force =    -0.54386782   -0.21876896  -39.00226139
     atom   26 type  2   force =     0.23323040   -0.04953050   37.03846364
     atom   27 type  1   force =    -0.15203571   -0.41677585    2.04172489
     atom   28 type  2   force =    -0.18118995   -0.79431672  -37.94118210
     atom   29 type  2   force =     0.19724879    0.38403744   37.10362402
     atom   30 type  1   force =     0.38574473    1.07530987    0.34057359
     atom   31 type  2   force =    -1.23426106    0.05732841  -37.13212024
     atom   32 type  2   force =     0.40509117    0.11261417   38.37386644
     atom   33 type  1   force =    -0.63827058    0.45848031   -2.19012354
     atom   34 type  2   force =    -0.22108703    1.14651398  -39.04069711
     atom   35 type  2   force =     0.24920753   -0.54751484   37.56146227
     atom   36 type  3   force =     0.91561725    0.18713672   -8.28879013
     The core correction contribution to forces
     atom    1 type  1   force =     0.00000000    0.00000000    0.00000000
     atom    2 type  2   force =     0.00014142    0.00003308    0.02070432
     atom    3 type  2   force =     0.00054901    0.00024814   -0.02085898
     atom    4 type  1   force =     0.00000000    0.00000000    0.00000000
     atom    5 type  2   force =    -0.00089309    0.00104823    0.01961958
     atom    6 type  2   force =    -0.00012560   -0.00094792   -0.02088499
     atom    7 type  1   force =     0.00000000    0.00000000    0.00000000
     atom    8 type  2   force =     0.01095149    0.00306378   -0.00442091
     atom    9 type  2   force =    -0.00028587    0.00055413   -0.02148322
     atom   10 type  1   force =     0.00000000    0.00000000    0.00000000
     atom   11 type  2   force =    -0.00051350    0.00003737    0.02004977
     atom   12 type  2   force =     0.00114449    0.00129107   -0.02067061
     atom   13 type  1   force =     0.00000000    0.00000000    0.00000000
     atom   14 type  2   force =    -0.00066855    0.00004678    0.02068814
     atom   15 type  2   force =     0.00059679    0.00041392   -0.02060519
     atom   16 type  1   force =     0.00000000    0.00000000    0.00000000
     atom   17 type  2   force =     0.00014169    0.00143990    0.02002724
     atom   18 type  2   force =     0.00017425   -0.00048014   -0.02092431
     atom   19 type  1   force =     0.00000000    0.00000000    0.00000000
     atom   20 type  2   force =     0.00011233    0.00051273   -0.02099761
     atom   21 type  1   force =     0.00000000    0.00000000    0.00000000
     atom   22 type  2   force =     0.00017234   -0.00048680    0.02046476
     atom   23 type  2   force =    -0.00052070    0.00116381   -0.02084158
     atom   24 type  1   force =     0.00000000    0.00000000    0.00000000
     atom   25 type  2   force =     0.00016517   -0.00019470    0.02065721
     atom   26 type  2   force =    -0.00018923    0.00072690   -0.02086185
     atom   27 type  1   force =     0.00000000    0.00000000    0.00000000
     atom   28 type  2   force =     0.00051621    0.00151904    0.02050565
     atom   29 type  2   force =    -0.00049796   -0.00038477   -0.02061336
     atom   30 type  1   force =     0.00000000    0.00000000    0.00000000
     atom   31 type  2   force =     0.00042593    0.00014600    0.02024737
     atom   32 type  2   force =     0.00014790    0.00032973   -0.02095934
     atom   33 type  1   force =     0.00000000    0.00000000    0.00000000
     atom   34 type  2   force =     0.00025742    0.00090184    0.02078986
     atom   35 type  2   force =    -0.00020358    0.00123389   -0.02108491
     atom   36 type  3   force =     0.00000000    0.00000000    0.00000000
     The Hubbard contrib.    to forces
     atom    1 type  1   force =     0.00000000    0.00000000    0.00000000
     atom    2 type  2   force =     0.00000000    0.00000000    0.00000000
     atom    3 type  2   force =     0.00000000    0.00000000    0.00000000
     atom    4 type  1   force =     0.00000000    0.00000000    0.00000000
     atom    5 type  2   force =     0.00000000    0.00000000    0.00000000
     atom    6 type  2   force =     0.00000000    0.00000000    0.00000000
     atom    7 type  1   force =     0.00000000    0.00000000    0.00000000
     atom    8 type  2   force =     0.00000000    0.00000000    0.00000000
     atom    9 type  2   force =     0.00000000    0.00000000    0.00000000
     atom   10 type  1   force =     0.00000000    0.00000000    0.00000000
     atom   11 type  2   force =     0.00000000    0.00000000    0.00000000
     atom   12 type  2   force =     0.00000000    0.00000000    0.00000000
     atom   13 type  1   force =     0.00000000    0.00000000    0.00000000
     atom   14 type  2   force =     0.00000000    0.00000000    0.00000000
     atom   15 type  2   force =     0.00000000    0.00000000    0.00000000
     atom   16 type  1   force =     0.00000000    0.00000000    0.00000000
     atom   17 type  2   force =     0.00000000    0.00000000    0.00000000
     atom   18 type  2   force =     0.00000000    0.00000000    0.00000000
     atom   19 type  1   force =     0.00000000    0.00000000    0.00000000
     atom   20 type  2   force =     0.00000000    0.00000000    0.00000000
     atom   21 type  1   force =     0.00000000    0.00000000    0.00000000
     atom   22 type  2   force =     0.00000000    0.00000000    0.00000000
     atom   23 type  2   force =     0.00000000    0.00000000    0.00000000
     atom   24 type  1   force =     0.00000000    0.00000000    0.00000000
     atom   25 type  2   force =     0.00000000    0.00000000    0.00000000
     atom   26 type  2   force =     0.00000000    0.00000000    0.00000000
     atom   27 type  1   force =     0.00000000    0.00000000    0.00000000
     atom   28 type  2   force =     0.00000000    0.00000000    0.00000000
     atom   29 type  2   force =     0.00000000    0.00000000    0.00000000
     atom   30 type  1   force =     0.00000000    0.00000000    0.00000000
     atom   31 type  2   force =     0.00000000    0.00000000    0.00000000
     atom   32 type  2   force =     0.00000000    0.00000000    0.00000000
     atom   33 type  1   force =     0.00000000    0.00000000    0.00000000
     atom   34 type  2   force =     0.00000000    0.00000000    0.00000000
     atom   35 type  2   force =     0.00000000    0.00000000    0.00000000
     atom   36 type  3   force =     0.00000000    0.00000000    0.00000000
     The SCF correction term to forces
     atom    1 type  1   force =     0.00015826    0.00048375    0.00025089
     atom    2 type  2   force =    -0.00007682    0.00013221    0.00018563
     atom    3 type  2   force =     0.00003082    0.00005853    0.00015768
     atom    4 type  1   force =    -0.00000194    0.00013550    0.00046313
     atom    5 type  2   force =     0.00013480    0.00023142    0.00035948
     atom    6 type  2   force =     0.00006419    0.00013113    0.00007856
     atom    7 type  1   force =     0.00019445   -0.00025158    0.00045996
     atom    8 type  2   force =    -0.00014185   -0.00008546    0.00026531
     atom    9 type  2   force =    -0.00012911    0.00006268    0.00008794
     atom   10 type  1   force =    -0.00007338   -0.00029910    0.00029539
     atom   11 type  2   force =    -0.00008390   -0.00024232    0.00019717
     atom   12 type  2   force =     0.00007811   -0.00025818    0.00019025
     atom   13 type  1   force =    -0.00021520    0.00039520    0.00024736
     atom   14 type  2   force =     0.00010627   -0.00001655    0.00021689
     atom   15 type  2   force =     0.00004467    0.00000815    0.00010675
     atom   16 type  1   force =     0.00009668    0.00027946    0.00031425
     atom   17 type  2   force =    -0.00007043    0.00017490    0.00021776
     atom   18 type  2   force =    -0.00000695    0.00009073    0.00002569
     atom   19 type  1   force =     0.00013282   -0.00013338    0.00027744
     atom   20 type  2   force =     0.00014103    0.00002738    0.00021197
     atom   21 type  1   force =     0.00035315   -0.00047470    0.00033436
     atom   22 type  2   force =     0.00007538   -0.00012898    0.00026836
     atom   23 type  2   force =    -0.00006066   -0.00010130    0.00001096
     atom   24 type  1   force =    -0.00015785    0.00065220    0.00035361
     atom   25 type  2   force =    -0.00001234    0.00006897    0.00028820
     atom   26 type  2   force =    -0.00001112    0.00006055   -0.00002773
     atom   27 type  1   force =    -0.00001692   -0.00009929    0.00028983
     atom   28 type  2   force =    -0.00010509    0.00017417    0.00021394
     atom   29 type  2   force =    -0.00007263    0.00006558    0.00021609
     atom   30 type  1   force =    -0.00036325   -0.00035212    0.00030665
     atom   31 type  2   force =    -0.00005010   -0.00008535    0.00022319
     atom   32 type  2   force =    -0.00004509    0.00002074    0.00003814
     atom   33 type  1   force =    -0.00012339   -0.00033598    0.00020719
     atom   34 type  2   force =     0.00000740   -0.00020218    0.00024623
     atom   35 type  2   force =    -0.00003723   -0.00019625   -0.00000146
     atom   36 type  3   force =    -0.00000020   -0.00001474    0.00000993

     Total force =     0.075209     Total SCF correction =     0.002168
     Energy error            =      1.0E-02 Ry
     Gradient error          =      2.5E-02 Ry/Bohr

     number of scf cycles    =   2
     number of bfgs steps    =   1

     energy             old  =   -2205.5522966972 Ry
     energy             new  =   -2205.5623757395 Ry

     CASE: energy            _new < energy            _old

     new trust radius        =       0.0411488661 bohr
     new conv_thr            =       0.0000000252 Ry


ATOMIC_POSITIONS (angstrom)
Mo            6.5863594135        1.7637619258        2.8238986925
S             8.1625398463        0.8247503214        4.4359788267
S             8.1794919376        0.8227737309        1.2704344078
Mo            8.1016902192        4.4804634751        2.7177272202
S             6.4976252855        3.7140550852        4.3406753568
S             6.5579012128        3.5217784170        1.1243717958
Mo            6.4784850630        7.2251110012        2.6519913395
S             8.0579778101        6.3186939780        4.2393034186
S             8.0991476626        6.3107869251        1.0988835202
Mo            8.1500989628        9.9102700058        2.8213482681
S             6.4990491893        8.9423931742        4.3761649651
S             6.6146455632        9.0504447053        1.1435297483
Mo            3.4286742725        1.7525448221        2.7703249571
S             4.9834964628        0.8168981435        4.3619438623
S             5.0454993190        0.8486867601        1.2166991252
Mo            4.9817003318        4.5195298471        2.6331178357
S             3.4341129530        3.6730090536        4.2812174404
S             3.4328115822        3.5421849803        1.0755922656
Mo            3.4630601256        7.2092255654        2.6302508003
S             4.9873794869        6.3210607390        1.0357115251
Mo            5.0075197382        9.9079855763        2.7451092523
S             3.4691382897        8.9428412666        4.3229017822
S             3.4089776451        9.0670308151        1.1052449483
Mo            0.2850255333        1.7456566872        2.8302288150
S             1.8670120672        0.8130265362        4.4031369169
S             1.8492563502        0.8529050725        1.2040468114
Mo            1.8529177805        4.4931432099        2.6709121758
S             0.2769740485        3.6492954998        4.3310296716
S             0.2344239629        3.5270164561        1.1668766415
Mo            0.2908361869        7.2390562729        2.6939764792
S             1.9121084885        6.3143177238        4.2358580833
S             1.8474152621        6.3196960589        1.0550314757
Mo            1.8568519142        9.9362704429        2.7688323920
S             0.3014543621        9.0520736669        4.3982458206
S             0.2681915106        9.0511135448        1.1632630820
H             7.3577549503        6.0727060354        5.3824631007



     Writing config-only to output data dir ./MoS2-V-O.save/
     NEW-OLD atomic charge density approx. for the potential

     negative rho (up, down):  1.415E-04 0.000E+00

     total cpu time spent up to now is      180.4 secs

     Self-consistent Calculation

     iteration #  1     ecut=    80.00 Ry     beta= 0.70
     Davidson diagonalization with overlap
     ethr =  1.00E-06,  avg # of iterations = 13.0

     negative rho (up, down):  1.214E-04 0.000E+00

     total cpu time spent up to now is      193.9 secs

     total energy              =   -2205.56901387 Ry
     estimated scf accuracy    <       0.00062729 Ry

     iteration #  2     ecut=    80.00 Ry     beta= 0.70
     Davidson diagonalization with overlap
     ethr =  2.04E-07,  avg # of iterations =  2.0

     negative rho (up, down):  1.198E-04 0.000E+00

     total cpu time spent up to now is      205.9 secs

     total energy              =   -2205.56905550 Ry
     estimated scf accuracy    <       0.00020406 Ry

     iteration #  3     ecut=    80.00 Ry     beta= 0.70
     Davidson diagonalization with overlap
     ethr =  6.65E-08,  avg # of iterations =  2.0

     negative rho (up, down):  1.145E-04 0.000E+00

     total cpu time spent up to now is      227.5 secs

     total energy              =   -2205.56906792 Ry
     estimated scf accuracy    <       0.00006300 Ry

     iteration #  4     ecut=    80.00 Ry     beta= 0.70
     Davidson diagonalization with overlap
     ethr =  2.05E-08,  avg # of iterations =  6.0

     negative rho (up, down):  1.149E-04 0.000E+00

     total cpu time spent up to now is      240.2 secs

     total energy              =   -2205.56907963 Ry
     estimated scf accuracy    <       0.00000217 Ry

     iteration #  5     ecut=    80.00 Ry     beta= 0.70
     Davidson diagonalization with overlap
     ethr =  7.08E-10,  avg # of iterations =  6.0

     negative rho (up, down):  1.165E-04 0.000E+00

     total cpu time spent up to now is      258.0 secs

     total energy              =   -2205.56908177 Ry
     estimated scf accuracy    <       0.00000142 Ry

     iteration #  6     ecut=    80.00 Ry     beta= 0.70
     Davidson diagonalization with overlap
     ethr =  4.64E-10,  avg # of iterations =  2.0

     negative rho (up, down):  1.198E-04 0.000E+00

     total cpu time spent up to now is      274.1 secs

     total energy              =   -2205.56908177 Ry
     estimated scf accuracy    <       0.00000028 Ry

     iteration #  7     ecut=    80.00 Ry     beta= 0.70
     Davidson diagonalization with overlap
     ethr =  9.10E-11,  avg # of iterations =  6.0

     negative rho (up, down):  1.216E-04 0.000E+00

     total cpu time spent up to now is      286.3 secs

     total energy              =   -2205.56908181 Ry
     estimated scf accuracy    <       0.00000006 Ry

     iteration #  8     ecut=    80.00 Ry     beta= 0.70
     Davidson diagonalization with overlap
     ethr =  2.02E-11,  avg # of iterations =  5.0

     negative rho (up, down):  1.372E-04 0.000E+00

     total cpu time spent up to now is      288.3 secs

     End of self-consistent calculation

          k = 0.0000 0.0000 0.0000 (105382 PWs)   bands (ev):

   -62.8172 -62.8020 -62.7886 -62.7810 -62.7710 -62.7546 -62.7490 -62.7449
   -62.7160 -62.6175 -62.6003 -62.5051 -37.1496 -37.0879 -37.0782 -37.0519
   -37.0450 -37.0297 -37.0231 -37.0144 -36.9918 -36.9827 -36.9820 -36.9674
   -36.9556 -36.9547 -36.9443 -36.9405 -36.9306 -36.9286 -36.9247 -36.9147
   -36.8967 -36.8778 -36.8481 -36.8364 -36.8263 -36.8129 -36.8033 -36.7791
   -36.7719 -36.7608 -36.7353 -36.7259 -36.6883 -36.6552 -36.5584 -36.5392
   -16.3684 -15.7251 -15.1167 -14.9790 -14.8245 -14.7931 -14.6221 -14.4172
   -14.3827 -14.3577 -14.3126 -14.2574 -14.2366 -14.2039 -14.1269 -14.0877
   -14.0306 -14.0280 -13.9580 -13.8382 -13.7722 -13.7566 -13.7441  -9.1083
    -7.6272  -7.4173  -7.3134  -7.2214  -7.1610  -7.1279  -7.1108  -7.0236
    -6.7714  -6.7641  -6.7157  -6.6301  -6.5291  -6.4861  -6.4024  -6.3462
    -6.3028  -6.1891  -6.0926  -5.8922  -5.8583  -5.8065  -5.7904  -5.7074
    -5.6858  -5.6661  -5.6247  -5.6038  -5.5620  -5.4879  -5.4559  -5.4242
    -5.3753  -5.3605  -5.0878  -5.0521  -5.0279  -4.9779  -4.8884  -4.8634
    -4.8513  -4.8055  -4.6334  -4.5391  -4.4181  -4.2377  -4.2204  -4.1694
    -4.1639  -3.9727  -3.9522  -3.9315  -3.7429  -3.7020  -3.6759  -3.6615
    -3.5952  -3.5298  -3.4694  -3.4564  -3.4293  -3.3967  -3.3538  -3.3272
    -3.2864  -3.1842  -3.0797  -2.8171  -2.7998  -2.7159  -2.7067  -2.6752
    -2.6343  -2.6129  -2.5999  -2.5178  -2.4950  -2.1852  -1.9450  -1.9071
    -1.8965  -0.7372  -0.6228  -0.5426  -0.0945  -0.0465  -0.0428   0.0515
     0.1699   0.2088   0.2325   0.3469   0.3664   0.3782   0.4147   0.4927
     0.5946   0.6114   0.6186   0.6616   0.7099   0.7615   0.7868   0.8240
     0.8485   0.8797   0.9273   0.9606   1.0188   1.0760   1.1256   1.2989
     1.4306

     the Fermi energy is    -0.7592 ev

!    total energy              =   -2205.56908176 Ry
     estimated scf accuracy    <       0.00000002 Ry
     smearing contrib. (-TS)   =      -0.00800962 Ry
     internal energy E=F+TS    =   -2205.56107214 Ry

     The total energy is F=E-TS. E is the sum of the following terms:
     one-electron contribution =  -18054.77507332 Ry
     hartree contribution      =    9014.89824073 Ry
     xc contribution           =    -385.39481400 Ry
     ewald contribution        =    7219.71057445 Ry

     convergence has been achieved in   8 iterations

     negative rho (up, down):  1.372E-04 0.000E+00

     Forces acting on atoms (cartesian axes, Ry/au):

     atom    1 type  1   force =    -0.00365645   -0.00438531   -0.00414252
     atom    2 type  2   force =    -0.00442882    0.00450524   -0.00129399
     atom    3 type  2   force =    -0.00822988    0.00512075   -0.01108917
     atom    4 type  1   force =     0.00436730   -0.00943312   -0.00029975
     atom    5 type  2   force =    -0.00061909   -0.00847346   -0.00423530
     atom    6 type  2   force =     0.00244350    0.00239991    0.00258505
     atom    7 type  1   force =    -0.00449437    0.00370214   -0.00263024
     atom    8 type  2   force =    -0.01532805   -0.01103061   -0.00148066
     atom    9 type  2   force =     0.01243571    0.00342771    0.00857168
     atom   10 type  1   force =    -0.00060965    0.00468827   -0.00070859
     atom   11 type  2   force =     0.00151154   -0.00043515   -0.00670039
     atom   12 type  2   force =    -0.00460415    0.00337522   -0.00428303
     atom   13 type  1   force =     0.00257509    0.00063473   -0.00021241
     atom   14 type  2   force =     0.00364428    0.00003415    0.00471701
     atom   15 type  2   force =    -0.00546453    0.00084503   -0.00577783
     atom   16 type  1   force =     0.00062253    0.00179430   -0.00004100
     atom   17 type  2   force =     0.00425196    0.00126771    0.00140781
     atom   18 type  2   force =    -0.00307076   -0.00104697    0.00919507
     atom   19 type  1   force =     0.00640460   -0.00307054    0.00241301
     atom   20 type  2   force =     0.00105621   -0.00418285   -0.00662334
     atom   21 type  1   force =    -0.00191536    0.00344762    0.00197880
     atom   22 type  2   force =     0.00078583   -0.00081355   -0.00067361
     atom   23 type  2   force =     0.00135346   -0.00034899    0.00274607
     atom   24 type  1   force =    -0.00239863   -0.00117942   -0.00319746
     atom   25 type  2   force =     0.00671985    0.01030875   -0.00310218
     atom   26 type  2   force =    -0.00359104   -0.00114947   -0.00327410
     atom   27 type  1   force =    -0.00207191    0.00077387    0.00560001
     atom   28 type  2   force =     0.00168218   -0.00550583   -0.00268476
     atom   29 type  2   force =     0.00213877    0.00048732   -0.00542127
     atom   30 type  1   force =     0.00221418    0.00043612    0.00757063
     atom   31 type  2   force =     0.00602551    0.00120886    0.00635308
     atom   32 type  2   force =    -0.00565559    0.00472392    0.00548670
     atom   33 type  1   force =     0.00117905    0.00261668    0.00291130
     atom   34 type  2   force =     0.00122578   -0.01554603   -0.01284386
     atom   35 type  2   force =    -0.00223212    0.00873566    0.00129772
     atom   36 type  3   force =     0.00573305    0.00206733    0.01788153
     The non-local contrib.  to forces
     atom    1 type  1   force =    -0.00397907    0.02608753   -0.01481002
     atom    2 type  2   force =    -0.00227210   -0.00701670   -0.26835152
     atom    3 type  2   force =    -0.00957605   -0.00989585    0.26373233
     atom    4 type  1   force =    -0.00285773    0.00447467   -0.00392768
     atom    5 type  2   force =     0.00809906   -0.02548316   -0.24527995
     atom    6 type  2   force =     0.00284639    0.00409093    0.26561256
     atom    7 type  1   force =    -0.04069579   -0.00295320   -0.01554638
     atom    8 type  2   force =    -0.15914533   -0.02730229    0.15879027
     atom    9 type  2   force =     0.00779201   -0.01104582    0.28632054
     atom   10 type  1   force =    -0.00064348    0.00388101   -0.00118115
     atom   11 type  2   force =     0.00727915   -0.00183806   -0.25273214
     atom   12 type  2   force =    -0.01410213   -0.01333916    0.25625398
     atom   13 type  1   force =     0.00166474    0.02369539   -0.00825605
     atom   14 type  2   force =     0.00985935   -0.00998960   -0.26530247
     atom   15 type  2   force =    -0.00791271   -0.00676559    0.26197770
     atom   16 type  1   force =    -0.00093941    0.04284599   -0.01765858
     atom   17 type  2   force =    -0.00085733   -0.02683216   -0.24736087
     atom   18 type  2   force =    -0.00426939    0.00000507    0.26999897
     atom   19 type  1   force =     0.02671379   -0.00958475   -0.01867413
     atom   20 type  2   force =    -0.00189415   -0.01548125    0.25771976
     atom   21 type  1   force =    -0.00053167    0.02136573    0.00422581
     atom   22 type  2   force =    -0.00486401    0.00228853   -0.25808874
     atom   23 type  2   force =     0.00798874   -0.01518981    0.26459589
     atom   24 type  1   force =     0.00340736    0.01265734   -0.01107768
     atom   25 type  2   force =    -0.00016224   -0.00276361   -0.26509681
     atom   26 type  2   force =     0.00187806   -0.01251228    0.26539505
     atom   27 type  1   force =     0.00287650    0.00575126    0.00770358
     atom   28 type  2   force =    -0.00785941   -0.02398937   -0.26509057
     atom   29 type  2   force =     0.00656158   -0.00262210    0.26252110
     atom   30 type  1   force =     0.01206706    0.01894179   -0.00833185
     atom   31 type  2   force =    -0.00458713   -0.00241130   -0.25158711
     atom   32 type  2   force =    -0.00216167   -0.00733866    0.27084388
     atom   33 type  1   force =     0.00031074    0.00896003    0.00373614
     atom   34 type  2   force =    -0.00008514   -0.01722909   -0.26818428
     atom   35 type  2   force =     0.00234795   -0.01259049    0.26603369
     atom   36 type  3   force =     0.03337665    0.01184177   -0.05153868
     The ionic contribution  to forces
     atom    1 type  1   force =    -0.14752068    0.60702028    5.63797001
     atom    2 type  2   force =    -0.31588949    0.15884955   39.46448974
     atom    3 type  2   force =    -0.08333488   -0.00932712  -36.36190512
     atom    4 type  1   force =     0.16023202    0.70724326    0.24903375
     atom    5 type  2   force =    -1.11679969    1.14058546   38.49382461
     atom    6 type  2   force =     0.22393086   -0.55649315  -37.95184259
     atom    7 type  1   force =    -2.21500403   -2.67073120    1.28237898
     atom    8 type  2   force =     0.00495575    0.56725451   35.66021323
     atom    9 type  2   force =     0.36437094   -0.10797527  -37.76742500
     atom   10 type  1   force =    -0.60257305   -0.30349437    5.16561944
     atom   11 type  2   force =    -0.48645030   -1.43614981   39.03885080
[...]
     atom   27 type  1   force =     0.00341719    0.00893570    0.00373584
     atom   28 type  2   force =    -0.00521696   -0.00894948   -0.26010943
     atom   29 type  2   force =    -0.00088900   -0.01361632    0.26618967
     atom   30 type  1   force =     0.01777317    0.02432225   -0.00280312
     atom   31 type  2   force =    -0.01441344   -0.00046741   -0.25298959
     atom   32 type  2   force =     0.00605240   -0.01750713    0.26520131
     atom   33 type  1   force =     0.00198248    0.00759522    0.00326052
     atom   34 type  2   force =    -0.00106590   -0.01827176   -0.26221214
     atom   35 type  2   force =     0.00091373   -0.01454182    0.26709716
     atom   36 type  3   force =    -0.00160763    0.00392809   -0.06318112
     The ionic contribution  to forces
     atom    1 type  1   force =     0.03654995    0.70592825    1.59418537
     atom    2 type  2   force =    -0.17113469    0.16748286   38.86001903
     atom    3 type  2   force =     0.20632857   -0.14137785  -37.52122933
     atom    4 type  1   force =    -0.48643204    2.00410108    0.87103471
     atom    5 type  2   force =    -1.00425008    1.46896428   38.14504021
     atom    6 type  2   force =     0.28587673    0.11812950  -38.35104340
     atom    7 type  1   force =    -0.94488558   -3.94399105    2.45538363
     atom    8 type  2   force =    -1.45281452    0.06914322   34.83942130
     atom    9 type  2   force =     0.21408441    0.02491329  -36.38153689
     atom   10 type  1   force =    -0.05961842   -0.85020873    3.29513052
     atom   11 type  2   force =    -0.16024472   -1.38489525   39.08035159
     atom   12 type  2   force =     0.56077021    0.17348777  -38.38298729
     atom   13 type  1   force =    -0.03909267    0.93474384    1.52768792
     atom   14 type  2   force =    -0.01020355    0.17248212   38.66183063
     atom   15 type  2   force =    -0.03342204   -0.08697027  -38.01910124
     atom   16 type  1   force =     0.44199253    4.14457351   -0.76034429
     atom   17 type  2   force =     0.94025108    1.33497511   38.10678748
     atom   18 type  2   force =    -0.36560994   -0.07158466  -38.29930662
     atom   19 type  1   force =     1.79811932   -2.71622955    4.12957353
     atom   20 type  2   force =     0.12185236   -0.24342250  -38.77319385
     atom   21 type  1   force =    -0.31082203   -0.07637064    0.76181795
     atom   22 type  2   force =     0.27041441   -1.38959326   38.83049308
     atom   23 type  2   force =    -0.45367511    0.07777226  -37.80777912
     atom   24 type  1   force =    -0.01822857    0.24080767    2.63326040
     atom   25 type  2   force =     0.19702230    0.15185842   38.97494837
     atom   26 type  2   force =    -0.16854231   -0.17254064  -37.65019167
     atom   27 type  1   force =     0.14001552    1.06744772    0.84520071
     atom   28 type  2   force =     0.08094539    0.65596550   38.49339588
     atom   29 type  2   force =     0.05573461    0.24479482  -37.84127894
     atom   30 type  1   force =    -0.49310444   -1.24109644    3.12516057
     atom   31 type  2   force =     1.18396309   -0.06199929   38.22824155
     atom   32 type  2   force =    -0.38261197    0.07046292  -37.35397013
     atom   33 type  1   force =     0.28945745   -0.73476930    3.34549937
     atom   34 type  2   force =    -0.06232187   -0.48617327   39.04749665
     atom   35 type  2   force =    -0.07714139   -0.13897592  -37.31895183
     atom   36 type  3   force =    -0.12922196   -0.08783553    8.60895416
     The local contribution  to forces
     atom    1 type  1   force =    -0.02919026   -0.73018120   -1.58391746
     atom    2 type  2   force =     0.16904675   -0.15504953  -38.61603220
     atom    3 type  2   force =    -0.20393089    0.15426148   37.27367696
     atom    4 type  1   force =     0.48991150   -1.99214580   -0.86076328
     atom    5 type  2   force =     0.98926749   -1.45195211  -37.91936352
     atom    6 type  2   force =    -0.28318768   -0.11167801   38.10740669
     atom    7 type  1   force =     0.99488892    3.96359863   -2.43976759
     atom    8 type  2   force =     1.43928004   -0.04940565  -35.09800552
     atom    9 type  2   force =    -0.21001013   -0.00795871   36.11409352
     atom   10 type  1   force =     0.05975792    0.84519785   -3.30011973
     atom   11 type  2   force =     0.15294745    1.39063213  -38.85175179
     atom   12 type  2   force =    -0.55198190   -0.16666212   38.14644062
     atom   13 type  1   force =     0.03654825   -0.96123826   -1.52484342
     atom   14 type  2   force =     0.00792355   -0.16120340  -38.41840502
     atom   15 type  2   force =     0.03228126    0.09273320   37.77970879
     atom   16 type  1   force =    -0.44611968   -4.19469804    0.76747298
     atom   17 type  2   force =    -0.93344141   -1.31060598  -37.87406085
     atom   18 type  2   force =     0.36244691    0.07589802   38.05594784
     atom   19 type  1   force =    -1.83409537    2.73517468   -4.09713048
     atom   20 type  2   force =    -0.12052255    0.25645730   38.53442814
     atom   21 type  1   force =     0.31226509    0.05616685   -0.76344552
     atom   22 type  2   force =    -0.26325803    1.39438353  -38.58996011
     atom   23 type  2   force =     0.44230864   -0.07142622   37.56438941
     atom   24 type  1   force =     0.01435657   -0.25278084   -2.62856253
     atom   25 type  2   force =    -0.19386126   -0.13959036  -38.73263631
     atom   26 type  2   force =     0.16596024    0.18362417   37.40475324
     atom   27 type  1   force =    -0.14391959   -1.07591264   -0.84890320
     atom   28 type  2   force =    -0.07540236   -0.64725320  -38.25336255
     atom   29 type  2   force =    -0.05446108   -0.23158019   37.59604240
     atom   30 type  1   force =     0.47663624    1.21803207   -3.12279500
     atom   31 type  2   force =    -1.16995030    0.06138413  -37.99438815
     atom   32 type  2   force =     0.37734832   -0.05368546   37.10765899
     atom   33 type  1   force =    -0.29081589    0.72601986   -3.34866996
     atom   34 type  2   force =     0.06313375    0.50314999  -38.80557968
     atom   35 type  2   force =     0.07640569    0.15239495   37.07332275
     atom   36 type  3   force =     0.13147428    0.08405833   -8.54628688
     The core correction contribution to forces
     atom    1 type  1   force =     0.00000000    0.00000000    0.00000000
     atom    2 type  2   force =    -0.00028157    0.00072648    0.02064502
     atom    3 type  2   force =     0.00026643    0.00051161   -0.02098397
     atom    4 type  1   force =     0.00000000    0.00000000    0.00000000
     atom    5 type  2   force =    -0.00142379    0.00073021    0.01974595
     atom    6 type  2   force =     0.00022108    0.00007695   -0.02088169
     atom    7 type  1   force =     0.00000000    0.00000000    0.00000000
     atom    8 type  2   force =    -0.00113235    0.00153016   -0.01142468
     atom    9 type  2   force =     0.00014540    0.00099588   -0.02145205
     atom   10 type  1   force =     0.00000000    0.00000000    0.00000000
     atom   11 type  2   force =    -0.00038027    0.00030009    0.02002858
     atom   12 type  2   force =     0.00082351    0.00083527   -0.02071943
     atom   13 type  1   force =     0.00000000    0.00000000    0.00000000
     atom   14 type  2   force =    -0.00012571    0.00033545    0.02080760
     atom   15 type  2   force =    -0.00007203    0.00022836   -0.02059581
     atom   16 type  1   force =     0.00000000    0.00000000    0.00000000
     atom   17 type  2   force =     0.00077339    0.00116613    0.02021076
     atom   18 type  2   force =    -0.00040858   -0.00014820   -0.02077422
     atom   19 type  1   force =     0.00000000    0.00000000    0.00000000
     atom   20 type  2   force =     0.00001451    0.00044096   -0.02107022
     atom   21 type  1   force =     0.00000000    0.00000000    0.00000000
     atom   22 type  2   force =     0.00022755    0.00009822    0.02053312
     atom   23 type  2   force =    -0.00083910    0.00051082   -0.02073582
     atom   24 type  1   force =     0.00000000    0.00000000    0.00000000
     atom   25 type  2   force =     0.00039484    0.00074475    0.02067213
     atom   26 type  2   force =    -0.00017352    0.00041810   -0.02093729
     atom   27 type  1   force =     0.00000000    0.00000000    0.00000000
     atom   28 type  2   force =     0.00049442    0.00038900    0.02042808
     atom   29 type  2   force =     0.00017890    0.00055268   -0.02086998
     atom   30 type  1   force =     0.00000000    0.00000000    0.00000000
     atom   31 type  2   force =     0.00097750    0.00011555    0.02003676
     atom   32 type  2   force =    -0.00033287    0.00094183   -0.02069814
     atom   33 type  1   force =     0.00000000    0.00000000    0.00000000
     atom   34 type  2   force =     0.00010293    0.00116443    0.02057947
     atom   35 type  2   force =    -0.00010053    0.00088978   -0.02103942
     atom   36 type  3   force =     0.00000000    0.00000000    0.00000000
     The Hubbard contrib.    to forces
     atom    1 type  1   force =     0.00000000    0.00000000    0.00000000
     atom    2 type  2   force =     0.00000000    0.00000000    0.00000000
     atom    3 type  2   force =     0.00000000    0.00000000    0.00000000
     atom    4 type  1   force =     0.00000000    0.00000000    0.00000000
     atom    5 type  2   force =     0.00000000    0.00000000    0.00000000
     atom    6 type  2   force =     0.00000000    0.00000000    0.00000000
     atom    7 type  1   force =     0.00000000    0.00000000    0.00000000
     atom    8 type  2   force =     0.00000000    0.00000000    0.00000000
     atom    9 type  2   force =     0.00000000    0.00000000    0.00000000
     atom   10 type  1   force =     0.00000000    0.00000000    0.00000000
     atom   11 type  2   force =     0.00000000    0.00000000    0.00000000
     atom   12 type  2   force =     0.00000000    0.00000000    0.00000000
     atom   13 type  1   force =     0.00000000    0.00000000    0.00000000
     atom   14 type  2   force =     0.00000000    0.00000000    0.00000000
     atom   15 type  2   force =     0.00000000    0.00000000    0.00000000
     atom   16 type  1   force =     0.00000000    0.00000000    0.00000000
     atom   17 type  2   force =     0.00000000    0.00000000    0.00000000
     atom   18 type  2   force =     0.00000000    0.00000000    0.00000000
     atom   19 type  1   force =     0.00000000    0.00000000    0.00000000
     atom   20 type  2   force =     0.00000000    0.00000000    0.00000000
     atom   21 type  1   force =     0.00000000    0.00000000    0.00000000
     atom   22 type  2   force =     0.00000000    0.00000000    0.00000000
     atom   23 type  2   force =     0.00000000    0.00000000    0.00000000
     atom   24 type  1   force =     0.00000000    0.00000000    0.00000000
     atom   25 type  2   force =     0.00000000    0.00000000    0.00000000
     atom   26 type  2   force =     0.00000000    0.00000000    0.00000000
     atom   27 type  1   force =     0.00000000    0.00000000    0.00000000
     atom   28 type  2   force =     0.00000000    0.00000000    0.00000000
     atom   29 type  2   force =     0.00000000    0.00000000    0.00000000
     atom   30 type  1   force =     0.00000000    0.00000000    0.00000000
     atom   31 type  2   force =     0.00000000    0.00000000    0.00000000
     atom   32 type  2   force =     0.00000000    0.00000000    0.00000000
     atom   33 type  1   force =     0.00000000    0.00000000    0.00000000
     atom   34 type  2   force =     0.00000000    0.00000000    0.00000000
     atom   35 type  2   force =     0.00000000    0.00000000    0.00000000
     atom   36 type  3   force =     0.00000000    0.00000000    0.00000000
     The SCF correction term to forces
     atom    1 type  1   force =    -0.00000224   -0.00002840   -0.00003378
     atom    2 type  2   force =     0.00001781   -0.00000130   -0.00001771
     atom    3 type  2   force =    -0.00000227    0.00000961    0.00000931
     atom    4 type  1   force =    -0.00000257   -0.00004896    0.00000394
     atom    5 type  2   force =     0.00003687   -0.00000828   -0.00002690
     atom    6 type  2   force =     0.00001848   -0.00000536   -0.00000531
     atom    7 type  1   force =    -0.00003236    0.00001911   -0.00001555
     atom    8 type  2   force =    -0.00001197   -0.00002077   -0.00000070
     atom    9 type  2   force =    -0.00000636   -0.00001705   -0.00001354
     atom   10 type  1   force =     0.00000628    0.00003575   -0.00000454
     atom   11 type  2   force =     0.00000209    0.00001351   -0.00001607
     atom   12 type  2   force =    -0.00000446    0.00001528   -0.00000466
     atom   13 type  1   force =    -0.00003411   -0.00000864   -0.00001295
     atom   14 type  2   force =    -0.00000372   -0.00000656   -0.00002379
     atom   15 type  2   force =     0.00000876   -0.00000206   -0.00001311
     atom   16 type  1   force =    -0.00001866   -0.00000214   -0.00002653
     atom   17 type  2   force =    -0.00002934   -0.00001237   -0.00000313
     atom   18 type  2   force =    -0.00000219   -0.00002179   -0.00000110
     atom   19 type  1   force =    -0.00001176    0.00001831    0.00002563
     atom   20 type  2   force =    -0.00000935    0.00001430    0.00000803
     atom   21 type  1   force =    -0.00001842    0.00000501   -0.00002127
     atom   22 type  2   force =    -0.00001899   -0.00000778   -0.00001488
     atom   23 type  2   force =     0.00000076    0.00001168    0.00001767
     atom   24 type  1   force =    -0.00002747   -0.00000399   -0.00001685
     atom   25 type  2   force =    -0.00000670   -0.00000808   -0.00000252
     atom   26 type  2   force =     0.00000844    0.00000342    0.00000687
     atom   27 type  1   force =    -0.00003091   -0.00001574    0.00000726
     atom   28 type  2   force =     0.00001012    0.00000532   -0.00000770
     atom   29 type  2   force =    -0.00000392   -0.00000670    0.00002113
     atom   30 type  1   force =     0.00003866    0.00002552    0.00002086
     atom   31 type  2   force =     0.00000629    0.00000608    0.00001252
     atom   32 type  2   force =     0.00001471   -0.00000052    0.00001358
     atom   33 type  1   force =     0.00000043   -0.00000127    0.00000579
     atom   34 type  2   force =     0.00001824    0.00000709    0.00000426
     atom   35 type  2   force =     0.00000335    0.00001224    0.00001132
     atom   36 type  3   force =     0.00000229   -0.00000094    0.00000243

     Total force =     0.006391     Total SCF correction =     0.000167
     Energy error            =      9.3E-05 Ry
     Gradient error          =      1.8E-03 Ry/Bohr

     bfgs converged in  27 scf cycles and  26 bfgs steps
     (criteria: energy <  1.0E-04 Ry, force <  1.0E-02 Ry/Bohr)

     End of BFGS Geometry Optimization

     Final energy             =   -2205.5993787561 Ry

     File ./MoS2-V-O.bfgs deleted, as requested
Begin final coordinates

ATOMIC_POSITIONS (angstrom)
Mo            6.5398224037        1.7432126699        2.7388163267
S             8.1081378215        0.8481102266        4.3655909272
S             8.1371152850        0.8257168270        1.1735241722
Mo            8.1143423359        4.4207546039        2.7234284450
S             6.4804012270        3.6341913213        4.2949191984
S             6.5632930686        3.5386045581        1.0924829948
Mo            6.4156495510        7.2681695093        2.6740877380
S             8.0307452369        6.3062474469        4.2105950587
S             8.1106476945        6.3179941121        1.1859506078
Mo            8.1156956482        9.9293503171        2.7789943147
S             6.4737654615        8.9913443559        4.3566860952
S             6.5665620950        9.0535967269        1.1120596567
Mo            3.4082903194        1.7481529975        2.7381433475
S             4.9697673091        0.8305757451        4.3329964441
S             4.9743399801        0.8365312879        1.1398891705
Mo            4.9743727119        4.5016734100        2.6099941664
S             3.4577394441        3.6546576646        4.2890972408
S             3.3908728438        3.5518834216        1.0916361780
Mo            3.4910485177        7.1910177611        2.7015976128
S             4.9718489569        6.3145299758        1.0341804875
Mo            4.9753842657        9.9293020417        2.7274918208
S             3.4604084313        8.9711382156        4.3479679047
S             3.3782494301        9.0253499005        1.1396565900
Mo            0.2582139904        1.7354809728        2.7716138380
S             1.8543064735        0.8530935079        4.3688137716
S             1.8242393161        0.8257944684        1.1687633893
Mo            1.8391486421        4.4824148841        2.7198255631
S             0.2607832542        3.5838047189        4.3346692274
S             0.2506204175        3.5430950054        1.1401489004
Mo            0.2752213166        7.2256974653        2.7700854511
S             1.9233526056        6.3018226331        4.3164963928
S             1.8337588163        6.3290857931        1.1492636537
Mo            1.8324061282        9.9354324677        2.7810661724
S             0.2520497548        9.0423079975        4.3808809881
S             0.2492418413        9.0388494464        1.1901799521
H             8.0657621943        6.2235730643        5.5747290213
End final coordinates



     Writing all to output data dir ./MoS2-V-O.save/
 
     init_run     :      2.38s CPU      2.64s WALL (       1 calls)
     electrons    :   2351.34s CPU   2605.84s WALL (      27 calls)
     update_pot   :     36.43s CPU     38.26s WALL (      26 calls)
     forces       :     35.14s CPU     39.79s WALL (      27 calls)

     Called by init_run:
     wfcinit      :      0.39s CPU      0.43s WALL (       1 calls)
     potinit      :      1.32s CPU      1.44s WALL (       1 calls)
     hinit0       :      0.16s CPU      0.18s WALL (       1 calls)

     Called by electrons:
     c_bands      :    276.11s CPU    280.47s WALL (     225 calls)
     sum_band     :     64.01s CPU     78.69s WALL (     225 calls)
     v_of_rho     :     91.54s CPU    109.70s WALL (     239 calls)
     newd         :     30.38s CPU     43.94s WALL (     239 calls)
     mix_rho      :   1900.20s CPU   2103.67s WALL (     225 calls)

     Called by c_bands:
     init_us_2    :      4.77s CPU      5.15s WALL (     451 calls)
     init_us_2:cp :      4.77s CPU      5.15s WALL (     451 calls)
     regterg      :    259.51s CPU    263.43s WALL (     225 calls)

     Called by *egterg:
     rdiaghg      :     20.73s CPU     21.00s WALL (    1141 calls)
     h_psi        :    149.57s CPU    150.95s WALL (    1181 calls)
     s_psi        :     18.58s CPU     18.64s WALL (    1181 calls)
     g_psi        :      0.98s CPU      1.00s WALL (     955 calls)

     Called by h_psi:
     h_psi:calbec :     21.07s CPU     21.19s WALL (    1181 calls)
     vloc_psi     :    108.08s CPU    109.22s WALL (    1181 calls)
     add_vuspsi   :     18.18s CPU     18.29s WALL (    1181 calls)

     General routines
     calbec       :     30.23s CPU     30.38s WALL (    1514 calls)
     fft          :     58.52s CPU     69.08s WALL (   16157 calls)
     ffts         :    851.36s CPU   1048.25s WALL (  462085 calls)
     fftw         :     92.75s CPU     93.60s WALL (  138629 calls)
     interpolate  :      1.70s CPU      2.05s WALL (     239 calls)
 
     Parallel routines
 
     PWSCF        :  40m29.94s CPU  44m54.03s WALL

 
   This run was terminated on:   5:23:34   4Nov2023            

=------------------------------------------------------------------------------=
   JOB DONE.
=------------------------------------------------------------------------------=
