
     Program PWSCF v.7.2 starts on  4Nov2023 at  3:46:32 

     This program is part of the open-source Quantum ESPRESSO suite
     for quantum simulation of materials; please cite
         "P. Giannozzi et al., J. Phys.:Condens. Matter 21 395502 (2009);
         "P. Giannozzi et al., J. Phys.:Condens. Matter 29 465901 (2017);
         "P. Giannozzi et al., J. Chem. Phys. 152 154105 (2020);
          URL http://www.quantum-espresso.org", 
     in publications or presentations arising from this work. More details at
     http://www.quantum-espresso.org/quote

     Parallel version (MPI & OpenMP), running on      48 processor cores
     Number of MPI processes:                48
     Threads/MPI process:                     1

     MPI processes distributed on     1 nodes
     20000 MiB available memory on the printing compute node when the environment starts
 
     Waiting for input...
     Reading input from standard input
Warning: card &CELL ignored
Warning: card CELL_DYNAMICS = 'BFGS', ignored
Warning: card CELL_DOFREE = '2DXY' ignored
Warning: card / ignored

     Current dimensions of program PWSCF are:
     Max number of different atomic species (ntypx) = 10
     Max number of k-points (npk) =  40000
     Max angular momentum in pseudopotentials (lmaxx) =  4

     IMPORTANT: XC functional enforced from input :
     Exchange-correlation= RVV10
                           (   1   4  13   4  26   0   0)
     Any further DFT definition will be discarded
     Please, verify this is what you really want


     gamma-point specific algorithms are used
     signal trapping enabled: kill the code with -SIGUSR1 to stop cleanly the simulation 
 
     R & G space division:  proc/nbgrp/npool/nimage =      48
     Subspace diagonalization in iterative solution of the eigenvalue problem:
     one sub-group per band group will be used
     scalapack distributed-memory algorithm (size of sub-group:  2*  2 procs)

 
     Parallelization info
     --------------------
     sticks:   dense  smooth     PW     G-vecs:    dense   smooth      PW
     Min         243     194     47                49060    35090    4376
     Max         246     196     50                49086    35128    4410
     Sum       11735    9389   2349              2355467  1685513  210763
 
     Using Slab Decomposition
 


     bravais-lattice index     =            0
     lattice parameter (alat)  =      17.8707  a.u.
     unit-cell volume          =   17436.2743 (a.u.)^3
     number of atoms/cell      =           36
     number of atomic types    =            3
     number of electrons       =       307.00
     number of Kohn-Sham states=          185
     kinetic-energy cutoff     =      80.0000  Ry
     charge density cutoff     =     400.0000  Ry
     scf convergence threshold =      1.0E-06
     mixing beta               =       0.7000
     number of iterations used =            8  local-TF  mixing
     energy convergence thresh.=      1.0E-04
     force convergence thresh. =      1.0E-02
     Exchange-correlation= RVV10
                           (   1   4  13   4  26   0   0)
     nstep                     =          200


     celldm(1)=  17.870686  celldm(2)=   0.000000  celldm(3)=   0.000000
     celldm(4)=   0.000000  celldm(5)=   0.000000  celldm(6)=   0.000000

     crystal axes: (cart. coord. in units of alat)
               a(1) = (   1.000000   0.000000   0.000000 )  
               a(2) = (   0.000000   1.155671   0.000000 )  
               a(3) = (   0.000000   0.000000   2.643601 )  

     reciprocal axes: (cart. coord. in units 2 pi/alat)
               b(1) = (  1.000000  0.000000  0.000000 )  
               b(2) = (  0.000000  0.865298  0.000000 )  
               b(3) = (  0.000000  0.000000  0.378272 )  


     PseudoPot. # 1 for Mo read from file:
     ../pseudo/Mo_ONCV_PBE-1.0.oncvpsp.upf
     MD5 check sum: 1b5d28e075c9ccadda658a603575cd1f
     Pseudo is Norm-conserving, Zval = 14.0
     Generated using ONCVPSP code by D. R. Hamann
     Using radial grid of 1526 points,  6 beta functions with: 
                l(1) =   0
                l(2) =   0
                l(3) =   1
                l(4) =   1
                l(5) =   2
                l(6) =   2

     PseudoPot. # 2 for S  read from file:
     ../pseudo/s_pbe_v1.4.uspp.F.UPF
     MD5 check sum: 88d86576ff6df21479756cfb9bdac1df
     Pseudo is Ultrasoft + core correction, Zval =  6.0
     Generated by new atomic code, or converted to UPF format
     Using radial grid of  907 points,  6 beta functions with: 
                l(1) =   0
                l(2) =   0
                l(3) =   1
                l(4) =   1
                l(5) =   2
                l(6) =   2
     Q(r) pseudized with  8 coefficients,  rinner =    1.300   1.300   1.300
                                                       1.300   1.300

     PseudoPot. # 3 for H  read from file:
     ../pseudo/H_ONCV_PBE-1.0.oncvpsp.upf
     MD5 check sum: 1790becc920ee074925cf490c71280fe
     Pseudo is Norm-conserving, Zval =  1.0
     Generated using ONCVPSP code by D. R. Hamann
     Using radial grid of 1166 points,  2 beta functions with: 
                l(1) =   0
                l(2) =   0

     atomic species   valence    mass     pseudopotential
        Mo            14.00    95.94000     Mo( 1.00)
        S              6.00    32.06500     S ( 1.00)
        H              1.00     1.00794     H ( 1.00)

     No symmetry found



   Cartesian axes

     site n.     atom                  positions (alat units)
         1           Mo  tau(   1) = (   0.6952221   0.1890506   0.2985846  )
         2           S   tau(   2) = (   0.8646417   0.0856217   0.4689279  )
         3           S   tau(   3) = (   0.8663890   0.0857843   0.1351291  )
         4           Mo  tau(   4) = (   0.8560186   0.4753274   0.2873942  )
         5           S   tau(   5) = (   0.6873294   0.3936244   0.4596353  )
         6           S   tau(   6) = (   0.6929804   0.3713468   0.1185692  )
         7           Mo  tau(   7) = (   0.6862796   0.7633098   0.2825370  )
         8           S   tau(   8) = (   0.8545980   0.6708292   0.4486168  )
         9           S   tau(   9) = (   0.8545123   0.6666874   0.1146125  )
        10           Mo  tau(  10) = (   0.8629403   1.0471007   0.3006803  )
        11           S   tau(  11) = (   0.6868280   0.9456650   0.4634891  )
        12           S   tau(  12) = (   0.6998113   0.9568511   0.1205389  )
        13           Mo  tau(  13) = (   0.3618216   0.1847309   0.2935964  )
        14           S   tau(  14) = (   0.5260962   0.0863870   0.4600448  )
        15           S   tau(  15) = (   0.5348379   0.0894875   0.1297123  )
        16           Mo  tau(  16) = (   0.5265817   0.4772436   0.2784130  )
        17           S   tau(  17) = (   0.3624753   0.3882513   0.4525556  )
        18           S   tau(  18) = (   0.3635411   0.3752055   0.1119148  )
        19           Mo  tau(  19) = (   0.3652268   0.7630864   0.2781795  )
        20           S   tau(  20) = (   0.5269494   0.6690381   0.1096838  )
        21           Mo  tau(  21) = (   0.5300192   1.0470394   0.2900995  )
        22           S   tau(  22) = (   0.3670346   0.9457522   0.4574073  )
        23           S   tau(  23) = (   0.3604225   0.9585725   0.1159032  )
        24           Mo  tau(  24) = (   0.0313099   0.1847895   0.3013130  )
        25           S   tau(  25) = (   0.1956761   0.0838230   0.4650863  )
        26           S   tau(  26) = (   0.1967693   0.0903508   0.1278874  )
        27           Mo  tau(  27) = (   0.1967578   0.4753919   0.2813011  )
        28           S   tau(  28) = (   0.0287851   0.3864324   0.4586755  )
        29           S   tau(  29) = (   0.0244514   0.3729871   0.1239344  )
        30           Mo  tau(  30) = (   0.0286728   0.7631204   0.2856894  )
        31           S   tau(  31) = (   0.2011512   0.6675435   0.4465001  )
        32           S   tau(  32) = (   0.1969214   0.6672839   0.1104564  )
        33           Mo  tau(  33) = (   0.1950294   1.0511147   0.2932237  )
        34           S   tau(  34) = (   0.0312912   0.9612169   0.4667423  )
        35           S   tau(  35) = (   0.0292670   0.9563028   0.1216485  )
        36           H   tau(  36) = (   0.0000000   0.6420393   0.5792558  )

     number of k points=     1  Gaussian smearing, width (Ry)=  0.0100
                       cart. coord. in units 2pi/alat
        k(    1) = (   0.0000000   0.0000000   0.0000000), wk =   2.0000000

     Dense  grid:  1177734 G-vectors     FFT dimensions: ( 120, 135, 320)

     Smooth grid:   842757 G-vectors     FFT dimensions: ( 108, 120, 270)

     Estimated max dynamical RAM per process >     146.59 MB

     Estimated total dynamical RAM >       6.87 GB

     Initial potential from superposition of free atoms

     starting charge     306.9873, renormalised to     307.0000

     negative rho (up, down):  1.403E-04 0.000E+00


---------------------------------------------------------------------------------
Carrying out rVV10 run using the following parameters:
Nqs =      20    Nr_points =    1024   r_max =   100.000
b_value =  6.30000    beta =  0.00901
     q_mesh =  0.00010000  0.00030000  0.00058939  0.00100810
               0.00161396  0.00249058  0.00375900  0.00559430
               0.00824984  0.01209221  0.01765183  0.02569619
               0.03733578  0.05417739  0.07854596  0.11380545
               0.16482331  0.23864234  0.34545298  0.50000000

Gradients computed in Reciprocal space

---------------------------------------------------------------------------------


     Starting wfcs are  213 randomized atomic wfcs

     total cpu time spent up to now is        2.8 secs

     Self-consistent Calculation

     iteration #  1     ecut=    80.00 Ry     beta= 0.70
     Davidson diagonalization with overlap
     ethr =  1.00E-02,  avg # of iterations =  2.0

     Threshold (ethr) on eigenvalues was too large:
     Diagonalizing with lowered threshold

     Davidson diagonalization with overlap
     ethr =  3.72E-04,  avg # of iterations =  4.0

     negative rho (up, down):  2.395E-08 0.000E+00

     total cpu time spent up to now is       18.6 secs

     total energy              =   -2205.56900978 Ry
     estimated scf accuracy    <       1.44039311 Ry

     iteration #  2     ecut=    80.00 Ry     beta= 0.70
     Davidson diagonalization with overlap
     ethr =  4.69E-04,  avg # of iterations =  2.0

     total cpu time spent up to now is       21.1 secs

     total energy              =   -2205.44932051 Ry
     estimated scf accuracy    <       0.54593684 Ry

     iteration #  3     ecut=    80.00 Ry     beta= 0.70
     Davidson diagonalization with overlap
     ethr =  1.78E-04,  avg # of iterations =  2.0

     total cpu time spent up to now is       23.5 secs

     total energy              =   -2205.49829217 Ry
     estimated scf accuracy    <       0.12317722 Ry

     iteration #  4     ecut=    80.00 Ry     beta= 0.70
     Davidson diagonalization with overlap
     ethr =  4.01E-05,  avg # of iterations = 10.0

     total cpu time spent up to now is       26.4 secs

     total energy              =   -2205.51283607 Ry
     estimated scf accuracy    <       0.03094369 Ry

     iteration #  5     ecut=    80.00 Ry     beta= 0.70
     Davidson diagonalization with overlap
     ethr =  1.01E-05,  avg # of iterations =  2.0

     total cpu time spent up to now is       28.7 secs

     total energy              =   -2205.51174747 Ry
     estimated scf accuracy    <       0.01659790 Ry

     iteration #  6     ecut=    80.00 Ry     beta= 0.70
     Davidson diagonalization with overlap
     ethr =  5.41E-06,  avg # of iterations =  5.0

     total cpu time spent up to now is       31.1 secs

     total energy              =   -2205.51091404 Ry
     estimated scf accuracy    <       0.01483093 Ry

     iteration #  7     ecut=    80.00 Ry     beta= 0.70
     Davidson diagonalization with overlap
     ethr =  4.83E-06,  avg # of iterations =  1.0

     total cpu time spent up to now is       34.4 secs

     total energy              =   -2205.50928780 Ry
     estimated scf accuracy    <       0.00797751 Ry

     iteration #  8     ecut=    80.00 Ry     beta= 0.70
     Davidson diagonalization with overlap
     c_bands:  1 eigenvalues not converged
     ethr =  2.60E-06,  avg # of iterations = 20.0

     negative rho (up, down):  4.026E-03 0.000E+00

     total cpu time spent up to now is       39.7 secs

     total energy              =   -2205.50902008 Ry
     estimated scf accuracy    <       0.00366319 Ry

     iteration #  9     ecut=    80.00 Ry     beta= 0.70
     Davidson diagonalization with overlap
     ethr =  1.19E-06,  avg # of iterations = 19.0

     negative rho (up, down):  2.711E-02 0.000E+00

     total cpu time spent up to now is       44.2 secs

     total energy              =   -2205.50894758 Ry
     estimated scf accuracy    <       0.00233108 Ry

     iteration # 10     ecut=    80.00 Ry     beta= 0.70
     Davidson diagonalization with overlap
     ethr =  7.59E-07,  avg # of iterations =  2.0

     negative rho (up, down):  2.853E-02 0.000E+00

     total cpu time spent up to now is       48.5 secs

     total energy              =   -2205.50897024 Ry
     estimated scf accuracy    <       0.00101420 Ry

     iteration # 11     ecut=    80.00 Ry     beta= 0.70
     Davidson diagonalization with overlap
     ethr =  3.30E-07,  avg # of iterations =  2.0

     negative rho (up, down):  1.557E-02 0.000E+00

     total cpu time spent up to now is       53.9 secs

     total energy              =   -2205.50905213 Ry
     estimated scf accuracy    <       0.00025574 Ry

     iteration # 12     ecut=    80.00 Ry     beta= 0.70
     Davidson diagonalization with overlap
     ethr =  8.33E-08,  avg # of iterations =  5.0

     negative rho (up, down):  2.891E-03 0.000E+00

     total cpu time spent up to now is       60.1 secs

     total energy              =   -2205.50910594 Ry
     estimated scf accuracy    <       0.00007423 Ry

     iteration # 13     ecut=    80.00 Ry     beta= 0.70
     Davidson diagonalization with overlap
     ethr =  2.42E-08,  avg # of iterations =  6.0

     negative rho (up, down):  5.142E-04 0.000E+00

     total cpu time spent up to now is       69.4 secs

     total energy              =   -2205.50912932 Ry
     estimated scf accuracy    <       0.00000334 Ry

     iteration # 14     ecut=    80.00 Ry     beta= 0.70
     Davidson diagonalization with overlap
     ethr =  1.09E-09,  avg # of iterations =  5.0

     negative rho (up, down):  1.369E-04 0.000E+00

     total cpu time spent up to now is       72.1 secs

     End of self-consistent calculation

          k = 0.0000 0.0000 0.0000 (105382 PWs)   bands (ev):

   -62.8960 -62.8867 -62.8827 -62.8630 -62.8546 -62.8504 -62.8373 -62.8293
   -62.8214 -62.8007 -62.7970 -62.7896 -37.2513 -37.1887 -37.1734 -37.1606
   -37.1471 -37.1277 -37.1019 -37.0941 -37.0870 -37.0859 -37.0758 -37.0606
   -37.0569 -37.0507 -37.0383 -37.0363 -37.0298 -37.0251 -37.0170 -37.0080
   -36.9990 -36.9796 -36.9694 -36.9582 -36.9531 -36.9436 -36.9417 -36.9267
   -36.9176 -36.9060 -36.8950 -36.8745 -36.8704 -36.8236 -36.7887 -36.7361
   -16.0184 -15.2684 -15.1977 -15.0271 -14.9417 -14.8464 -14.6052 -14.5299
   -14.5053 -14.4322 -14.4059 -14.3535 -14.3392 -14.2955 -14.1718 -14.1556
   -14.1451 -14.1271 -14.0545 -13.9122 -13.8728 -13.8558 -13.8256  -7.8447
    -7.6478  -7.4216  -7.3224  -7.2733  -7.2145  -7.2081  -7.1450  -7.0301
    -6.8480  -6.8013  -6.7766  -6.6926  -6.6365  -6.5444  -6.4488  -6.4219
    -6.2855  -6.2626  -6.0637  -6.0034  -5.9299  -5.8766  -5.8621  -5.7798
    -5.7758  -5.7294  -5.7023  -5.6795  -5.6509  -5.5873  -5.5425  -5.5094
    -5.4585  -5.4424  -5.1820  -5.1540  -5.0793  -5.0535  -5.0087  -4.9620
    -4.9356  -4.8603  -4.6854  -4.5468  -4.3548  -4.3490  -4.3197  -4.2680
    -4.2481  -4.0599  -4.0253  -3.9256  -3.8456  -3.8168  -3.7561  -3.7324
    -3.6939  -3.5823  -3.5474  -3.5352  -3.5162  -3.4857  -3.4683  -3.4134
    -3.3780  -3.2313  -3.1445  -2.9190  -2.9071  -2.8195  -2.8066  -2.7425
    -2.7284  -2.7017  -2.6652  -2.6492  -2.5987  -2.3079  -2.0941  -2.0287
    -2.0040  -1.0257  -0.8472  -0.7503  -0.1966  -0.1628  -0.1103  -0.0838
     0.1007   0.1135   0.1596   0.2156   0.2466   0.2594   0.3060   0.3954
     0.4324   0.5055   0.5198   0.5499   0.5918   0.6488   0.7156   0.7377
     0.7638   0.7752   0.8052   0.8432   0.9320   0.9709   1.0108   1.2746
     1.3750

     the Fermi energy is    -1.0326 ev

!    total energy              =   -2205.50913433 Ry
     estimated scf accuracy    <       0.00000071 Ry
     smearing contrib. (-TS)   =      -0.00658443 Ry
     internal energy E=F+TS    =   -2205.50254990 Ry

     The total energy is F=E-TS. E is the sum of the following terms:
     one-electron contribution =  -18041.97519253 Ry
     hartree contribution      =    9007.47327368 Ry
     xc contribution           =    -385.18411938 Ry
     ewald contribution        =    7214.18348832 Ry

     convergence has been achieved in  14 iterations

     negative rho (up, down):  1.369E-04 0.000E+00

     Forces acting on atoms (cartesian axes, Ry/au):

     atom    1 type  1   force =     0.01267986   -0.02482928    0.00626414
     atom    2 type  2   force =    -0.01482765    0.01678883    0.00019058
     atom    3 type  2   force =    -0.01130147    0.00880897   -0.00274980
     atom    4 type  1   force =     0.00659174    0.00963944    0.00397860
     atom    5 type  2   force =    -0.00318564   -0.00799710   -0.00534232
     atom    6 type  2   force =     0.00062146    0.00815874   -0.00286334
     atom    7 type  1   force =    -0.00847846   -0.00938595   -0.01871080
     atom    8 type  2   force =     0.05921540   -0.02095140    0.05132254
     atom    9 type  2   force =     0.01262820    0.00720064    0.01189105
     atom   10 type  1   force =    -0.01074162    0.00819335   -0.02772583
     atom   11 type  2   force =     0.00408114    0.00190553   -0.00738706
     atom   12 type  2   force =    -0.00051320   -0.00121426    0.00522361
     atom   13 type  1   force =     0.00538746    0.00417097   -0.00708938
     atom   14 type  2   force =     0.00825001    0.00002374    0.01242945
     atom   15 type  2   force =    -0.01237610    0.00254606   -0.00811779
     atom   16 type  1   force =    -0.00246916    0.01405991    0.00419305
     atom   17 type  2   force =     0.00640994    0.00027865    0.00153354
     atom   18 type  2   force =    -0.00200980   -0.00789283    0.01193582
     atom   19 type  1   force =     0.01025653   -0.00753936   -0.00933330
     atom   20 type  2   force =     0.00317962   -0.00504376    0.00077129
     atom   21 type  1   force =    -0.00973204    0.00914610   -0.00035349
     atom   22 type  2   force =    -0.00237557   -0.00036646   -0.00194729
     atom   23 type  2   force =    -0.00007064    0.00232824    0.00975414
     atom   24 type  1   force =    -0.00710278   -0.00397117   -0.02630245
     atom   25 type  2   force =     0.01657088    0.01819042    0.00799458
     atom   26 type  2   force =    -0.01249188   -0.00064374   -0.00326671
     atom   27 type  1   force =    -0.00127890    0.00293134    0.01059903
     atom   28 type  2   force =    -0.00086973    0.00330316   -0.00086531
     atom   29 type  2   force =     0.00218039   -0.00175853   -0.00342687
     atom   30 type  1   force =    -0.00334455    0.01386357   -0.01799202
     atom   31 type  2   force =    -0.01287522   -0.00204522    0.02151430
     atom   32 type  2   force =    -0.00885164    0.00696003    0.00802650
     atom   33 type  1   force =     0.01359405   -0.00727842   -0.00979207
     atom   34 type  2   force =     0.00295211   -0.04339668   -0.00983565
     atom   35 type  2   force =    -0.00891131    0.00794243    0.01561681
     atom   36 type  3   force =    -0.03079144   -0.00212594   -0.02013757
     The non-local contrib.  to forces
     atom    1 type  1   force =    -0.00137860    0.03206070   -0.01233905
     atom    2 type  2   force =    -0.01126062    0.00140401   -0.27158128
     atom    3 type  2   force =    -0.01467204   -0.00270082    0.27075335
     atom    4 type  1   force =     0.00123288    0.00811286    0.00486875
     atom    5 type  2   force =     0.00274307   -0.03502664   -0.25277463
     atom    6 type  2   force =    -0.00297554    0.01109745    0.26308330
     atom    7 type  1   force =    -0.00574136   -0.01208601   -0.01942188
     atom    8 type  2   force =     0.16504326   -0.03639969   -0.05778478
     atom    9 type  2   force =     0.00885769   -0.00756683    0.28151806
     atom   10 type  1   force =     0.00567708    0.00442141   -0.00186583
     atom   11 type  2   force =     0.00787012    0.01350789   -0.25282423
     atom   12 type  2   force =    -0.01073560   -0.01878069    0.26378427
     atom   13 type  1   force =    -0.00003266    0.01824976   -0.00748551
     atom   14 type  2   force =     0.01148046   -0.00937519   -0.26145251
     atom   15 type  2   force =    -0.01316390   -0.00539277    0.26028569
     atom   16 type  1   force =     0.00165162    0.02600521   -0.02844256
     atom   17 type  2   force =     0.00228501   -0.02860786   -0.24900440
     atom   18 type  2   force =    -0.00232368   -0.00345870    0.27388935
     atom   19 type  1   force =     0.01480726   -0.00264780   -0.01200968
     atom   20 type  2   force =     0.00110291   -0.01801479    0.26833765
     atom   21 type  1   force =     0.00143643    0.02747572    0.00757806
     atom   22 type  2   force =    -0.00678881    0.00562093   -0.25605807
     atom   23 type  2   force =     0.00684889   -0.01424805    0.26810639
     atom   24 type  1   force =     0.00478553    0.01393197   -0.01222690
     atom   25 type  2   force =     0.01152659    0.00526912   -0.26081525
     atom   26 type  2   force =    -0.00300363   -0.01302759    0.26347951
     atom   27 type  1   force =    -0.00486401    0.00690492    0.00981099
     atom   28 type  2   force =    -0.00108067   -0.00767336   -0.27070358
     atom   29 type  2   force =     0.00582841    0.00700919    0.26259721
     atom   30 type  1   force =     0.00131625    0.02004650    0.01358772
     atom   31 type  2   force =    -0.03440519   -0.01085719   -0.20337108
     atom   32 type  2   force =    -0.00378157   -0.00895361    0.27612576
     atom   33 type  1   force =    -0.00512444    0.01024556    0.00537680
     atom   34 type  2   force =     0.00069719   -0.04001479   -0.27082413
     atom   35 type  2   force =    -0.00227787   -0.01249461    0.27144795
     atom   36 type  3   force =    -0.00798481    0.00111914   -0.01002303
     The ionic contribution  to forces
     atom    1 type  1   force =     0.33113458    0.14641591    5.68092959
     atom    2 type  2   force =    -0.68695386    0.38958342   39.27498989
     atom    3 type  2   force =    -0.17214845    0.01090834  -36.08527449
     atom    4 type  1   force =    -0.12066385    0.31529518    0.26817517
     atom    5 type  2   force =    -1.07797691    1.38228128   38.70831600
     atom    6 type  2   force =     0.32499339   -0.52968095  -38.04318838
     atom    7 type  1   force =    -2.80813839   -2.66830606    2.38280974
     atom    8 type  2   force =    -1.66804493    0.16836513   36.78195506
     atom    9 type  2   force =     0.31036858   -0.02838282  -38.08772202
     atom   10 type  1   force =    -1.16228802   -0.14814992    5.58712995
     atom   11 type  2   force =    -0.64469044   -1.50160067   39.11466012
     atom   12 type  2   force =     0.42424302    0.72232983  -37.86529332
     atom   13 type  1   force =     0.52408026    0.91751987    2.84740723
     atom   14 type  2   force =     0.05517808   -0.01438194   38.52195011
     atom   15 type  2   force =     0.15541595   -0.06738326  -36.79243549
     atom   16 type  1   force =    -0.04776945    3.86978195    0.40828124
     atom   17 type  2   force =     0.89016527    1.41221456   37.90517303
     atom   18 type  2   force =    -0.14521741   -0.67098205  -38.57706924
     atom   19 type  1   force =     2.85906188   -2.35628248    0.51870357
     atom   20 type  2   force =     0.22409541   -0.19258590  -38.49898438
     atom   21 type  1   force =     0.02757281    0.12655063    1.16291880
     atom   22 type  2   force =     0.51741755   -1.63353827   38.41349841
     atom   23 type  2   force =    -0.07247275    0.69146952  -38.29549985
     atom   24 type  1   force =    -0.53799142    1.00472928    5.77632756
     atom   25 type  2   force =     0.68565854    0.26994140   39.26476821
     atom   26 type  2   force =    -0.27847572    0.05946142  -37.33000512
     atom   27 type  1   force =     0.24321394    0.19693598   -2.56116090
     atom   28 type  2   force =     0.09416806    0.61579295   38.03660999
     atom   29 type  2   force =    -0.26170696   -0.47530451  -37.31664770
     atom   30 type  1   force =    -0.27362317   -0.59377000   -0.69956149
     atom   31 type  2   force =     1.72066358    0.01223144   37.00527303
     atom   32 type  2   force =    -0.44617711    0.00098508  -38.70400010
     atom   33 type  1   force =     0.86434187   -0.71493824    2.00788146
     atom   34 type  2   force =     0.26458218   -1.17297690   39.27194456
     atom   35 type  2   force =    -0.29670339    0.52272309  -37.85126852
     atom   36 type  3   force =     0.18468729   -0.06725228    7.76840830
     The local contribution  to forces
     atom    1 type  1   force =    -0.31692220   -0.20293974   -5.66231239
     atom    2 type  2   force =     0.68318013   -0.37411060  -39.02357716
     atom    3 type  2   force =     0.17485555    0.00058718   35.83216116
     atom    4 type  1   force =     0.12620833   -0.31389510   -0.26910621
     atom    5 type  2   force =     1.07257259   -1.35706057  -38.48090361
     atom    6 type  2   force =    -0.32174368    0.52789240   37.79769022
     atom    7 type  1   force =     2.80586217    2.67125693   -2.38190881
     atom    8 type  2   force =     1.57098540   -0.15500472  -36.68248884
     atom    9 type  2   force =    -0.30628845    0.04269278   37.83884369
     atom   10 type  1   force =     1.14586250    0.15146154   -5.61272915
     atom   11 type  2   force =     0.64143330    1.49077732  -38.88919546
     atom   12 type  2   force =    -0.41505413   -0.70629155   37.62715194
     atom   13 type  1   force =    -0.51878563   -0.93121123   -2.84706619
     atom   14 type  2   force =    -0.05778239    0.02378929  -38.26816381
     atom   15 type  2   force =    -0.15532785    0.07496253   36.54397109
     atom   16 type  1   force =     0.04370934   -3.88218680   -0.37563582
     atom   17 type  2   force =    -0.88606536   -1.38478063  -37.67450610
     atom   18 type  2   force =     0.14558183    0.66704375   38.33569706
     atom   19 type  1   force =    -2.86399046    2.35161503   -0.51602540
     atom   20 type  2   force =    -0.22208259    0.20485738   38.25206369
     atom   21 type  1   force =    -0.03862402   -0.14520240   -1.17102395
     atom   22 type  2   force =    -0.51326290    1.62807089  -38.17940570
     atom   23 type  2   force =     0.06609752   -0.67614753   38.05758379
     atom   24 type  1   force =     0.52605688   -1.02233520   -5.79017110
     atom   25 type  2   force =    -0.68053553   -0.25657941  -39.01618187
     atom   26 type  2   force =     0.26910263   -0.04773146   37.08356946
     atom   27 type  1   force =    -0.23982122   -0.20100316    2.56182717
     atom   28 type  2   force =    -0.09414553   -0.60574414  -37.78714799
     atom   29 type  2   force =     0.25857164    0.46741452   37.07070770
     atom   30 type  1   force =     0.26881883    0.58755525    0.66801236
     atom   31 type  2   force =    -1.70110917   -0.00395637  -36.79805560
     atom   32 type  2   force =     0.44110258    0.01438070   38.45655004
     atom   33 type  1   force =    -0.84570717    0.69697701   -2.02298401
     atom   34 type  2   force =    -0.26273134    1.16812281  -39.03152816
     atom   35 type  2   force =     0.29014714   -0.50345201   37.61610536
     atom   36 type  3   force =    -0.20748931    0.06400757   -7.77848368
     The core correction contribution to forces
     atom    1 type  1   force =     0.00000000    0.00000000    0.00000000
     atom    2 type  2   force =     0.00030460   -0.00009811    0.02081237
     atom    3 type  2   force =     0.00067952    0.00003012   -0.02090976
     atom    4 type  1   force =     0.00000000    0.00000000    0.00000000
     atom    5 type  2   force =    -0.00044805    0.00187861    0.02034729
     atom    6 type  2   force =     0.00033348   -0.00110566   -0.02088925
     atom    7 type  1   force =     0.00000000    0.00000000    0.00000000
     atom    8 type  2   force =    -0.00864790    0.00215870    0.01015806
     atom    9 type  2   force =    -0.00020551    0.00045811   -0.02122465
     atom   10 type  1   force =     0.00000000    0.00000000    0.00000000
     atom   11 type  2   force =    -0.00039266   -0.00080882    0.02032302
     atom   12 type  2   force =     0.00105164    0.00149846   -0.02085203
     atom   13 type  1   force =     0.00000000    0.00000000    0.00000000
     atom   14 type  2   force =    -0.00061274   -0.00002467    0.02058603
     atom   15 type  2   force =     0.00070936    0.00035824   -0.02052909
     atom   16 type  1   force =     0.00000000    0.00000000    0.00000000
     atom   17 type  2   force =    -0.00001061    0.00147554    0.02020829
     atom   18 type  2   force =    -0.00001466   -0.00047680   -0.02104506
     atom   19 type  1   force =     0.00000000    0.00000000    0.00000000
     atom   20 type  2   force =     0.00007246    0.00065256   -0.02130793
     atom   21 type  1   force =     0.00000000    0.00000000    0.00000000
     atom   22 type  2   force =     0.00017207   -0.00053306    0.02039223
     atom   23 type  2   force =    -0.00055774    0.00122989   -0.02090651
     atom   24 type  1   force =     0.00000000    0.00000000    0.00000000
     atom   25 type  2   force =    -0.00019335   -0.00040698    0.02070486
     atom   26 type  2   force =    -0.00013736    0.00071176   -0.02085951
     atom   27 type  1   force =     0.00000000    0.00000000    0.00000000
     atom   28 type  2   force =     0.00016265    0.00095458    0.02079822
     atom   29 type  2   force =    -0.00052963   -0.00083007   -0.02052505
     atom   30 type  1   force =     0.00000000    0.00000000    0.00000000
     atom   31 type  2   force =     0.00181070    0.00056163    0.01816038
     atom   32 type  2   force =    -0.00009991    0.00054975   -0.02115716
     atom   33 type  1   force =     0.00000000    0.00000000    0.00000000
     atom   34 type  2   force =     0.00033839    0.00135053    0.02099372
     atom   35 type  2   force =    -0.00008605    0.00104817   -0.02111239
     atom   36 type  3   force =     0.00000000    0.00000000    0.00000000
     The Hubbard contrib.    to forces
     atom    1 type  1   force =     0.00000000    0.00000000    0.00000000
     atom    2 type  2   force =     0.00000000    0.00000000    0.00000000
     atom    3 type  2   force =     0.00000000    0.00000000    0.00000000
     atom    4 type  1   force =     0.00000000    0.00000000    0.00000000
     atom    5 type  2   force =     0.00000000    0.00000000    0.00000000
     atom    6 type  2   force =     0.00000000    0.00000000    0.00000000
     atom    7 type  1   force =     0.00000000    0.00000000    0.00000000
     atom    8 type  2   force =     0.00000000    0.00000000    0.00000000
     atom    9 type  2   force =     0.00000000    0.00000000    0.00000000
     atom   10 type  1   force =     0.00000000    0.00000000    0.00000000
     atom   11 type  2   force =     0.00000000    0.00000000    0.00000000
     atom   12 type  2   force =     0.00000000    0.00000000    0.00000000
     atom   13 type  1   force =     0.00000000    0.00000000    0.00000000
     atom   14 type  2   force =     0.00000000    0.00000000    0.00000000
     atom   15 type  2   force =     0.00000000    0.00000000    0.00000000
     atom   16 type  1   force =     0.00000000    0.00000000    0.00000000
     atom   17 type  2   force =     0.00000000    0.00000000    0.00000000
     atom   18 type  2   force =     0.00000000    0.00000000    0.00000000
     atom   19 type  1   force =     0.00000000    0.00000000    0.00000000
     atom   20 type  2   force =     0.00000000    0.00000000    0.00000000
     atom   21 type  1   force =     0.00000000    0.00000000    0.00000000
     atom   22 type  2   force =     0.00000000    0.00000000    0.00000000
     atom   23 type  2   force =     0.00000000    0.00000000    0.00000000
     atom   24 type  1   force =     0.00000000    0.00000000    0.00000000
     atom   25 type  2   force =     0.00000000    0.00000000    0.00000000
     atom   26 type  2   force =     0.00000000    0.00000000    0.00000000
     atom   27 type  1   force =     0.00000000    0.00000000    0.00000000
     atom   28 type  2   force =     0.00000000    0.00000000    0.00000000
     atom   29 type  2   force =     0.00000000    0.00000000    0.00000000
     atom   30 type  1   force =     0.00000000    0.00000000    0.00000000
     atom   31 type  2   force =     0.00000000    0.00000000    0.00000000
     atom   32 type  2   force =     0.00000000    0.00000000    0.00000000
     atom   33 type  1   force =     0.00000000    0.00000000    0.00000000
     atom   34 type  2   force =     0.00000000    0.00000000    0.00000000
     atom   35 type  2   force =     0.00000000    0.00000000    0.00000000
     atom   36 type  3   force =     0.00000000    0.00000000    0.00000000
     The SCF correction term to forces
     atom    1 type  1   force =    -0.00015354   -0.00036973   -0.00001325
     atom    2 type  2   force =    -0.00009753    0.00000654   -0.00045248
     atom    3 type  2   force =    -0.00001567   -0.00001942    0.00052068
     atom    4 type  1   force =    -0.00018523    0.00012293    0.00004164
     atom    5 type  2   force =    -0.00007596   -0.00007336   -0.00032662
     atom    6 type  2   force =     0.00001419   -0.00004807    0.00044152
     atom    7 type  1   force =    -0.00046049   -0.00025439   -0.00018910
     atom    8 type  2   force =    -0.00012006   -0.00007439   -0.00051621
     atom    9 type  2   force =    -0.00010373   -0.00000418    0.00047672
     atom   10 type  1   force =     0.00000721    0.00045675   -0.00026004
     atom   11 type  2   force =    -0.00013880    0.00002624   -0.00034976
     atom   12 type  2   force =    -0.00001775    0.00002610    0.00043350
     atom   13 type  1   force =     0.00012587   -0.00039100    0.00005584
     atom   14 type  2   force =    -0.00001302    0.00001267   -0.00048963
     atom   15 type  2   force =    -0.00000927   -0.00000225    0.00059077
     atom   16 type  1   force =    -0.00006029    0.00045597   -0.00000905
     atom   17 type  2   force =     0.00003602   -0.00002654   -0.00033654
     atom   18 type  2   force =    -0.00003550   -0.00002260    0.00046445
     atom   19 type  1   force =     0.00037824   -0.00022768   -0.00000105
     atom   20 type  2   force =    -0.00000818    0.00004341    0.00066302
     atom   21 type  1   force =    -0.00011688    0.00031858    0.00017436
     atom   22 type  2   force =     0.00008692    0.00000948   -0.00037341
     atom   23 type  2   force =     0.00001383    0.00002083    0.00047108
     atom   24 type  1   force =     0.00004661   -0.00030080   -0.00023126
     atom   25 type  2   force =     0.00011501   -0.00003729   -0.00048062
     atom   26 type  2   force =     0.00002258   -0.00006145    0.00054971
     atom   27 type  1   force =     0.00019278    0.00009002    0.00012252
     atom   28 type  2   force =     0.00002615   -0.00003043   -0.00042119
     atom   29 type  2   force =     0.00001732   -0.00005123    0.00044173
     atom   30 type  1   force =     0.00014393    0.00002825   -0.00002986
     atom   31 type  2   force =     0.00016525   -0.00002831   -0.00049168
     atom   32 type  2   force =     0.00010476   -0.00000546    0.00050871
     atom   33 type  1   force =     0.00008418    0.00043367   -0.00006557
     atom   34 type  2   force =     0.00006607    0.00011810   -0.00042089
     atom   35 type  2   force =     0.00000924    0.00011423    0.00044516
     atom   36 type  3   force =    -0.00000423   -0.00000395   -0.00003841

     Total force =     0.138268     Total SCF correction =     0.002687

     BFGS Geometry Optimization
     Energy error            =      0.0E+00 Ry
     Gradient error          =      5.9E-02 Ry/Bohr

     number of scf cycles    =   1
     number of bfgs steps    =   0

     energy             new  =   -2205.5091343306 Ry

     new trust radius        =       0.0811136714 bohr
     new conv_thr            =       0.0000010000 Ry


ATOMIC_POSITIONS (angstrom)
Mo            6.5812583023        1.7746671411        2.8269578731
S             8.1688628865        0.8185882923        4.4346392057
S             8.1872526044        0.8159032485        1.2764282962
Mo            8.0986507659        4.5001579168        2.7199237798
S             6.4982234905        3.7181796056        4.3438336147
S             6.5536786617        3.5160549771        1.1197650158
Mo            6.4854950905        7.2134704513        2.6619831534
S             8.1130631671        6.3327839884        4.2696202822
S             8.0876002005        6.3085127299        1.0901554698
Mo            8.1549348284        9.9065161483        2.8287898854
S             6.4973272399        8.9439351786        4.3791964702
S             6.6176756239        9.0480686527        1.1426715176
Mo            3.4245105818        1.7491630321        2.7727196235
S             4.9795312059        0.8169537694        4.3571104718
S             5.0512846063        0.8476094268        1.2223627129
Mo            4.9784500556        4.5206181869        2.6351034171
S             3.4312336586        3.6717471391        4.2805210930
S             3.4368570419        3.5440519932        1.0646678451
Mo            3.4592892633        7.2123348807        2.6257378923
S             4.9849167776        6.3242632412        1.0376618827
Mo            5.0071139438        9.9064399585        2.7432138997
S             3.4697010201        8.9435573446        4.3245608489
S             3.4083917867        9.0662220352        1.1012299686
Mo            0.2923318552        1.7454080783        2.8355260541
S             1.8592311443        0.8023199605        4.4024399893
S             1.8541896163        0.8540852642        1.2076721874
Mo            1.8600145471        4.4972179578        2.6658061452
S             0.2717536103        3.6561467850        4.3371261971
S             0.2323850221        3.5263186532        1.1702044640
Mo            0.2693822903        7.2239823804        2.6921754611
S             1.8954249738        6.3117165524        4.2338289968
S             1.8575541298        6.3140269019        1.0488067234
Mo            1.8515403256        9.9362875786        2.7677645123
S             0.2974750889        9.0670332935        4.4086646645
S             0.2720557350        9.0477286664        1.1586648408
H            -0.0162941299        6.0704861114        5.4672270813



     Writing config-only to output data dir ./MoS2-V-O.save/
     NEW-OLD atomic charge density approx. for the potential

     negative rho (up, down):  1.451E-04 0.000E+00

     total cpu time spent up to now is       75.6 secs

     Self-consistent Calculation

     iteration #  1     ecut=    80.00 Ry     beta= 0.70
     Davidson diagonalization with overlap
     ethr =  1.00E-06,  avg # of iterations = 17.0

     negative rho (up, down):  6.030E-05 0.000E+00

     total cpu time spent up to now is       88.7 secs

     total energy              =   -2205.52534253 Ry
     estimated scf accuracy    <       0.00250491 Ry

     iteration #  2     ecut=    80.00 Ry     beta= 0.70
     Davidson diagonalization with overlap
     ethr =  8.16E-07,  avg # of iterations =  5.0

     negative rho (up, down):  4.834E-05 0.000E+00

     total cpu time spent up to now is      107.6 secs

     total energy              =   -2205.52547033 Ry
     estimated scf accuracy    <       0.00039188 Ry

     iteration #  3     ecut=    80.00 Ry     beta= 0.70
     Davidson diagonalization with overlap
     ethr =  1.28E-07,  avg # of iterations =  2.0

     negative rho (up, down):  4.114E-05 0.000E+00

     total cpu time spent up to now is      122.0 secs

     total energy              =   -2205.52549063 Ry
     estimated scf accuracy    <       0.00011106 Ry

     iteration #  4     ecut=    80.00 Ry     beta= 0.70
     Davidson diagonalization with overlap
     ethr =  3.62E-08,  avg # of iterations =  5.0

     negative rho (up, down):  3.937E-05 0.000E+00

     total cpu time spent up to now is      135.0 secs

     total energy              =   -2205.52550682 Ry
     estimated scf accuracy    <       0.00001330 Ry

     iteration #  5     ecut=    80.00 Ry     beta= 0.70
     Davidson diagonalization with overlap
     ethr =  4.33E-09,  avg # of iterations =  7.0

     negative rho (up, down):  3.896E-05 0.000E+00

     total cpu time spent up to now is      148.8 secs

     total energy              =   -2205.52551097 Ry
     estimated scf accuracy    <       0.00000582 Ry

     iteration #  6     ecut=    80.00 Ry     beta= 0.70
     Davidson diagonalization with overlap
     ethr =  1.90E-09,  avg # of iterations =  2.0

     negative rho (up, down):  3.983E-05 0.000E+00

     total cpu time spent up to now is      161.5 secs

     total energy              =   -2205.52551160 Ry
     estimated scf accuracy    <       0.00000184 Ry

     iteration #  7     ecut=    80.00 Ry     beta= 0.70
     Davidson diagonalization with overlap
     ethr =  5.98E-10,  avg # of iterations =  3.0

     negative rho (up, down):  4.211E-05 0.000E+00

     total cpu time spent up to now is      172.8 secs

     total energy              =   -2205.52551194 Ry
     estimated scf accuracy    <       0.00000112 Ry

     iteration #  8     ecut=    80.00 Ry     beta= 0.70
     Davidson diagonalization with overlap
     ethr =  3.64E-10,  avg # of iterations =  2.0

     negative rho (up, down):  1.372E-04 0.000E+00

     total cpu time spent up to now is      175.0 secs

     End of self-consistent calculation

          k = 0.0000 0.0000 0.0000 (105382 PWs)   bands (ev):

   -62.8949 -62.8827 -62.8753 -62.8570 -62.8478 -62.8431 -62.8316 -62.8243
   -62.8121 -62.7965 -62.7909 -62.7733 -37.2420 -37.1794 -37.1671 -37.1532
   -37.1362 -37.1222 -37.0976 -37.0856 -37.0822 -37.0798 -37.0686 -37.0597
   -37.0502 -37.0435 -37.0313 -37.0292 -37.0242 -37.0182 -37.0099 -37.0036
   -36.9889 -36.9721 -36.9542 -36.9513 -36.9471 -36.9382 -36.9359 -36.9231
   -36.9060 -36.9020 -36.8869 -36.8709 -36.8643 -36.8191 -36.7838 -36.7203
   -16.0146 -15.2765 -15.1929 -15.0114 -14.9320 -14.8470 -14.6034 -14.5145
   -14.4982 -14.4245 -14.4074 -14.3444 -14.3354 -14.2929 -14.1730 -14.1426
   -14.1364 -14.1259 -14.0527 -13.8976 -13.8667 -13.8480 -13.8349  -7.9008
    -7.6461  -7.4166  -7.3064  -7.2570  -7.2160  -7.2063  -7.1459  -7.0441
    -6.8428  -6.7898  -6.7684  -6.6814  -6.6375  -6.5349  -6.4389  -6.4063
    -6.2801  -6.2511  -6.0762  -5.9923  -5.9220  -5.8620  -5.8614  -5.7764
    -5.7722  -5.7231  -5.7046  -5.6748  -5.6636  -5.5838  -5.5439  -5.5000
    -5.4368  -5.4012  -5.1637  -5.1419  -5.0610  -5.0534  -4.9901  -4.9689
    -4.9398  -4.8692  -4.6706  -4.5466  -4.3774  -4.3304  -4.3209  -4.2556
    -4.2417  -4.0652  -4.0222  -3.9456  -3.8344  -3.8008  -3.7441  -3.7332
    -3.6897  -3.5653  -3.5411  -3.5349  -3.5150  -3.4886  -3.4663  -3.4190
    -3.3656  -3.2237  -3.1478  -2.9057  -2.9030  -2.8069  -2.7948  -2.7259
    -2.7241  -2.7068  -2.6714  -2.6429  -2.6013  -2.2998  -2.1211  -2.0171
    -2.0055  -1.0113  -0.8330  -0.7348  -0.1843  -0.1650  -0.0905  -0.0873
     0.0994   0.1213   0.1798   0.2378   0.2628   0.2825   0.3180   0.4020
     0.4387   0.5147   0.5352   0.5519   0.6076   0.6592   0.6989   0.7405
     0.7647   0.7837   0.8108   0.8538   0.9588   0.9704   1.0160   1.2949
     1.3779

     the Fermi energy is    -1.0182 ev

!    total energy              =   -2205.52551143 Ry
     estimated scf accuracy    <       0.00000067 Ry
     smearing contrib. (-TS)   =      -0.00658559 Ry
     internal energy E=F+TS    =   -2205.51892584 Ry

     The total energy is F=E-TS. E is the sum of the following terms:
     one-electron contribution =  -18041.24701360 Ry
     hartree contribution      =    9007.23526122 Ry
     xc contribution           =    -385.18771228 Ry
     ewald contribution        =    7213.68053882 Ry

     convergence has been achieved in   8 iterations

     negative rho (up, down):  1.372E-04 0.000E+00

     Forces acting on atoms (cartesian axes, Ry/au):

     atom    1 type  1   force =     0.00296949   -0.01242640    0.00038113
     atom    2 type  2   force =    -0.00847480    0.01045571   -0.00239667
     atom    3 type  2   force =    -0.01061840    0.00702563   -0.00894710
     atom    4 type  1   force =     0.00709075    0.00604257    0.00545831
     atom    5 type  2   force =    -0.00162305   -0.00704351   -0.00555307
     atom    6 type  2   force =     0.00078333    0.00582039    0.00123522
     atom    7 type  1   force =     0.00175482   -0.00900691   -0.00364833
     atom    8 type  2   force =     0.05238891   -0.01477574    0.04411487
     atom    9 type  2   force =     0.00996811    0.00597234    0.00741689
     atom   10 type  1   force =    -0.00469151    0.00592871   -0.00938881
     atom   11 type  2   force =     0.00312016   -0.00002899   -0.01045058
     atom   12 type  2   force =    -0.00398564   -0.00088486    0.00042580
     atom   13 type  1   force =     0.00435203    0.00271818   -0.00259939
     atom   14 type  2   force =     0.00578731    0.00008103    0.00900231
     atom   15 type  2   force =    -0.00879075    0.00226821   -0.00684453
     atom   16 type  1   force =    -0.00115335    0.01009184    0.00297969
     atom   17 type  2   force =     0.00544892    0.00081975    0.00181088
     atom   18 type  2   force =    -0.00169488   -0.00437017    0.01044179
     atom   19 type  1   force =     0.00365710   -0.00641424   -0.00026181
     atom   20 type  2   force =     0.00208974   -0.00481068   -0.00519562
     atom   21 type  1   force =    -0.00644173    0.00611557    0.00176190
     atom   22 type  2   force =    -0.00104597   -0.00153907   -0.00255741
     atom   23 type  2   force =     0.00141425    0.00123765    0.00466080
     atom   24 type  1   force =    -0.00439138   -0.00155188   -0.01047293
     atom   25 type  2   force =     0.01130093    0.01356768    0.00031743
     atom   26 type  2   force =    -0.00788293   -0.00127267   -0.00457562
     atom   27 type  1   force =    -0.00149282    0.00130096    0.00799491
     atom   28 type  2   force =    -0.00064740   -0.00155213   -0.00291689
     atom   29 type  2   force =     0.00180195    0.00144611   -0.00367480
     atom   30 type  1   force =    -0.00040594    0.00340391   -0.00224639
     atom   31 type  2   force =    -0.00714604    0.00131389    0.01183750
     atom   32 type  2   force =    -0.00681699    0.00521950    0.00535977
     atom   33 type  1   force =     0.00619665   -0.00297949    0.00048201
     atom   34 type  2   force =     0.00022126   -0.03116588   -0.01527042
     atom   35 type  2   force =    -0.00679826    0.01009211    0.00633603
     atom   36 type  3   force =    -0.03624388   -0.00109912   -0.02501686
     The non-local contrib.  to forces
     atom    1 type  1   force =     0.00006934    0.02837739   -0.01287418
     atom    2 type  2   force =    -0.00709205   -0.00301480   -0.27134276
     atom    3 type  2   force =    -0.01248574   -0.00488954    0.26543749
     atom    4 type  1   force =     0.00201365    0.01105127    0.00265485
     atom    5 type  2   force =     0.00361374   -0.03448919   -0.25388106
     atom    6 type  2   force =    -0.00325876    0.00862643    0.26732722
     atom    7 type  1   force =    -0.00663618   -0.01403109   -0.02155796
     atom    8 type  2   force =     0.18245100   -0.03925468   -0.04822721
     atom    9 type  2   force =     0.00691888   -0.00763558    0.27912577
     atom   10 type  1   force =     0.00402811    0.00471911   -0.00301649
     atom   11 type  2   force =     0.00554717    0.01288989   -0.25441850
     atom   12 type  2   force =    -0.01294976   -0.01923075    0.26218672
     atom   13 type  1   force =     0.00126796    0.01916519   -0.00753264
     atom   14 type  2   force =     0.00980895   -0.00848426   -0.26274368
     atom   15 type  2   force =    -0.01024286   -0.00557068    0.26038602
     atom   16 type  1   force =     0.00093044    0.02782703   -0.03055870
     atom   17 type  2   force =     0.00134345   -0.02698212   -0.24898121
     atom   18 type  2   force =    -0.00166056   -0.00088653    0.27351913
     atom   19 type  1   force =     0.01867150   -0.00111341   -0.01332591
     atom   20 type  2   force =     0.00046928   -0.01651094    0.26381677
     atom   21 type  1   force =     0.00028378    0.02780173    0.00585211
     atom   22 type  2   force =    -0.00545422    0.00390344   -0.25723340
     atom   23 type  2   force =     0.00786137   -0.01591089    0.26508874
     atom   24 type  1   force =     0.00295251    0.01393136   -0.01154174
     atom   25 type  2   force =     0.00798262    0.00131689   -0.26556143
     atom   26 type  2   force =     0.00031780   -0.01301092    0.26293765
     atom   27 type  1   force =    -0.00479909    0.00651738    0.00784548
     atom   28 type  2   force =    -0.00072041   -0.01011972   -0.27308018
     atom   29 type  2   force =     0.00507079    0.00749682    0.26376551
     atom   30 type  1   force =     0.00083532    0.02050408    0.01199642
     atom   31 type  2   force =    -0.02768621   -0.00886500   -0.21271601
     atom   32 type  2   force =    -0.00204581   -0.00903400    0.27503764
     atom   33 type  1   force =    -0.00260799    0.00856380    0.00370160
     atom   34 type  2   force =    -0.00111176   -0.03078616   -0.27411418
     atom   35 type  2   force =    -0.00103939   -0.01085109    0.26596793
     atom   36 type  3   force =    -0.01028233    0.00154708   -0.01195255
     The ionic contribution  to forces
     atom    1 type  1   force =     0.10777190    0.53385647    5.79183667
     atom    2 type  2   force =    -0.47934733    0.26768628   39.34104667
     atom    3 type  2   force =    -0.17302561    0.04746363  -36.19405607
     atom    4 type  1   force =    -0.31092236    0.23989901    0.40050132
     atom    5 type  2   force =    -1.07793472    1.37776042   38.59567538
     atom    6 type  2   force =     0.29929453   -0.56358023  -37.92543670
     atom    7 type  1   force =    -2.50836405   -2.62485524    2.32410304
     atom    8 type  2   force =    -1.88384781    0.31315140   36.93968515
     atom    9 type  2   force =     0.27961415   -0.09167410  -38.03244611
     atom   10 type  1   force =    -0.96305562   -0.21005803    5.29538513
     atom   11 type  2   force =    -0.58657678   -1.57295459   39.03363347
     atom   12 type  2   force =     0.35031789    0.69999852  -37.83631345
     atom   13 type  1   force =     0.47319605    0.91893366    2.77659000
     atom   14 type  2   force =    -0.01329593    0.01150937   38.61376713
     atom   15 type  2   force =     0.18437717   -0.00179345  -36.84289351
     atom   16 type  1   force =     0.08314833    3.62106590    0.59766964
     atom   17 type  2   force =     0.89393296    1.37089628   37.91345425
     atom   18 type  2   force =    -0.13624969   -0.62314991  -38.49534949
     atom   19 type  1   force =     2.70186160   -2.33785623    0.46451032
     atom   20 type  2   force =     0.20081334   -0.23816618  -38.60012882
     atom   21 type  1   force =     0.09437448    0.03883072    1.31088641
     atom   22 type  2   force =     0.51487567   -1.66415350   38.44027018
     atom   23 type  2   force =    -0.05365438    0.65896040  -38.28909222
     atom   24 type  1   force =    -0.35696374    0.92797850    5.39117956
     atom   25 type  2   force =     0.54697079    0.21848502   39.23204430
     atom   26 type  2   force =    -0.22424414    0.06078175  -37.30364015
     atom   27 type  1   force =     0.26920942    0.17449997   -2.26154982
     atom   28 type  2   force =     0.10493768    0.45755561   38.01368498
     atom   29 type  2   force =    -0.25170803   -0.40159294  -37.32335853
     atom   30 type  1   force =    -0.27871918   -0.67901490   -1.06844870
     atom   31 type  2   force =     1.76939851    0.08515352   37.06803111
     atom   32 type  2   force =    -0.41090310   -0.06623000  -38.65834942
     atom   33 type  1   force =     0.65661238   -0.48841706    2.10583149
     atom   34 type  2   force =     0.19877825   -0.95332311   39.17185342
     atom   35 type  2   force =    -0.24660191    0.56543771  -37.80053638
     atom   36 type  3   force =     0.22592924   -0.07308467    7.80995974
     The local contribution  to forces
     atom    1 type  1   force =    -0.10472786   -0.57498462   -5.77943608
     atom    2 type  2   force =     0.47756349   -0.25416085  -39.09345325
     atom    3 type  2   force =     0.17433474   -0.03574315   35.94034721
     atom    4 type  1   force =     0.31616168   -0.24522529   -0.39884507
     atom    5 type  2   force =     1.07318825   -1.35223410  -38.36802036
     atom    6 type  2   force =    -0.29552658    0.56178338   37.68003619
     atom    7 type  1   force =     2.51640619    2.63018660   -2.30754496
     atom    8 type  2   force =     1.76384099   -0.29114207  -36.85680670
     atom    9 type  2   force =    -0.27644765    0.10497986   37.78170517
     atom   10 type  1   force =     0.95422628    0.21136649   -5.30304031
     atom   11 type  2   force =     0.58427143    1.56096644  -38.81044344
     atom   12 type  2   force =    -0.34240366   -0.68316842   37.59517116
     atom   13 type  1   force =    -0.47020027   -0.93556404   -2.77260872
     atom   14 type  2   force =     0.00991946   -0.00298391  -38.36310778
     atom   15 type  2   force =    -0.18357076    0.00913169   36.59604869
     atom   16 type  1   force =    -0.08535267   -3.63868499   -0.56505630
     atom   17 type  2   force =    -0.88989706   -1.34447162  -37.68328054
     atom   18 type  2   force =     0.13622491    0.62015521   38.25314175
     atom   19 type  1   force =    -2.71676243    2.33274367   -0.45250297
     atom   20 type  2   force =    -0.19926784    0.24944133   38.35219213
     atom   21 type  1   force =    -0.10110449   -0.06055271   -1.31595322
     atom   22 type  2   force =    -0.51053418    1.65927714  -38.20653606
     atom   23 type  2   force =     0.04777546   -0.64307861   38.04938739
     atom   24 type  1   force =     0.34950672   -0.94342920   -5.39126631
     atom   25 type  2   force =    -0.54342764   -0.20597385  -38.98737493
     atom   26 type  2   force =     0.21625374   -0.04977202   37.05675698
     atom   27 type  1   force =    -0.26587264   -0.17982600    2.26071287
     atom   28 type  2   force =    -0.10499549   -0.44993935  -37.76487376
     atom   29 type  2   force =     0.24890289    0.39624638   37.07632542
     atom   30 type  1   force =     0.27770923    0.66217412    1.05292245
     atom   31 type  2   force =    -1.75034287   -0.07554041  -36.86236488
     atom   32 type  2   force =     0.40629778    0.08010963   38.40961669
     atom   33 type  1   force =    -0.64767260    0.47673341   -2.11019192
     atom   34 type  2   force =    -0.19772103    0.95182096  -38.93455524
     atom   35 type  2   force =     0.24092481   -0.54554054   37.56168532
     atom   36 type  3   force =    -0.25187202    0.07043325   -7.82307971
     The core correction contribution to forces
     atom    1 type  1   force =     0.00000000    0.00000000    0.00000000
     atom    2 type  2   force =     0.00024511    0.00000651    0.02084117
     atom    3 type  2   force =     0.00055993    0.00015022   -0.02079969
     atom    4 type  1   force =     0.00000000    0.00000000    0.00000000
     atom    5 type  2   force =    -0.00049986    0.00182342    0.02032144
     atom    6 type  2   force =     0.00032864   -0.00102326   -0.02096399
     atom    7 type  1   force =     0.00000000    0.00000000    0.00000000
     atom    8 type  2   force =    -0.00997111    0.00245270    0.00906880
     atom    9 type  2   force =    -0.00011739    0.00040475   -0.02120537
     atom   10 type  1   force =     0.00000000    0.00000000    0.00000000
     atom   11 type  2   force =    -0.00023587   -0.00081217    0.02033058
     atom   12 type  2   force =     0.00107535    0.00151231   -0.02079599
     atom   13 type  1   force =     0.00000000    0.00000000    0.00000000
     atom   14 type  2   force =    -0.00059138   -0.00004511    0.02064506
     atom   15 type  2   force =     0.00061674    0.00040012   -0.02054385
     atom   16 type  1   force =     0.00000000    0.00000000    0.00000000
     atom   17 type  2   force =     0.00004883    0.00135854    0.02020271
     atom   18 type  2   force =    -0.00004981   -0.00055130   -0.02105041
     atom   19 type  1   force =     0.00000000    0.00000000    0.00000000
     atom   20 type  2   force =     0.00008323    0.00055382   -0.02121053
     atom   21 type  1   force =     0.00000000    0.00000000    0.00000000
     atom   22 type  2   force =     0.00010927   -0.00050950    0.02045245
     atom   23 type  2   force =    -0.00057071    0.00127547   -0.02084514
     atom   24 type  1   force =     0.00000000    0.00000000    0.00000000
     atom   25 type  2   force =    -0.00009360   -0.00024931    0.02081297
     atom   26 type  2   force =    -0.00023971    0.00069347   -0.02083247
     atom   27 type  1   force =     0.00000000    0.00000000    0.00000000
     atom   28 type  2   force =     0.00014785    0.00091920    0.02086898
     atom   29 type  2   force =    -0.00048316   -0.00078337   -0.02057859
     atom   30 type  1   force =     0.00000000    0.00000000    0.00000000
     atom   31 type  2   force =     0.00154161    0.00057035    0.01842212
     atom   32 type  2   force =    -0.00016691    0.00049118   -0.02112127
     atom   33 type  1   force =     0.00000000    0.00000000    0.00000000
     atom   34 type  2   force =     0.00036161    0.00105108    0.02106416
     atom   35 type  2   force =    -0.00010991    0.00102534   -0.02095701
     atom   36 type  3   force =     0.00000000    0.00000000    0.00000000
     The Hubbard contrib.    to forces
     atom    1 type  1   force =     0.00000000    0.00000000    0.00000000
     atom    2 type  2   force =     0.00000000    0.00000000    0.00000000
     atom    3 type  2   force =     0.00000000    0.00000000    0.00000000
     atom    4 type  1   force =     0.00000000    0.00000000    0.00000000
     atom    5 type  2   force =     0.00000000    0.00000000    0.00000000
     atom    6 type  2   force =     0.00000000    0.00000000    0.00000000
     atom    7 type  1   force =     0.00000000    0.00000000    0.00000000
     atom    8 type  2   force =     0.00000000    0.00000000    0.00000000
     atom    9 type  2   force =     0.00000000    0.00000000    0.00000000
     atom   10 type  1   force =     0.00000000    0.00000000    0.00000000
     atom   11 type  2   force =     0.00000000    0.00000000    0.00000000
     atom   12 type  2   force =     0.00000000    0.00000000    0.00000000
     atom   13 type  1   force =     0.00000000    0.00000000    0.00000000
     atom   14 type  2   force =     0.00000000    0.00000000    0.00000000
     atom   15 type  2   force =     0.00000000    0.00000000    0.00000000
     atom   16 type  1   force =     0.00000000    0.00000000    0.00000000
     atom   17 type  2   force =     0.00000000    0.00000000    0.00000000
     atom   18 type  2   force =     0.00000000    0.00000000    0.00000000
     atom   19 type  1   force =     0.00000000    0.00000000    0.00000000
     atom   20 type  2   force =     0.00000000    0.00000000    0.00000000
     atom   21 type  1   force =     0.00000000    0.00000000    0.00000000
     atom   22 type  2   force =     0.00000000    0.00000000    0.00000000
     atom   23 type  2   force =     0.00000000    0.00000000    0.00000000
     atom   24 type  1   force =     0.00000000    0.00000000    0.00000000
     atom   25 type  2   force =     0.00000000    0.00000000    0.00000000
     atom   26 type  2   force =     0.00000000    0.00000000    0.00000000
     atom   27 type  1   force =     0.00000000    0.00000000    0.00000000
     atom   28 type  2   force =     0.00000000    0.00000000    0.00000000
     atom   29 type  2   force =     0.00000000    0.00000000    0.00000000
     atom   30 type  1   force =     0.00000000    0.00000000    0.00000000
     atom   31 type  2   force =     0.00000000    0.00000000    0.00000000
     atom   32 type  2   force =     0.00000000    0.00000000    0.00000000
     atom   33 type  1   force =     0.00000000    0.00000000    0.00000000
     atom   34 type  2   force =     0.00000000    0.00000000    0.00000000
     atom   35 type  2   force =     0.00000000    0.00000000    0.00000000
     atom   36 type  3   force =     0.00000000    0.00000000    0.00000000
     The SCF correction term to forces
     atom    1 type  1   force =    -0.00014324    0.00032262    0.00083470
     atom    2 type  2   force =     0.00015662   -0.00006317    0.00049149
     atom    3 type  2   force =    -0.00000107    0.00004272    0.00010394
     atom    4 type  1   force =    -0.00016158    0.00031585    0.00112720
     atom    5 type  2   force =     0.00001019    0.00009420    0.00033151
     atom    6 type  2   force =    -0.00005387    0.00001233    0.00025249
     atom    7 type  1   force =     0.00034949   -0.00030893    0.00133155
     atom    8 type  2   force =    -0.00008352    0.00001518    0.00037482
     atom    9 type  2   force =     0.00000076   -0.00010433    0.00021743
     atom   10 type  1   force =     0.00011037   -0.00010060    0.00126285
     atom   11 type  2   force =     0.00011487   -0.00012030    0.00042731
     atom   12 type  2   force =    -0.00002482    0.00000173    0.00015734
     atom   13 type  1   force =     0.00008892    0.00018163    0.00093196
     atom   14 type  2   force =    -0.00005314    0.00008320    0.00042157
     atom   15 type  2   force =     0.00002960    0.00009879    0.00013811
     atom   16 type  1   force =     0.00012120   -0.00011783    0.00090504
     atom   17 type  2   force =     0.00002138    0.00001692    0.00039566
     atom   18 type  2   force =     0.00004092    0.00006063    0.00016080
     atom   19 type  1   force =    -0.00011293   -0.00019001    0.00103673
     atom   20 type  2   force =    -0.00000764   -0.00013044    0.00011482
     atom   21 type  1   force =     0.00000514    0.00003408    0.00095659
     atom   22 type  2   force =    -0.00004187   -0.00005838    0.00046941
     atom   23 type  2   force =     0.00000316   -0.00001046    0.00010202
     atom   24 type  1   force =     0.00011377   -0.00003428    0.00113555
     atom   25 type  2   force =    -0.00013059   -0.00001281    0.00037651
     atom   26 type  2   force =     0.00003002    0.00003331    0.00018235
     atom   27 type  1   force =    -0.00002986    0.00010787    0.00096636
     atom   28 type  2   force =    -0.00001638    0.00003039    0.00046308
     atom   29 type  2   force =     0.00002011    0.00007749    0.00015138
     atom   30 type  1   force =    -0.00023067   -0.00026112    0.00126342
     atom   31 type  2   force =    -0.00005644   -0.00000630    0.00044514
     atom   32 type  2   force =     0.00000169   -0.00011906    0.00015611
     atom   33 type  1   force =    -0.00013450    0.00013863    0.00112083
     atom   34 type  2   force =    -0.00008516    0.00006961    0.00046141
     atom   35 type  2   force =     0.00002879    0.00001895    0.00015616
     atom   36 type  3   force =    -0.00001814    0.00000348    0.00003565

     Total force =     0.106793     Total SCF correction =     0.004171
     Energy error            =      1.6E-02 Ry
     Gradient error          =      5.2E-02 Ry/Bohr

     number of scf cycles    =   2
     number of bfgs steps    =   1

     energy             old  =   -2205.5091343306 Ry
     energy             new  =   -2205.5255114295 Ry

     CASE: energy            _new < energy            _old

     new trust radius        =       0.0892250386 bohr
     new conv_thr            =       0.0000000524 Ry


ATOMIC_POSITIONS (angstrom)
Mo            6.5846382249        1.7647335941        2.8280831779
S             8.1624022768        0.8263346153        4.4334659352
S             8.1802430710        0.8207396407        1.2715321103
Mo            8.1031891444        4.5046252538        2.7232539365
S             6.4969345966        3.7134553260        4.3402525652
S             6.5541641044        3.5201900893        1.1199573316
Mo            6.4851105207        7.2075545906        2.6573634310
S             8.1481621791        6.3222508073        4.2993935690
S             8.0944815433        6.3125811425        1.0956476902
Mo            8.1509805418        9.9107107350        2.8199474142
S             6.4995003370        8.9442048252        4.3728548596
S             6.6156006793        9.0474438914        1.1436640377
Mo            3.4274961565        1.7511479701        2.7703590070
S             4.9836633434        0.8169979363        4.3634779197
S             5.0450311946        0.8491264199        1.2177202043
Mo            4.9775035258        4.5277750876        2.6372227742
S             3.4349217087        3.6721997170        4.2816577755
S             3.4357074948        3.5406836805        1.0716834323
Mo            3.4626525517        7.2079943847        2.6242146929
S             4.9864387715        6.3210989558        1.0351718154
Mo            5.0024326557        9.9108703230        2.7440446025
S             3.4688222869        8.9427310015        4.3229881473
S             3.4090903596        9.0671898168        1.1050215908
Mo            0.2890707326        1.7440377185        2.8263522784
S             1.8673687590        0.8118356583        4.4037914237
S             1.8483741167        0.8533511379        1.2048907799
Mo            1.8590753177        4.4983074289        2.6713954982
S             0.2712992970        3.6558611656        4.3355346164
S             0.2336136973        3.5267814779        1.1678508458
Mo            0.2686799608        7.2277566576        2.6883658676
S             1.8899217817        6.3120703258        4.2429728838
S             1.8528159859        6.3176819548        1.0526911551
Mo            1.8566746927        9.9337081872        2.7665458479
S             0.2980262940        9.0449346821        4.3995412053
S             0.2673180835        9.0539733649        1.1641707585
H            -0.0390589756        6.0696179579        5.4516803560



     Writing config-only to output data dir ./MoS2-V-O.save/
     NEW-OLD atomic charge density approx. for the potential

     negative rho (up, down):  1.461E-04 0.000E+00

     total cpu time spent up to now is      178.7 secs

     Self-consistent Calculation

     iteration #  1     ecut=    80.00 Ry     beta= 0.70
     Davidson diagonalization with overlap
     ethr =  1.00E-06,  avg # of iterations = 11.0

     negative rho (up, down):  5.850E-05 0.000E+00

     total cpu time spent up to now is      193.7 secs

     total energy              =   -2205.53869487 Ry
     estimated scf accuracy    <       0.00211593 Ry

     iteration #  2     ecut=    80.00 Ry     beta= 0.70
     Davidson diagonalization with overlap
     ethr =  6.89E-07,  avg # of iterations =  5.0

     negative rho (up, down):  4.473E-05 0.000E+00

     total cpu time spent up to now is      209.5 secs

     total energy              =   -2205.53882002 Ry
     estimated scf accuracy    <       0.00032732 Ry

     iteration #  3     ecut=    80.00 Ry     beta= 0.70
     Davidson diagonalization with overlap
     ethr =  1.07E-07,  avg # of iterations =  5.0

     negative rho (up, down):  3.546E-05 0.000E+00

     total cpu time spent up to now is      226.1 secs

     total energy              =   -2205.53883556 Ry
     estimated scf accuracy    <       0.00009393 Ry

     iteration #  4     ecut=    80.00 Ry     beta= 0.70
     Davidson diagonalization with overlap
     ethr =  3.06E-08,  avg # of iterations =  3.0

     negative rho (up, down):  3.288E-05 0.000E+00

     total cpu time spent up to now is      240.5 secs

     total energy              =   -2205.53884733 Ry
     estimated scf accuracy    <       0.00001300 Ry

     iteration #  5     ecut=    80.00 Ry     beta= 0.70
     Davidson diagonalization with overlap
     ethr =  4.23E-09,  avg # of iterations = 10.0

     negative rho (up, down):  3.271E-05 0.000E+00

     total cpu time spent up to now is      252.7 secs

     total energy              =   -2205.53885157 Ry
     estimated scf accuracy    <       0.00000492 Ry

     iteration #  6     ecut=    80.00 Ry     beta= 0.70
     Davidson diagonalization with overlap
     ethr =  1.60E-09,  avg # of iterations =  2.0

     negative rho (up, down):  3.519E-05 0.000E+00

     total cpu time spent up to now is      266.3 secs

     total energy              =   -2205.53885213 Ry
     estimated scf accuracy    <       0.00000175 Ry

     iteration #  7     ecut=    80.00 Ry     beta= 0.70
     Davidson diagonalization with overlap
     ethr =  5.68E-10,  avg # of iterations =  3.0

     negative rho (up, down):  4.028E-05 0.000E+00

     total cpu time spent up to now is      276.5 secs

     total energy              =   -2205.53885241 Ry
     estimated scf accuracy    <       0.00000065 Ry

     iteration #  8     ecut=    80.00 Ry     beta= 0.70
     Davidson diagonalization with overlap
     ethr =  2.11E-10,  avg # of iterations =  2.0

     negative rho (up, down):  6.592E-05 0.000E+00

     total cpu time spent up to now is      287.4 secs

     total energy              =   -2205.53885235 Ry
     estimated scf accuracy    <       0.00000034 Ry

     iteration #  9     ecut=    80.00 Ry     beta= 0.70
     Davidson diagonalization with overlap
     ethr =  1.10E-10,  avg # of iterations =  6.0

     negative rho (up, down):  9.055E-05 0.000E+00

     total cpu time spent up to now is      298.9 secs

     total energy              =   -2205.53885231 Ry
     estimated scf accuracy    <       0.00000005 Ry

     iteration # 10     ecut=    80.00 Ry     beta= 0.70
     Davidson diagonalization with overlap
     ethr =  1.73E-11,  avg # of iterations =  4.0

     negative rho (up, down):  1.377E-04 0.000E+00

     total cpu time spent up to now is      301.3 secs

     End of self-consistent calculation

          k = 0.0000 0.0000 0.0000 (105382 PWs)   bands (ev):

   -62.8856 -62.8735 -62.8577 -62.8441 -62.8348 -62.8286 -62.8182 -62.8107
   -62.7938 -62.7819 -62.7763 -62.7450 -37.2253 -37.1622 -37.1545 -37.1376
   -37.1200 -37.1075 -37.0867 -37.0716 -37.0681 -37.0650 -37.0542 -37.0501
   -37.0354 -37.0295 -37.0180 -37.0141 -37.0102 -37.0042 -36.9956 -36.9903
   -36.9731 -36.9539 -36.9448 -36.9337 -36.9258 -36.9235 -36.9158 -36.9105
   -36.8904 -36.8828 -36.8717 -36.8587 -36.8501 -36.8061 -36.7670 -36.6926
   -16.0083 -15.2978 -15.1818 -14.9940 -14.9166 -14.8393 -14.6019 -14.4933
   -14.4839 -14.4165 -14.3979 -14.3284 -14.3181 -14.2811 -14.1668 -14.1306
   -14.1220 -14.1094 -14.0412 -13.8885 -13.8508 -13.8392 -13.8212  -7.9909
    -7.6386  -7.4057  -7.2889  -7.2362  -7.2082  -7.1955  -7.1329  -7.0545
    -6.8300  -6.7775  -6.7549  -6.6627  -6.6302  -6.5210  -6.4232  -6.3858
    -6.2680  -6.2347  -6.0955  -5.9769  -5.9078  -5.8561  -5.8443  -5.7669
    -5.7608  -5.7082  -5.6964  -5.6607  -5.6542  -5.5763  -5.5387  -5.4839
    -5.4128  -5.3637  -5.1485  -5.1253  -5.0541  -5.0280  -4.9763  -4.9516
    -4.9338  -4.8673  -4.6467  -4.5361  -4.4065  -4.3236  -4.2948  -4.2398
    -4.2221  -4.0563  -4.0146  -3.9552  -3.8184  -3.7822  -3.7358  -3.7223
    -3.6702  -3.5441  -3.5320  -3.5211  -3.5058  -3.4883  -3.4548  -3.4101
    -3.3459  -3.2115  -3.1432  -2.8936  -2.8814  -2.7898  -2.7772  -2.7148
    -2.7086  -2.6944  -2.6677  -2.6248  -2.5915  -2.2846  -2.1273  -2.0019
    -1.9925  -0.9834  -0.8078  -0.7084  -0.1659  -0.1592  -0.0843  -0.0640
     0.1063   0.1240   0.2042   0.2650   0.2811   0.3108   0.3336   0.4143
     0.4516   0.5280   0.5569   0.5626   0.6270   0.6786   0.6991   0.7487
     0.7766   0.7971   0.8281   0.8716   0.9797   0.9826   1.0303   1.3173
     1.3840

     the Fermi energy is    -0.9907 ev

!    total energy              =   -2205.53885224 Ry
     estimated scf accuracy    <       0.00000002 Ry
     smearing contrib. (-TS)   =      -0.00662673 Ry
     internal energy E=F+TS    =   -2205.53222551 Ry

     The total energy is F=E-TS. E is the sum of the following terms:
     one-electron contribution =  -18040.51860089 Ry
     hartree contribution      =    9006.98908619 Ry
     xc contribution           =    -385.19808161 Ry
     ewald contribution        =    7213.19537081 Ry

     convergence has been achieved in  10 iterations

     negative rho (up, down):  1.377E-04 0.000E+00

     Forces acting on atoms (cartesian axes, Ry/au):

     atom    1 type  1   force =    -0.00355912   -0.00328276   -0.00398444
     atom    2 type  2   force =    -0.00370235    0.00559734   -0.00308622
     atom    3 type  2   force =    -0.00912108    0.00517648   -0.01129382
     atom    4 type  1   force =     0.00701922    0.00366474    0.00574247
     atom    5 type  2   force =    -0.00040032   -0.00567249   -0.00485056
     atom    6 type  2   force =     0.00113762    0.00444028    0.00387898
     atom    7 type  1   force =     0.00713896   -0.00804853    0.00329166
     atom    8 type  2   force =     0.04690318   -0.01135041    0.04061646
     atom    9 type  2   force =     0.00755359    0.00450062    0.00496041
     atom   10 type  1   force =    -0.00150761    0.00435293   -0.00010616
     atom   11 type  2   force =     0.00252138   -0.00162259   -0.01085144
     atom   12 type  2   force =    -0.00598412   -0.00119483   -0.00120932
     atom   13 type  1   force =     0.00295314    0.00130088   -0.00017372
     atom   14 type  2   force =     0.00362410    0.00029878    0.00620992
     atom   15 type  2   force =    -0.00613255    0.00159122   -0.00546638
     atom   16 type  1   force =    -0.00024562    0.00710296    0.00176739
     atom   17 type  2   force =     0.00443647    0.00144474    0.00233166
     atom   18 type  2   force =    -0.00140335   -0.00128222    0.00881989
     atom   19 type  1   force =    -0.00060305   -0.00540612    0.00378747
     atom   20 type  2   force =     0.00161017   -0.00334530   -0.00681968
     atom   21 type  1   force =    -0.00375073    0.00365683    0.00156092
     atom   22 type  2   force =    -0.00011240   -0.00226197   -0.00176463
     atom   23 type  2   force =     0.00211760    0.00023529    0.00218880
     atom   24 type  1   force =    -0.00263476    0.00016553   -0.00193142
     atom   25 type  2   force =     0.00687427    0.00951101   -0.00357975
     atom   26 type  2   force =    -0.00395089   -0.00154786   -0.00392823
     atom   27 type  1   force =    -0.00133254    0.00007534    0.00493767
     atom   28 type  2   force =    -0.00003096   -0.00558094   -0.00323858
     atom   29 type  2   force =     0.00141558    0.00351562   -0.00297228
     atom   30 type  1   force =     0.00180217   -0.00247427    0.00524278
     atom   31 type  2   force =    -0.00047520    0.00271948    0.00520036
     atom   32 type  2   force =    -0.00475531    0.00348997    0.00396954
     atom   33 type  1   force =     0.00105177    0.00007337    0.00418373
     atom   34 type  2   force =    -0.00135341   -0.01978458   -0.01525170
     atom   35 type  2   force =    -0.00465129    0.00994102    0.00124454
     atom   36 type  3   force =    -0.04245255    0.00000044   -0.02942630
     The non-local contrib.  to forces
     atom    1 type  1   force =     0.00066882    0.02569854   -0.01306668
     atom    2 type  2   force =    -0.00383779   -0.00664319   -0.27031915
     atom    3 type  2   force =    -0.01005043   -0.00670550    0.26283117
     atom    4 type  1   force =     0.00250723    0.01371544    0.00063551
     atom    5 type  2   force =     0.00409585   -0.03328802   -0.25427205
     atom    6 type  2   force =    -0.00330095    0.00704303    0.27027799
     atom    7 type  1   force =    -0.00651171   -0.01618885   -0.02296845
     atom    8 type  2   force =     0.20551216   -0.04579589   -0.03015494
     atom    9 type  2   force =     0.00536544   -0.00818034    0.27754164
     atom   10 type  1   force =     0.00286229    0.00516588   -0.00322931
     atom   11 type  2   force =     0.00376675    0.01270489   -0.25379767
     atom   12 type  2   force =    -0.01391839   -0.01996698    0.26258747
     atom   13 type  1   force =     0.00249180    0.01977879   -0.00727487
     atom   14 type  2   force =     0.00822530   -0.00790852   -0.26364798
     atom   15 type  2   force =    -0.00794287   -0.00607505    0.26059279
     atom   16 type  1   force =     0.00049008    0.02990658   -0.03198604
     atom   17 type  2   force =     0.00015518   -0.02536437   -0.24878170
     atom   18 type  2   force =    -0.00111924    0.00140454    0.27294647
     atom   19 type  1   force =     0.02252254    0.00068606   -0.01373039
     atom   20 type  2   force =     0.00040073   -0.01413687    0.26197693
     atom   21 type  1   force =    -0.00067761    0.02779012    0.00461398
     atom   22 type  2   force =    -0.00459926    0.00263541   -0.25744418
     atom   23 type  2   force =     0.00822677   -0.01730922    0.26366037
     atom   24 type  1   force =     0.00156734    0.01399886   -0.01047029
     atom   25 type  2   force =     0.00498183   -0.00224924   -0.26788389
     atom   26 type  2   force =     0.00314868   -0.01267173    0.26353175
     atom   27 type  1   force =    -0.00456510    0.00607047    0.00640222
     atom   28 type  2   force =    -0.00008909   -0.01219924   -0.27392474
     atom   29 type  2   force =     0.00426456    0.00728885    0.26540731
     atom   30 type  1   force =     0.00046357    0.02073838    0.01103186
     atom   31 type  2   force =    -0.01883581   -0.00831166   -0.22047672
     atom   32 type  2   force =    -0.00013394   -0.00930859    0.27441649
     atom   33 type  1   force =    -0.00057045    0.00735525    0.00289460
     atom   34 type  2   force =    -0.00183816   -0.02266524   -0.27376688
     atom   35 type  2   force =     0.00035750   -0.01111550    0.26324891
     atom   36 type  3   force =    -0.01369313    0.00219990   -0.01472801
     The ionic contribution  to forces
     atom    1 type  1   force =    -0.03616359    0.80725486    5.77300690
     atom    2 type  2   force =    -0.32986026    0.17676530   39.37755012
     atom    3 type  2   force =    -0.15732803    0.06235284  -36.31041430
     atom    4 type  1   force =    -0.52945910    0.18188291    0.52786500
     atom    5 type  2   force =    -1.07964747    1.37424741   38.48293737
     atom    6 type  2   force =     0.28731126   -0.57239713  -37.82395603
     atom    7 type  1   force =    -2.33261279   -2.56480665    2.36451299
[...]
     atom   27 type  1   force =     0.00417805    0.00969350    0.00380430
     atom   28 type  2   force =    -0.00652590   -0.00878484   -0.26159095
     atom   29 type  2   force =    -0.00249367   -0.00848167    0.26867688
     atom   30 type  1   force =     0.01437807    0.02560975   -0.00190303
     atom   31 type  2   force =    -0.01714488    0.00210919   -0.25424448
     atom   32 type  2   force =     0.00334825   -0.01500647    0.26342160
     atom   33 type  1   force =     0.00433448    0.00762821    0.00040804
     atom   34 type  2   force =     0.00044425   -0.01775728   -0.26250953
     atom   35 type  2   force =    -0.00035867   -0.01797512    0.26588470
     atom   36 type  3   force =    -0.00406407    0.00572850   -0.06199251
     The ionic contribution  to forces
     atom    1 type  1   force =    -0.11426184    0.73758733    2.45468166
     atom    2 type  2   force =    -0.25703540    0.12324075   38.92126095
     atom    3 type  2   force =     0.08174837   -0.06186111  -37.45331375
     atom    4 type  1   force =    -0.78634981    1.04787997   -0.15611564
     atom    5 type  2   force =    -0.91438368    1.39556019   38.01943679
     atom    6 type  2   force =     0.08154608   -0.09571398  -38.03537668
     atom    7 type  1   force =    -2.45195241   -2.88268815    0.35043657
     atom    8 type  2   force =    -1.58823695    0.16342947   35.24025411
     atom    9 type  2   force =     0.27933012   -0.05187246  -37.43972045
     atom   10 type  1   force =    -0.23417711   -0.53723181    2.95406940
     atom   11 type  2   force =    -0.47970796   -1.51807559   38.63024710
     atom   12 type  2   force =     0.23005072    0.35891052  -38.30053135
     atom   13 type  1   force =     0.21562969    0.56813371    2.70622371
     atom   14 type  2   force =     0.01956571   -0.02070615   38.71778231
     atom   15 type  2   force =    -0.06525794   -0.12788806  -37.54696244
     atom   16 type  1   force =     1.17941714    3.59689863    0.84161431
     atom   17 type  2   force =     0.98012824    1.11789291   38.49067696
     atom   18 type  2   force =    -0.19310407   -0.37689687  -38.30382321
     atom   19 type  1   force =     2.98449358   -1.11746802    3.90373336
     atom   20 type  2   force =     0.14885664   -0.02866766  -38.68153038
     atom   21 type  1   force =    -0.41148559   -0.48418854    1.39966487
     atom   22 type  2   force =     0.55184922   -1.45197879   38.51564199
     atom   23 type  2   force =    -0.27042372    0.12229053  -37.44704453
     atom   24 type  1   force =    -0.03765719    0.16527992    2.68458984
     atom   25 type  2   force =     0.19570496    0.05288306   39.05993398
     atom   26 type  2   force =    -0.04092307   -0.19610231  -37.39451683
     atom   27 type  1   force =    -0.15457543    0.43271452    0.13571647
     atom   28 type  2   force =    -0.05297446    0.53005459   38.26502121
     atom   29 type  2   force =     0.01441543   -0.02587687  -37.88409917
     atom   30 type  1   force =    -0.19762083   -0.64996886    2.67133849
     atom   31 type  2   force =     1.10587706    0.13155988   38.51769343
     atom   32 type  2   force =    -0.37592007    0.16587017  -37.87723561
     atom   33 type  1   force =     0.70822479   -0.60144399    3.74189550
     atom   34 type  2   force =    -0.07727802   -0.42533937   39.01155066
     atom   35 type  2   force =     0.01230368    0.05243542  -37.32942357
     atom   36 type  3   force =    -0.08581589   -0.10865299    8.61622994
     The local contribution  to forces
     atom    1 type  1   force =     0.12134619   -0.75759333   -2.44523316
     atom    2 type  2   force =     0.25540466   -0.11194269  -38.67644597
     atom    3 type  2   force =    -0.07929897    0.07267791   37.20529800
     atom    4 type  1   force =     0.78721808   -1.04026151    0.16300808
     atom    5 type  2   force =     0.90165752   -1.38103910  -37.79159898
     atom    6 type  2   force =    -0.08289413    0.09752483   37.78900174
     atom    7 type  1   force =     2.49337107    2.89235895   -0.34878811
     atom    8 type  2   force =     1.55198284   -0.13840303  -35.49678688
     atom    9 type  2   force =    -0.27350806    0.06282625   37.17507745
     atom   10 type  1   force =     0.23529169    0.52858706   -2.95607638
     atom   11 type  2   force =     0.47447539    1.52213146  -38.40161792
     atom   12 type  2   force =    -0.22640710   -0.34345042   38.06005873
     atom   13 type  1   force =    -0.22013020   -0.59226610   -2.70409673
     atom   14 type  2   force =    -0.02020230    0.03167486  -38.47251121
     atom   15 type  2   force =     0.06378448    0.13415993   37.30586859
     atom   16 type  1   force =    -1.18743448   -3.65029510   -0.81912357
     atom   17 type  2   force =    -0.97601673   -1.09487842  -38.25729944
     atom   18 type  2   force =     0.19660151    0.37843860   38.06067809
     atom   19 type  1   force =    -3.02992689    1.12041182   -3.87463262
     atom   20 type  2   force =    -0.15083533    0.04049106   38.44150720
     atom   21 type  1   force =     0.41353887    0.46102896   -1.40076795
     atom   22 type  2   force =    -0.54728378    1.45616511  -38.27595300
     atom   23 type  2   force =     0.25987914   -0.10899944   37.20099541
     atom   24 type  1   force =     0.03547267   -0.17553532   -2.68067820
     atom   25 type  2   force =    -0.19535765   -0.04222547  -38.81768950
     atom   26 type  2   force =     0.03870953    0.20526138   37.14824967
     atom   27 type  1   force =     0.15048669   -0.44221982   -0.13923935
     atom   28 type  2   force =     0.05907500   -0.52074440  -38.02301400
     atom   29 type  2   force =    -0.01195643    0.03547156   37.63639287
     atom   30 type  1   force =     0.18338884    0.62468801   -2.66940355
     atom   31 type  2   force =    -1.08965949   -0.13330374  -38.28284123
     atom   32 type  2   force =     0.37280572   -0.15159869   37.63392509
     atom   33 type  1   force =    -0.71303377    0.59389860   -3.74295365
     atom   34 type  2   force =     0.07686065    0.44269587  -38.76916013
     atom   35 type  2   force =    -0.01218104   -0.03728317   37.08336392
     atom   36 type  3   force =     0.09033655    0.10404400   -8.55275019
     The core correction contribution to forces
     atom    1 type  1   force =     0.00000000    0.00000000    0.00000000
     atom    2 type  2   force =    -0.00021317    0.00060604    0.02070435
     atom    3 type  2   force =     0.00010822    0.00053056   -0.02098567
     atom    4 type  1   force =     0.00000000    0.00000000    0.00000000
     atom    5 type  2   force =    -0.00112686    0.00063003    0.01972967
     atom    6 type  2   force =    -0.00022976   -0.00017305   -0.02082867
     atom    7 type  1   force =     0.00000000    0.00000000    0.00000000
     atom    8 type  2   force =    -0.00249691    0.00195158   -0.01082829
     atom    9 type  2   force =     0.00057556    0.00065548   -0.02155328
     atom   10 type  1   force =     0.00000000    0.00000000    0.00000000
     atom   11 type  2   force =    -0.00029596    0.00008653    0.01997981
     atom   12 type  2   force =     0.00046460    0.00122525   -0.02074058
     atom   13 type  1   force =     0.00000000    0.00000000    0.00000000
     atom   14 type  2   force =    -0.00006027    0.00019634    0.02083478
     atom   15 type  2   force =    -0.00015107    0.00024314   -0.02067064
     atom   16 type  1   force =     0.00000000    0.00000000    0.00000000
     atom   17 type  2   force =     0.00046922    0.00118793    0.02023275
     atom   18 type  2   force =    -0.00006217   -0.00041665   -0.02082704
     atom   19 type  1   force =     0.00000000    0.00000000    0.00000000
     atom   20 type  2   force =    -0.00007233    0.00054025   -0.02108646
     atom   21 type  1   force =     0.00000000    0.00000000    0.00000000
     atom   22 type  2   force =     0.00019726   -0.00015955    0.02036178
     atom   23 type  2   force =    -0.00078303    0.00058539   -0.02070889
     atom   24 type  1   force =     0.00000000    0.00000000    0.00000000
     atom   25 type  2   force =     0.00007703    0.00055008    0.02062696
     atom   26 type  2   force =    -0.00009599    0.00029191   -0.02087970
     atom   27 type  1   force =     0.00000000    0.00000000    0.00000000
     atom   28 type  2   force =     0.00051233    0.00042559    0.02046989
     atom   29 type  2   force =     0.00022258    0.00021885   -0.02094654
     atom   30 type  1   force =     0.00000000    0.00000000    0.00000000
     atom   31 type  2   force =     0.00104678    0.00003217    0.02020871
     atom   32 type  2   force =    -0.00039015    0.00079727   -0.02077472
     atom   33 type  1   force =     0.00000000    0.00000000    0.00000000
     atom   34 type  2   force =    -0.00002218    0.00108234    0.02056111
     atom   35 type  2   force =    -0.00001869    0.00102790   -0.02096111
     atom   36 type  3   force =     0.00000000    0.00000000    0.00000000
     The Hubbard contrib.    to forces
     atom    1 type  1   force =     0.00000000    0.00000000    0.00000000
     atom    2 type  2   force =     0.00000000    0.00000000    0.00000000
     atom    3 type  2   force =     0.00000000    0.00000000    0.00000000
     atom    4 type  1   force =     0.00000000    0.00000000    0.00000000
     atom    5 type  2   force =     0.00000000    0.00000000    0.00000000
     atom    6 type  2   force =     0.00000000    0.00000000    0.00000000
     atom    7 type  1   force =     0.00000000    0.00000000    0.00000000
     atom    8 type  2   force =     0.00000000    0.00000000    0.00000000
     atom    9 type  2   force =     0.00000000    0.00000000    0.00000000
     atom   10 type  1   force =     0.00000000    0.00000000    0.00000000
     atom   11 type  2   force =     0.00000000    0.00000000    0.00000000
     atom   12 type  2   force =     0.00000000    0.00000000    0.00000000
     atom   13 type  1   force =     0.00000000    0.00000000    0.00000000
     atom   14 type  2   force =     0.00000000    0.00000000    0.00000000
     atom   15 type  2   force =     0.00000000    0.00000000    0.00000000
     atom   16 type  1   force =     0.00000000    0.00000000    0.00000000
     atom   17 type  2   force =     0.00000000    0.00000000    0.00000000
     atom   18 type  2   force =     0.00000000    0.00000000    0.00000000
     atom   19 type  1   force =     0.00000000    0.00000000    0.00000000
     atom   20 type  2   force =     0.00000000    0.00000000    0.00000000
     atom   21 type  1   force =     0.00000000    0.00000000    0.00000000
     atom   22 type  2   force =     0.00000000    0.00000000    0.00000000
     atom   23 type  2   force =     0.00000000    0.00000000    0.00000000
     atom   24 type  1   force =     0.00000000    0.00000000    0.00000000
     atom   25 type  2   force =     0.00000000    0.00000000    0.00000000
     atom   26 type  2   force =     0.00000000    0.00000000    0.00000000
     atom   27 type  1   force =     0.00000000    0.00000000    0.00000000
     atom   28 type  2   force =     0.00000000    0.00000000    0.00000000
     atom   29 type  2   force =     0.00000000    0.00000000    0.00000000
     atom   30 type  1   force =     0.00000000    0.00000000    0.00000000
     atom   31 type  2   force =     0.00000000    0.00000000    0.00000000
     atom   32 type  2   force =     0.00000000    0.00000000    0.00000000
     atom   33 type  1   force =     0.00000000    0.00000000    0.00000000
     atom   34 type  2   force =     0.00000000    0.00000000    0.00000000
     atom   35 type  2   force =     0.00000000    0.00000000    0.00000000
     atom   36 type  3   force =     0.00000000    0.00000000    0.00000000
     The SCF correction term to forces
     atom    1 type  1   force =     0.00000500   -0.00000685    0.00001432
     atom    2 type  2   force =    -0.00000083   -0.00001079    0.00001696
     atom    3 type  2   force =     0.00000208    0.00000089   -0.00000225
     atom    4 type  1   force =     0.00001624    0.00004646    0.00003256
     atom    5 type  2   force =     0.00000693    0.00001240    0.00001639
     atom    6 type  2   force =     0.00000855    0.00000622   -0.00000440
     atom    7 type  1   force =     0.00003505   -0.00001926    0.00003645
     atom    8 type  2   force =     0.00000723    0.00000007    0.00000458
     atom    9 type  2   force =     0.00000488   -0.00000078    0.00001822
     atom   10 type  1   force =     0.00000783   -0.00003289    0.00003439
     atom   11 type  2   force =     0.00000989   -0.00000892    0.00002139
     atom   12 type  2   force =     0.00000303   -0.00000138    0.00000178
     atom   13 type  1   force =    -0.00001933   -0.00001253    0.00001450
     atom   14 type  2   force =     0.00000061   -0.00000213    0.00001237
     atom   15 type  2   force =    -0.00000252   -0.00000150    0.00000450
     atom   16 type  1   force =     0.00000196    0.00002606    0.00002162
     atom   17 type  2   force =    -0.00000396    0.00000660    0.00001530
     atom   18 type  2   force =    -0.00001138    0.00000835   -0.00000473
     atom   19 type  1   force =    -0.00001887   -0.00001101    0.00002262
     atom   20 type  2   force =    -0.00000641    0.00000183    0.00000229
     atom   21 type  1   force =    -0.00000956   -0.00001480    0.00002447
     atom   22 type  2   force =    -0.00000488   -0.00000789    0.00001382
     atom   23 type  2   force =    -0.00000854   -0.00000599    0.00000463
     atom   24 type  1   force =     0.00000189    0.00000959    0.00001827
     atom   25 type  2   force =     0.00000293   -0.00000785    0.00000822
     atom   26 type  2   force =     0.00000619   -0.00000342    0.00000395
     atom   27 type  1   force =    -0.00001381    0.00004338    0.00001361
     atom   28 type  2   force =    -0.00000100    0.00001471    0.00000126
     atom   29 type  2   force =     0.00000132    0.00001360    0.00000233
     atom   30 type  1   force =     0.00000214   -0.00002911    0.00004016
     atom   31 type  2   force =    -0.00000784    0.00001052   -0.00000021
     atom   32 type  2   force =    -0.00000330    0.00000010    0.00001583
     atom   33 type  1   force =     0.00000135   -0.00002624    0.00001872
     atom   34 type  2   force =    -0.00000412   -0.00001152    0.00001643
     atom   35 type  2   force =     0.00000142   -0.00000667    0.00000603
     atom   36 type  3   force =    -0.00000016    0.00000163   -0.00000036

     Total force =     0.006069     Total SCF correction =     0.000154
     Energy error            =      6.9E-05 Ry
     Gradient error          =      1.8E-03 Ry/Bohr

     bfgs converged in  39 scf cycles and  38 bfgs steps
     (criteria: energy <  1.0E-04 Ry, force <  1.0E-02 Ry/Bohr)

     End of BFGS Geometry Optimization

     Final energy             =   -2205.5987609718 Ry

     File ./MoS2-V-O.bfgs deleted, as requested
Begin final coordinates

ATOMIC_POSITIONS (angstrom)
Mo            6.5891670282        1.7581396343        2.7603698983
S             8.1627741552        0.8518904172        4.3753012863
S             8.1757775798        0.8436409322        1.1838103639
Mo            8.1625301771        4.4509872962        2.7076298371
S             6.5285357218        3.6609731274        4.2990921750
S             6.5898957081        3.5569057442        1.1070103082
Mo            6.5533150380        7.2432419429        2.6373945320
S             8.1083713268        6.3027780115        4.2129185143
S             8.2055951265        6.3215485924        1.1339063790
Mo            8.1798651227        9.9420136244        2.7755046126
S             6.5622579681        8.9750072108        4.3298170168
S             6.6288860612        9.0730918430        1.1133429844
Mo            3.4600184353        1.7606661530        2.7665830479
S             5.0242223062        0.8231276858        4.3520799627
S             5.0218027581        0.8414867334        1.1732177977
Mo            4.9917883486        4.5351047004        2.6431408880
S             3.4823515277        3.6696128031        4.3179376728
S             3.4513049290        3.5537709809        1.1026702845
Mo            3.5189750344        7.1364397322        2.6993813926
S             5.0411429950        6.3259440125        1.0409903881
Mo            5.0360706700        9.9181430578        2.7401338625
S             3.5172089079        8.9328625599        4.3397446600
S             3.4441478973        9.0169158430        1.1546170539
Mo            0.3077480030        1.7331249434        2.7777763373
S             1.9023135718        0.8483554116        4.3850970949
S             1.8873429467        0.8274653487        1.1916607683
Mo            1.8860214828        4.4837894735        2.7130203462
S             0.2988868364        3.5881454186        4.3227034543
S             0.2977397630        3.5320720909        1.1402825891
Mo            0.3339684274        7.2254808611        2.7623076492
S             1.9617071451        6.2826846213        4.3255180127
S             1.8897998443        6.3240261680        1.1292979001
Mo            1.8993188968        9.9323856598        2.7919536382
S             0.3107946473        9.0404229266        4.3803217241
S             0.3196751382        9.0584383627        1.1929764917
H            -1.2589745139        6.1818735970        5.5752506122
End final coordinates



     Writing all to output data dir ./MoS2-V-O.save/
 
     init_run     :      2.38s CPU      2.65s WALL (       1 calls)
     electrons    :   3736.82s CPU   4181.69s WALL (      39 calls)
     update_pot   :     54.29s CPU     57.37s WALL (      38 calls)
     forces       :     55.58s CPU     65.33s WALL (      39 calls)

     Called by init_run:
     wfcinit      :      0.38s CPU      0.43s WALL (       1 calls)
     potinit      :      1.32s CPU      1.44s WALL (       1 calls)
     hinit0       :      0.16s CPU      0.18s WALL (       1 calls)

     Called by electrons:
     c_bands      :    452.43s CPU    460.06s WALL (     341 calls)
     sum_band     :     99.79s CPU    140.35s WALL (     341 calls)
     v_of_rho     :    149.00s CPU    185.76s WALL (     362 calls)
     newd         :     52.89s CPU     88.27s WALL (     362 calls)
     mix_rho      :   2999.42s CPU   3324.84s WALL (     341 calls)

     Called by c_bands:
     init_us_2    :      7.21s CPU      7.83s WALL (     683 calls)
     init_us_2:cp :      7.21s CPU      7.82s WALL (     683 calls)
     regterg      :    426.96s CPU    433.93s WALL (     341 calls)

     Called by *egterg:
     rdiaghg      :     31.91s CPU     32.27s WALL (    1866 calls)
     h_psi        :    232.20s CPU    234.50s WALL (    1923 calls)
     s_psi        :     28.10s CPU     28.19s WALL (    1923 calls)
     g_psi        :      2.70s CPU      2.72s WALL (    1581 calls)

     Called by h_psi:
     h_psi:calbec :     32.74s CPU     32.94s WALL (    1923 calls)
     vloc_psi     :    167.18s CPU    169.04s WALL (    1923 calls)
     add_vuspsi   :     28.00s CPU     28.19s WALL (    1923 calls)

     General routines
     calbec       :     46.47s CPU     46.73s WALL (    2420 calls)
     fft          :     94.13s CPU    110.97s WALL (   24361 calls)
     ffts         :   1345.09s CPU   1659.36s WALL (  735125 calls)
     fftw         :    144.19s CPU    145.57s WALL (  207147 calls)
     interpolate  :      2.60s CPU      3.06s WALL (     362 calls)
 
     Parallel routines
 
     PWSCF        :      1h 4m CPU      1h11m WALL

 
   This run was terminated on:   4:58:32   4Nov2023            

=------------------------------------------------------------------------------=
   JOB DONE.
=------------------------------------------------------------------------------=
