
     Program PWSCF v.7.2 starts on  4Nov2023 at  5:23:36 

     This program is part of the open-source Quantum ESPRESSO suite
     for quantum simulation of materials; please cite
         "P. Giannozzi et al., J. Phys.:Condens. Matter 21 395502 (2009);
         "P. Giannozzi et al., J. Phys.:Condens. Matter 29 465901 (2017);
         "P. Giannozzi et al., J. Chem. Phys. 152 154105 (2020);
          URL http://www.quantum-espresso.org", 
     in publications or presentations arising from this work. More details at
     http://www.quantum-espresso.org/quote

     Parallel version (MPI & OpenMP), running on      48 processor cores
     Number of MPI processes:                48
     Threads/MPI process:                     1

     MPI processes distributed on     1 nodes
     52283 MiB available memory on the printing compute node when the environment starts
 
     Waiting for input...
     Reading input from standard input
Warning: card &CELL ignored
Warning: card CELL_DYNAMICS = 'BFGS', ignored
Warning: card CELL_DOFREE = '2DXY' ignored
Warning: card / ignored

     Current dimensions of program PWSCF are:
     Max number of different atomic species (ntypx) = 10
     Max number of k-points (npk) =  40000
     Max angular momentum in pseudopotentials (lmaxx) =  4

     IMPORTANT: XC functional enforced from input :
     Exchange-correlation= RVV10
                           (   1   4  13   4  26   0   0)
     Any further DFT definition will be discarded
     Please, verify this is what you really want


     gamma-point specific algorithms are used
     signal trapping enabled: kill the code with -SIGUSR1 to stop cleanly the simulation 
 
     R & G space division:  proc/nbgrp/npool/nimage =      48
     Subspace diagonalization in iterative solution of the eigenvalue problem:
     one sub-group per band group will be used
     scalapack distributed-memory algorithm (size of sub-group:  2*  2 procs)

 
     Parallelization info
     --------------------
     sticks:   dense  smooth     PW     G-vecs:    dense   smooth      PW
     Min         243     194     47                49060    35090    4376
     Max         246     196     50                49086    35128    4410
     Sum       11735    9389   2349              2355467  1685513  210763
 
     Using Slab Decomposition
 


     bravais-lattice index     =            0
     lattice parameter (alat)  =      17.8707  a.u.
     unit-cell volume          =   17436.2743 (a.u.)^3
     number of atoms/cell      =           36
     number of atomic types    =            3
     number of electrons       =       307.00
     number of Kohn-Sham states=          185
     kinetic-energy cutoff     =      80.0000  Ry
     charge density cutoff     =     400.0000  Ry
     scf convergence threshold =      1.0E-06
     mixing beta               =       0.7000
     number of iterations used =            8  local-TF  mixing
     energy convergence thresh.=      1.0E-04
     force convergence thresh. =      1.0E-02
     Exchange-correlation= RVV10
                           (   1   4  13   4  26   0   0)
     nstep                     =          200


     celldm(1)=  17.870686  celldm(2)=   0.000000  celldm(3)=   0.000000
     celldm(4)=   0.000000  celldm(5)=   0.000000  celldm(6)=   0.000000

     crystal axes: (cart. coord. in units of alat)
               a(1) = (   1.000000   0.000000   0.000000 )  
               a(2) = (   0.000000   1.155671   0.000000 )  
               a(3) = (   0.000000   0.000000   2.643601 )  

     reciprocal axes: (cart. coord. in units 2 pi/alat)
               b(1) = (  1.000000  0.000000  0.000000 )  
               b(2) = (  0.000000  0.865298  0.000000 )  
               b(3) = (  0.000000  0.000000  0.378272 )  


     PseudoPot. # 1 for Mo read from file:
     ../pseudo/Mo_ONCV_PBE-1.0.oncvpsp.upf
     MD5 check sum: 1b5d28e075c9ccadda658a603575cd1f
     Pseudo is Norm-conserving, Zval = 14.0
     Generated using ONCVPSP code by D. R. Hamann
     Using radial grid of 1526 points,  6 beta functions with: 
                l(1) =   0
                l(2) =   0
                l(3) =   1
                l(4) =   1
                l(5) =   2
                l(6) =   2

     PseudoPot. # 2 for S  read from file:
     ../pseudo/s_pbe_v1.4.uspp.F.UPF
     MD5 check sum: 88d86576ff6df21479756cfb9bdac1df
     Pseudo is Ultrasoft + core correction, Zval =  6.0
     Generated by new atomic code, or converted to UPF format
     Using radial grid of  907 points,  6 beta functions with: 
                l(1) =   0
                l(2) =   0
                l(3) =   1
                l(4) =   1
                l(5) =   2
                l(6) =   2
     Q(r) pseudized with  8 coefficients,  rinner =    1.300   1.300   1.300
                                                       1.300   1.300

     PseudoPot. # 3 for H  read from file:
     ../pseudo/H_ONCV_PBE-1.0.oncvpsp.upf
     MD5 check sum: 1790becc920ee074925cf490c71280fe
     Pseudo is Norm-conserving, Zval =  1.0
     Generated using ONCVPSP code by D. R. Hamann
     Using radial grid of 1166 points,  2 beta functions with: 
                l(1) =   0
                l(2) =   0

     atomic species   valence    mass     pseudopotential
        Mo            14.00    95.94000     Mo( 1.00)
        S              6.00    32.06500     S ( 1.00)
        H              1.00     1.00794     H ( 1.00)

     No symmetry found



   Cartesian axes

     site n.     atom                  positions (alat units)
         1           Mo  tau(   1) = (   0.6952221   0.1890506   0.2985846  )
         2           S   tau(   2) = (   0.8646417   0.0856217   0.4689279  )
         3           S   tau(   3) = (   0.8663890   0.0857843   0.1351291  )
         4           Mo  tau(   4) = (   0.8560186   0.4753274   0.2873942  )
         5           S   tau(   5) = (   0.6873294   0.3936244   0.4596353  )
         6           S   tau(   6) = (   0.6929804   0.3713468   0.1185692  )
         7           Mo  tau(   7) = (   0.6862796   0.7633098   0.2825370  )
         8           S   tau(   8) = (   0.8545980   0.6708292   0.4486168  )
         9           S   tau(   9) = (   0.8545123   0.6666874   0.1146125  )
        10           Mo  tau(  10) = (   0.8629403   1.0471007   0.3006803  )
        11           S   tau(  11) = (   0.6868280   0.9456650   0.4634891  )
        12           S   tau(  12) = (   0.6998113   0.9568511   0.1205389  )
        13           Mo  tau(  13) = (   0.3618216   0.1847309   0.2935964  )
        14           S   tau(  14) = (   0.5260962   0.0863870   0.4600448  )
        15           S   tau(  15) = (   0.5348379   0.0894875   0.1297123  )
        16           Mo  tau(  16) = (   0.5265817   0.4772436   0.2784130  )
        17           S   tau(  17) = (   0.3624753   0.3882513   0.4525556  )
        18           S   tau(  18) = (   0.3635411   0.3752055   0.1119148  )
        19           Mo  tau(  19) = (   0.3652268   0.7630864   0.2781795  )
        20           S   tau(  20) = (   0.5269494   0.6690381   0.1096838  )
        21           Mo  tau(  21) = (   0.5300192   1.0470394   0.2900995  )
        22           S   tau(  22) = (   0.3670346   0.9457522   0.4574073  )
        23           S   tau(  23) = (   0.3604225   0.9585725   0.1159032  )
        24           Mo  tau(  24) = (   0.0313099   0.1847895   0.3013130  )
        25           S   tau(  25) = (   0.1956761   0.0838230   0.4650863  )
        26           S   tau(  26) = (   0.1967693   0.0903508   0.1278874  )
        27           Mo  tau(  27) = (   0.1967578   0.4753919   0.2813011  )
        28           S   tau(  28) = (   0.0287851   0.3864324   0.4586755  )
        29           S   tau(  29) = (   0.0244514   0.3729871   0.1239344  )
        30           Mo  tau(  30) = (   0.0286728   0.7631204   0.2856894  )
        31           S   tau(  31) = (   0.2011512   0.6675435   0.4465001  )
        32           S   tau(  32) = (   0.1969214   0.6672839   0.1104564  )
        33           Mo  tau(  33) = (   0.1950294   1.0511147   0.2932237  )
        34           S   tau(  34) = (   0.0312912   0.9612169   0.4667423  )
        35           S   tau(  35) = (   0.0292670   0.9563028   0.1216485  )
        36           H   tau(  36) = (   0.5555556   0.0000000   0.5575849  )

     number of k points=     1  Gaussian smearing, width (Ry)=  0.0100
                       cart. coord. in units 2pi/alat
        k(    1) = (   0.0000000   0.0000000   0.0000000), wk =   2.0000000

     Dense  grid:  1177734 G-vectors     FFT dimensions: ( 120, 135, 320)

     Smooth grid:   842757 G-vectors     FFT dimensions: ( 108, 120, 270)

     Estimated max dynamical RAM per process >     146.59 MB

     Estimated total dynamical RAM >       6.87 GB

     Initial potential from superposition of free atoms

     starting charge     306.9873, renormalised to     307.0000

     negative rho (up, down):  1.413E-04 0.000E+00


---------------------------------------------------------------------------------
Carrying out rVV10 run using the following parameters:
Nqs =      20    Nr_points =    1024   r_max =   100.000
b_value =  6.30000    beta =  0.00901
     q_mesh =  0.00010000  0.00030000  0.00058939  0.00100810
               0.00161396  0.00249058  0.00375900  0.00559430
               0.00824984  0.01209221  0.01765183  0.02569619
               0.03733578  0.05417739  0.07854596  0.11380545
               0.16482331  0.23864234  0.34545298  0.50000000

Gradients computed in Reciprocal space

---------------------------------------------------------------------------------


     Starting wfcs are  213 randomized atomic wfcs

     total cpu time spent up to now is        3.5 secs

     Self-consistent Calculation

     iteration #  1     ecut=    80.00 Ry     beta= 0.70
     Davidson diagonalization with overlap
     ethr =  1.00E-02,  avg # of iterations =  2.0

     Threshold (ethr) on eigenvalues was too large:
     Diagonalizing with lowered threshold

     Davidson diagonalization with overlap
     ethr =  3.93E-04,  avg # of iterations =  4.0

     negative rho (up, down):  1.824E-08 0.000E+00

     total cpu time spent up to now is       19.9 secs

     total energy              =   -2205.60868096 Ry
     estimated scf accuracy    <       1.49209530 Ry

     iteration #  2     ecut=    80.00 Ry     beta= 0.70
     Davidson diagonalization with overlap
     ethr =  4.86E-04,  avg # of iterations =  1.0

     total cpu time spent up to now is       22.2 secs

     total energy              =   -2205.43125212 Ry
     estimated scf accuracy    <       0.61703540 Ry

     iteration #  3     ecut=    80.00 Ry     beta= 0.70
     Davidson diagonalization with overlap
     ethr =  2.01E-04,  avg # of iterations =  5.0

     total cpu time spent up to now is       24.9 secs

     total energy              =   -2205.52805089 Ry
     estimated scf accuracy    <       0.07235916 Ry

     iteration #  4     ecut=    80.00 Ry     beta= 0.70
     Davidson diagonalization with overlap
     ethr =  2.36E-05,  avg # of iterations = 12.0

     total cpu time spent up to now is       27.8 secs

     total energy              =   -2205.53269293 Ry
     estimated scf accuracy    <       0.03278938 Ry

     iteration #  5     ecut=    80.00 Ry     beta= 0.70
     Davidson diagonalization with overlap
     ethr =  1.07E-05,  avg # of iterations =  2.0

     total cpu time spent up to now is       30.1 secs

     total energy              =   -2205.53122036 Ry
     estimated scf accuracy    <       0.02036588 Ry

     iteration #  6     ecut=    80.00 Ry     beta= 0.70
     Davidson diagonalization with overlap
     ethr =  6.63E-06,  avg # of iterations =  2.0

     total cpu time spent up to now is       32.2 secs

     total energy              =   -2205.53113558 Ry
     estimated scf accuracy    <       0.01277811 Ry

     iteration #  7     ecut=    80.00 Ry     beta= 0.70
     Davidson diagonalization with overlap
     ethr =  4.16E-06,  avg # of iterations =  2.0

     total cpu time spent up to now is       34.4 secs

     total energy              =   -2205.52936507 Ry
     estimated scf accuracy    <       0.00998508 Ry

     iteration #  8     ecut=    80.00 Ry     beta= 0.70
     Davidson diagonalization with overlap
     c_bands:  1 eigenvalues not converged
     ethr =  3.25E-06,  avg # of iterations = 20.0

     negative rho (up, down):  2.182E-03 0.000E+00

     total cpu time spent up to now is       39.4 secs

     total energy              =   -2205.52865454 Ry
     estimated scf accuracy    <       0.00482913 Ry

     iteration #  9     ecut=    80.00 Ry     beta= 0.70
     Davidson diagonalization with overlap
     c_bands:  1 eigenvalues not converged
     ethr =  1.57E-06,  avg # of iterations = 20.0

     negative rho (up, down):  2.900E-02 0.000E+00

     total cpu time spent up to now is       44.2 secs

     total energy              =   -2205.52841318 Ry
     estimated scf accuracy    <       0.00287070 Ry

     iteration # 10     ecut=    80.00 Ry     beta= 0.70
     Davidson diagonalization with overlap
     ethr =  9.35E-07,  avg # of iterations =  2.0

     negative rho (up, down):  2.742E-02 0.000E+00

     total cpu time spent up to now is       48.7 secs

     total energy              =   -2205.52831476 Ry
     estimated scf accuracy    <       0.00149001 Ry

     iteration # 11     ecut=    80.00 Ry     beta= 0.70
     Davidson diagonalization with overlap
     ethr =  4.85E-07,  avg # of iterations =  2.0

     negative rho (up, down):  2.224E-02 0.000E+00

     total cpu time spent up to now is       53.1 secs

     total energy              =   -2205.52837557 Ry
     estimated scf accuracy    <       0.00059423 Ry

     iteration # 12     ecut=    80.00 Ry     beta= 0.70
     Davidson diagonalization with overlap
     ethr =  1.94E-07,  avg # of iterations =  6.0

     negative rho (up, down):  1.088E-02 0.000E+00

     total cpu time spent up to now is       59.8 secs

     total energy              =   -2205.52844665 Ry
     estimated scf accuracy    <       0.00014097 Ry

     iteration # 13     ecut=    80.00 Ry     beta= 0.70
     Davidson diagonalization with overlap
     ethr =  4.59E-08,  avg # of iterations =  2.0

     negative rho (up, down):  2.281E-03 0.000E+00

     total cpu time spent up to now is       68.0 secs

     total energy              =   -2205.52848914 Ry
     estimated scf accuracy    <       0.00002371 Ry

     iteration # 14     ecut=    80.00 Ry     beta= 0.70
     Davidson diagonalization with overlap
     ethr =  7.72E-09,  avg # of iterations =  6.0

     negative rho (up, down):  9.845E-04 0.000E+00

     total cpu time spent up to now is       75.9 secs

     total energy              =   -2205.52849373 Ry
     estimated scf accuracy    <       0.00000553 Ry

     iteration # 15     ecut=    80.00 Ry     beta= 0.70
     Davidson diagonalization with overlap
     ethr =  1.80E-09,  avg # of iterations =  2.0

     negative rho (up, down):  3.339E-04 0.000E+00

     total cpu time spent up to now is       87.0 secs

     total energy              =   -2205.52849646 Ry
     estimated scf accuracy    <       0.00000239 Ry

     iteration # 16     ecut=    80.00 Ry     beta= 0.70
     Davidson diagonalization with overlap
     ethr =  7.78E-10,  avg # of iterations =  2.0

     negative rho (up, down):  1.369E-04 0.000E+00

     total cpu time spent up to now is       89.0 secs

     End of self-consistent calculation

          k = 0.0000 0.0000 0.0000 (105382 PWs)   bands (ev):

   -62.8834 -62.8618 -62.8533 -62.8422 -62.7829 -62.7744 -62.7715 -62.7638
   -62.6972 -62.5804 -62.5629 -62.5042 -37.2113 -37.1528 -37.1284 -37.1020
   -37.0900 -37.0896 -37.0762 -37.0523 -37.0453 -37.0339 -37.0226 -37.0005
   -36.9751 -36.9619 -36.9611 -36.9571 -36.9556 -36.9483 -36.9404 -36.9363
   -36.8944 -36.8763 -36.8570 -36.8542 -36.8178 -36.8058 -36.8018 -36.7862
   -36.7593 -36.7438 -36.7303 -36.7170 -36.6786 -36.6494 -36.5362 -36.5274
   -16.7868 -15.7521 -15.1107 -14.9991 -14.8977 -14.8196 -14.5940 -14.4275
   -14.4070 -14.3897 -14.3297 -14.2942 -14.2840 -14.2305 -14.1037 -14.0648
   -14.0456 -14.0373 -13.9917 -13.8416 -13.7567 -13.7427 -13.7141  -9.5730
    -7.6017  -7.4086  -7.3267  -7.2590  -7.2015  -7.1663  -7.1064  -7.0722
    -6.8006  -6.7071  -6.6726  -6.6123  -6.5814  -6.5177  -6.4158  -6.3528
    -6.3119  -6.2450  -6.1843  -5.9810  -5.8900  -5.8589  -5.7502  -5.7377
    -5.6986  -5.6756  -5.6044  -5.5848  -5.5595  -5.5470  -5.4726  -5.3895
    -5.3848  -5.3038  -5.2317  -5.0881  -4.9682  -4.9473  -4.9270  -4.8825
    -4.8580  -4.7663  -4.6731  -4.5443  -4.4372  -4.3072  -4.2428  -4.1755
    -4.1325  -4.0476  -3.9687  -3.9324  -3.8271  -3.7196  -3.6569  -3.6169
    -3.5652  -3.4877  -3.4650  -3.4276  -3.4239  -3.3960  -3.3699  -3.3601
    -3.3205  -3.1950  -3.0901  -2.8464  -2.8208  -2.7861  -2.7075  -2.7008
    -2.6744  -2.6281  -2.5895  -2.5362  -2.4569  -2.1908  -1.9780  -1.9265
    -1.8010  -0.6558  -0.6084  -0.5344  -0.1579  -0.0741  -0.0515  -0.0314
     0.0837   0.1894   0.2291   0.2383   0.2729   0.2899   0.4785   0.5458
     0.5638   0.6140   0.6263   0.6620   0.6927   0.7239   0.7530   0.7890
     0.8188   0.8404   0.9109   0.9423   1.0180   1.0430   1.1184   1.2348
     1.4700

     the Fermi energy is    -0.7050 ev

!    total energy              =   -2205.52849753 Ry
     estimated scf accuracy    <       0.00000083 Ry
     smearing contrib. (-TS)   =      -0.00952681 Ry
     internal energy E=F+TS    =   -2205.51897072 Ry

     The total energy is F=E-TS. E is the sum of the following terms:
     one-electron contribution =  -18052.11571113 Ry
     hartree contribution      =    9013.38491700 Ry
     xc contribution           =    -385.43037720 Ry
     ewald contribution        =    7218.64220061 Ry

     convergence has been achieved in  16 iterations

     negative rho (up, down):  1.369E-04 0.000E+00

     Forces acting on atoms (cartesian axes, Ry/au):

     atom    1 type  1   force =     0.02897276   -0.02489922    0.01100653
     atom    2 type  2   force =    -0.01204755    0.01840810   -0.00185903
     atom    3 type  2   force =    -0.01410302    0.00933400   -0.00388387
     atom    4 type  1   force =     0.01063724   -0.00631516    0.00148624
     atom    5 type  2   force =     0.00019074    0.00035827   -0.00634411
     atom    6 type  2   force =     0.00342091    0.01139545    0.00145733
     atom    7 type  1   force =    -0.00143011   -0.00010401   -0.00905211
     atom    8 type  2   force =     0.00176744   -0.00562597    0.01711377
     atom    9 type  2   force =     0.01425079    0.00385679    0.01067912
     atom   10 type  1   force =    -0.01352119    0.01080037   -0.02678230
     atom   11 type  2   force =     0.00566111   -0.00343254   -0.00159704
     atom   12 type  2   force =    -0.00279334    0.00094260    0.00529750
     atom   13 type  1   force =    -0.02321704    0.01168156   -0.01201259
     atom   14 type  2   force =     0.00332808    0.07557681   -0.07795120
     atom   15 type  2   force =    -0.01301452    0.00144117   -0.00836486
     atom   16 type  1   force =    -0.00083831   -0.00285444    0.00050913
     atom   17 type  2   force =     0.00432235    0.00628941    0.00280524
     atom   18 type  2   force =    -0.00549980   -0.00786300    0.01445386
     atom   19 type  1   force =     0.00971131   -0.00305256   -0.00407307
     atom   20 type  2   force =     0.00341286   -0.00488641    0.00124194
     atom   21 type  1   force =    -0.00580257   -0.01160829   -0.02549717
     atom   22 type  2   force =    -0.00419935   -0.00370437   -0.00015308
     atom   23 type  2   force =    -0.00055280    0.00303228    0.00842624
     atom   24 type  1   force =    -0.00799579   -0.00187765   -0.01496559
     atom   25 type  2   force =     0.00932194    0.01949247    0.00474687
     atom   26 type  2   force =    -0.00795282   -0.00060740   -0.00469044
     atom   27 type  1   force =    -0.00554445   -0.00692986    0.00975726
     atom   28 type  2   force =     0.00079304    0.00022290   -0.00619246
     atom   29 type  2   force =     0.00284729    0.00180202   -0.00352270
     atom   30 type  1   force =    -0.00445432    0.01265424   -0.00675464
     atom   31 type  2   force =     0.00106007   -0.00115672    0.01637304
     atom   32 type  2   force =    -0.01075448    0.00444780    0.00741225
     atom   33 type  1   force =     0.01578688   -0.00339264   -0.01038015
     atom   34 type  2   force =     0.00349513   -0.04298047   -0.01022489
     atom   35 type  2   force =    -0.00799898    0.00628636    0.01506678
     atom   36 type  3   force =     0.02274054   -0.06673190    0.10646822
     The non-local contrib.  to forces
     atom    1 type  1   force =     0.00198969    0.03536215   -0.02030688
     atom    2 type  2   force =    -0.01523576    0.00551030   -0.26819469
     atom    3 type  2   force =    -0.01896896    0.00127241    0.27154775
     atom    4 type  1   force =    -0.00162594    0.01406125    0.00455652
     atom    5 type  2   force =     0.00557408   -0.03402548   -0.25157192
     atom    6 type  2   force =     0.00095390    0.00813996    0.26205317
     atom    7 type  1   force =    -0.02765547   -0.01422818   -0.01532473
     atom    8 type  2   force =     0.00453721   -0.00534829   -0.25394930
     atom    9 type  2   force =     0.01056636   -0.01304433    0.27601289
     atom   10 type  1   force =     0.00677712   -0.00388419    0.00029605
     atom   11 type  2   force =     0.01339589    0.00916388   -0.23663257
     atom   12 type  2   force =    -0.01375205   -0.01425080    0.26266714
     atom   13 type  1   force =    -0.00349802    0.02211428   -0.01817095
     atom   14 type  2   force =     0.04111129   -0.12123587    0.02428061
     atom   15 type  2   force =    -0.01277406   -0.00617848    0.26719367
     atom   16 type  1   force =     0.00053745    0.05682637   -0.01544061
     atom   17 type  2   force =     0.00054560   -0.02665484   -0.24787280
     atom   18 type  2   force =    -0.00815206   -0.00967478    0.27448228
     atom   19 type  1   force =     0.02331847   -0.01432893   -0.01062648
     atom   20 type  2   force =     0.00053290   -0.02179857    0.26408381
     atom   21 type  1   force =     0.00066979    0.00712637    0.00086647
     atom   22 type  2   force =    -0.00379303    0.00564730   -0.24760930
     atom   23 type  2   force =     0.00810067   -0.01228945    0.26842418
     atom   24 type  1   force =     0.00440568    0.01937631   -0.01168771
     atom   25 type  2   force =     0.00916886    0.00877929   -0.25426289
     atom   26 type  2   force =     0.00219411   -0.00658378    0.26691597
     atom   27 type  1   force =    -0.00133836    0.01799423    0.00879156
     atom   28 type  2   force =    -0.00386431   -0.02689399   -0.27370475
     atom   29 type  2   force =     0.00699316    0.00065828    0.26372348
     atom   30 type  1   force =     0.00032870    0.01378920    0.01108998
     atom   31 type  2   force =    -0.00775215   -0.00078869   -0.25268187
     atom   32 type  2   force =    -0.00570902   -0.01380072    0.27084290
     atom   33 type  1   force =    -0.00623677    0.00138693    0.00678374
     atom   34 type  2   force =    -0.00065030   -0.03572694   -0.27112573
     atom   35 type  2   force =    -0.00203136   -0.00906828    0.27323629
     atom   36 type  3   force =    -0.01821937    0.05323063   -0.05732654
     The ionic contribution  to forces
     atom    1 type  1   force =     0.62895179    0.57476934    5.29101838
     atom    2 type  2   force =    -0.41054058    0.48762223   39.21599498
     atom    3 type  2   force =    -0.12374046    0.03290785  -36.13333417
     atom    4 type  1   force =     0.14675181    0.65101512    0.66575699
     atom    5 type  2   force =    -0.91619115    1.63743116   38.72736843
     atom    6 type  2   force =     0.35984168   -0.46297985  -38.04585145
     atom    7 type  1   force =    -2.54920641   -2.95681570    2.48335130
     atom    8 type  2   force =    -0.95177298   -0.00913515   37.39246737
     atom    9 type  2   force =     0.35339712   -0.04800600  -37.99800408
     atom   10 type  1   force =    -0.84036700   -0.43586382    5.45944830
     atom   11 type  2   force =    -0.31777819   -2.00819695   38.97916887
     atom   12 type  2   force =     0.47065157    0.64842635  -37.91802018
     atom   13 type  1   force =     0.22494428    1.25387556    2.53908440
     atom   14 type  2   force =    -0.39970374    1.34519435   37.01188111
     atom   15 type  2   force =     0.15076613   -0.03089512  -36.92750096
     atom   16 type  1   force =    -0.03346049    4.05832410    0.43731431
     atom   17 type  2   force =     0.75059807    1.61943039   37.91601501
     atom   18 type  2   force =    -0.17731596   -0.61316452  -38.57990334
     atom   19 type  1   force =     2.64002680   -2.59665874    0.58750890
     atom   20 type  2   force =     0.22693643   -0.21498458  -38.48423192
     atom   21 type  1   force =    -0.04346139   -0.31603492    0.33714399
     atom   22 type  2   force =     0.22405006   -1.98961536   38.32055951
     atom   23 type  2   force =    -0.11788523    0.62734452  -38.34255466
     atom   24 type  1   force =    -0.52410734    1.23452402    5.77991373
     atom   25 type  2   force =     0.48973752    0.33704994   39.22945469
     atom   26 type  2   force =    -0.31907887    0.07968832  -37.36801023
     atom   27 type  1   force =    -0.01848623    0.46498550   -2.24796672
     atom   28 type  2   force =     0.05942908    1.05729560   38.21161480
     atom   29 type  2   force =    -0.26235477   -0.40617735  -37.26226466
     atom   30 type  1   force =    -0.32957213   -0.97839315   -0.03356270
     atom   31 type  2   force =     1.19963936   -0.08543909   37.33309649
     atom   32 type  2   force =    -0.49005785   -0.01645905  -38.62676339
     atom   33 type  1   force =     0.60976673   -0.94164555    1.92557523
     atom   34 type  2   force =     0.25741255   -1.50249006   39.34650547
     atom   35 type  2   force =    -0.29591585    0.45602383  -37.82704356
     atom   36 type  3   force =     0.32809564   -0.95295323    8.60476978
     The local contribution  to forces
     atom    1 type  1   force =    -0.60189154   -0.63488837   -5.25871945
     atom    2 type  2   force =     0.41304436   -0.47441973  -38.96994675
     atom    3 type  2   force =     0.12776131   -0.02463990   35.87948159
     atom    4 type  1   force =    -0.13449852   -0.67139777   -0.66768484
     atom    5 type  2   force =     0.91140179   -1.60504809  -38.50212687
     atom    6 type  2   force =    -0.35746825    0.46717864   37.80671547
     atom    7 type  1   force =     2.57554367    2.97093171   -2.47609748
     atom    8 type  2   force =     0.94922217    0.00819590  -37.14145068
     atom    9 type  2   force =    -0.34934581    0.06405236   37.75415590
     atom   10 type  1   force =     0.82013196    0.45056185   -5.48541672
     atom   11 type  2   force =     0.31041302    1.99687931  -38.76308137
     atom   12 type  2   force =    -0.46092822   -0.63442317   37.68204466
     atom   13 type  1   force =    -0.24485462   -1.26418098   -2.53196176
     atom   14 type  2   force =     0.36528744   -1.15774000  -37.11621529
     atom   15 type  2   force =    -0.15176734    0.03815831   36.67353292
     atom   16 type  1   force =     0.03205037   -4.11822296   -0.42039247
     atom   17 type  2   force =    -0.74689317   -1.58806707  -37.68520103
     atom   18 type  2   force =     0.17962753    0.61507677   38.34156921
     atom   19 type  1   force =    -2.65376519    2.60789954   -0.57999350
     atom   20 type  2   force =    -0.22417728    0.23099174   38.24301634
     atom   21 type  1   force =     0.03697522    0.29722988   -0.36240412
     atom   22 type  2   force =    -0.22427807    1.98123903  -38.09260911
     atom   23 type  2   force =     0.10986521   -0.61307427   38.10405146
     atom   24 type  1   force =     0.51179469   -1.25566334   -5.78207665
     atom   25 type  2   force =    -0.48932532   -0.32567622  -38.99056447
     atom   26 type  2   force =     0.30935325   -0.07404976   37.11808541
     atom   27 type  1   force =     0.01432999   -0.48993819    2.25006784
     atom   28 type  2   force =    -0.05502745   -1.03209722  -37.96473810
     atom   29 type  2   force =     0.25881375    0.40782612   37.01624661
     atom   30 type  1   force =     0.32480827    0.97710665    0.01682118
     atom   31 type  2   force =    -1.19136054    0.08484452  -37.08420591
     atom   32 type  2   force =     0.48495570    0.03381104   38.38478268
     atom   33 type  1   force =    -0.58777691    0.93694986   -1.94165140
     atom   34 type  2   force =    -0.25366207    1.49421455  -39.10635205
     atom   35 type  2   force =     0.29004512   -0.44154836   37.59067093
     atom   36 type  3   force =    -0.28713266    0.83297391   -8.44091676
     The core correction contribution to forces
     atom    1 type  1   force =     0.00000000    0.00000000    0.00000000
     atom    2 type  2   force =     0.00072942   -0.00029334    0.02051167
     atom    3 type  2   force =     0.00087784   -0.00019129   -0.02096360
     atom    4 type  1   force =     0.00000000    0.00000000    0.00000000
     atom    5 type  2   force =    -0.00055159    0.00209195    0.02018248
     atom    6 type  2   force =     0.00007119   -0.00084033   -0.02083368
     atom    7 type  1   force =     0.00000000    0.00000000    0.00000000
     atom    8 type  2   force =    -0.00015510    0.00056220    0.02034593
     atom    9 type  2   force =    -0.00034009    0.00077553   -0.02092997
     atom   10 type  1   force =     0.00000000    0.00000000    0.00000000
     atom   11 type  2   force =    -0.00037202   -0.00126037    0.01916656
     atom   12 type  2   force =     0.00120892    0.00117718   -0.02079203
     atom   13 type  1   force =     0.00000000    0.00000000    0.00000000
     atom   14 type  2   force =    -0.00336421    0.00926126    0.00231299
     atom   15 type  2   force =     0.00070141    0.00037339   -0.02098110
     atom   16 type  1   force =     0.00000000    0.00000000    0.00000000
     atom   17 type  2   force =     0.00002097    0.00163465    0.02003133
     atom   18 type  2   force =     0.00035060   -0.00004149   -0.02104439
     atom   19 type  1   force =     0.00000000    0.00000000    0.00000000
     atom   20 type  2   force =     0.00009612    0.00082089   -0.02110144
     atom   21 type  1   force =     0.00000000    0.00000000    0.00000000
     atom   22 type  2   force =    -0.00016085   -0.00097277    0.01973499
     atom   23 type  2   force =    -0.00061033    0.00102786   -0.02090054
     atom   24 type  1   force =     0.00000000    0.00000000    0.00000000
     atom   25 type  2   force =    -0.00028250   -0.00059941    0.02029195
     atom   26 type  2   force =    -0.00039462    0.00038873   -0.02103308
     atom   27 type  1   force =     0.00000000    0.00000000    0.00000000
     atom   28 type  2   force =     0.00026033    0.00195857    0.02087396
     atom   29 type  2   force =    -0.00059133   -0.00043926   -0.02060430
     atom   30 type  1   force =     0.00000000    0.00000000    0.00000000
     atom   31 type  2   force =     0.00048276    0.00014023    0.02045047
     atom   32 type  2   force =     0.00005128    0.00082583   -0.02088079
     atom   33 type  1   force =     0.00000000    0.00000000    0.00000000
     atom   34 type  2   force =     0.00037523    0.00100304    0.02098190
     atom   35 type  2   force =    -0.00009692    0.00084058   -0.02118756
     atom   36 type  3   force =     0.00000000    0.00000000    0.00000000
     The Hubbard contrib.    to forces
     atom    1 type  1   force =     0.00000000    0.00000000    0.00000000
     atom    2 type  2   force =     0.00000000    0.00000000    0.00000000
     atom    3 type  2   force =     0.00000000    0.00000000    0.00000000
     atom    4 type  1   force =     0.00000000    0.00000000    0.00000000
     atom    5 type  2   force =     0.00000000    0.00000000    0.00000000
     atom    6 type  2   force =     0.00000000    0.00000000    0.00000000
     atom    7 type  1   force =     0.00000000    0.00000000    0.00000000
     atom    8 type  2   force =     0.00000000    0.00000000    0.00000000
     atom    9 type  2   force =     0.00000000    0.00000000    0.00000000
     atom   10 type  1   force =     0.00000000    0.00000000    0.00000000
     atom   11 type  2   force =     0.00000000    0.00000000    0.00000000
     atom   12 type  2   force =     0.00000000    0.00000000    0.00000000
     atom   13 type  1   force =     0.00000000    0.00000000    0.00000000
     atom   14 type  2   force =     0.00000000    0.00000000    0.00000000
     atom   15 type  2   force =     0.00000000    0.00000000    0.00000000
     atom   16 type  1   force =     0.00000000    0.00000000    0.00000000
     atom   17 type  2   force =     0.00000000    0.00000000    0.00000000
     atom   18 type  2   force =     0.00000000    0.00000000    0.00000000
     atom   19 type  1   force =     0.00000000    0.00000000    0.00000000
     atom   20 type  2   force =     0.00000000    0.00000000    0.00000000
     atom   21 type  1   force =     0.00000000    0.00000000    0.00000000
     atom   22 type  2   force =     0.00000000    0.00000000    0.00000000
     atom   23 type  2   force =     0.00000000    0.00000000    0.00000000
     atom   24 type  1   force =     0.00000000    0.00000000    0.00000000
     atom   25 type  2   force =     0.00000000    0.00000000    0.00000000
     atom   26 type  2   force =     0.00000000    0.00000000    0.00000000
     atom   27 type  1   force =     0.00000000    0.00000000    0.00000000
     atom   28 type  2   force =     0.00000000    0.00000000    0.00000000
     atom   29 type  2   force =     0.00000000    0.00000000    0.00000000
     atom   30 type  1   force =     0.00000000    0.00000000    0.00000000
     atom   31 type  2   force =     0.00000000    0.00000000    0.00000000
     atom   32 type  2   force =     0.00000000    0.00000000    0.00000000
     atom   33 type  1   force =     0.00000000    0.00000000    0.00000000
     atom   34 type  2   force =     0.00000000    0.00000000    0.00000000
     atom   35 type  2   force =     0.00000000    0.00000000    0.00000000
     atom   36 type  3   force =     0.00000000    0.00000000    0.00000000
     The SCF correction term to forces
     atom    1 type  1   force =    -0.00007726   -0.00014566   -0.00095624
     atom    2 type  2   force =    -0.00004508   -0.00001469   -0.00019497
     atom    3 type  2   force =    -0.00003284   -0.00001839   -0.00058616
     atom    4 type  1   force =     0.00000979    0.00000292   -0.00111315
     atom    5 type  2   force =    -0.00004249   -0.00009460   -0.00016695
     atom    6 type  2   force =     0.00002230   -0.00010629   -0.00059690
     atom    7 type  1   force =    -0.00011199    0.00000484   -0.00095191
     atom    8 type  2   force =    -0.00006395    0.00009605   -0.00027028
     atom    9 type  2   force =    -0.00002688    0.00007591   -0.00052634
     atom   10 type  1   force =    -0.00006336   -0.00001680   -0.00108065
     atom   11 type  2   force =     0.00000231   -0.00002173   -0.00018925
     atom   12 type  2   force =     0.00002635    0.00000971   -0.00057281
     atom   13 type  1   force =     0.00019123   -0.00013062   -0.00093501
     atom   14 type  2   force =    -0.00000279    0.00009375   -0.00018134
     atom   15 type  2   force =     0.00005926   -0.00002025   -0.00058012
     atom   16 type  1   force =     0.00003427    0.00021473   -0.00094283
     atom   17 type  2   force =     0.00005078   -0.00005704   -0.00013800
     atom   18 type  2   force =    -0.00001001   -0.00006231   -0.00062062
     atom   19 type  1   force =     0.00013114    0.00003224   -0.00093271
     atom   20 type  2   force =     0.00002460    0.00008079   -0.00049559
     atom   21 type  1   force =     0.00001372    0.00006706   -0.00107423
     atom   22 type  2   force =    -0.00001755   -0.00000590   -0.00019989
     atom   23 type  2   force =    -0.00002321    0.00002029   -0.00056492
     atom   24 type  1   force =    -0.00008891   -0.00011796   -0.00108568
     atom   25 type  2   force =     0.00002328   -0.00006445   -0.00014315
     atom   26 type  2   force =    -0.00002678   -0.00005424   -0.00061923
     atom   27 type  1   force =    -0.00004993    0.00002527   -0.00110615
     atom   28 type  2   force =    -0.00000470   -0.00004339   -0.00020909
     atom   29 type  2   force =    -0.00001361   -0.00006910   -0.00059455
     atom   30 type  1   force =    -0.00001925    0.00014822   -0.00107382
     atom   31 type  2   force =     0.00005055    0.00008297   -0.00025687
     atom   32 type  2   force =     0.00000531    0.00006737   -0.00053987
     atom   33 type  1   force =     0.00003374   -0.00008721   -0.00105844
     atom   34 type  2   force =     0.00001963    0.00001561   -0.00020521
     atom   35 type  2   force =    -0.00000005    0.00003526   -0.00058005
     atom   36 type  3   force =    -0.00000315    0.00001347   -0.00002898

     Total force =     0.199085     Total SCF correction =     0.004174

     BFGS Geometry Optimization
     Energy error            =      0.0E+00 Ry
     Gradient error          =      1.1E-01 Ry/Bohr

     number of scf cycles    =   1
     number of bfgs steps    =   0

     energy             new  =   -2205.5284975315 Ry

     new trust radius        =       0.1276940093 bohr
     new conv_thr            =       0.0000010000 Ry


ATOMIC_POSITIONS (angstrom)
Mo            6.5898801333        1.7746301309        2.8294674352
S             8.1703340486        0.8194451713        4.4335545968
S             8.1857700873        0.8161810829        1.2758281685
Mo            8.1007915492        4.4917151041        2.7186048773
S             6.5000101898        3.7226010764        4.3433034908
S             6.5551600680        3.5177677705        1.1220514142
Mo            6.4892249140        7.2183822454        2.6670943162
S             8.0826630163        6.3408938570        4.2515177788
S             8.0884588389        6.3067432430        1.0895141465
Mo            8.1534639401        9.9078957204        2.8292891794
S             6.4981633257        8.9411103932        4.3822604163
S             6.6164690253        9.0492100173        1.1427106213
Mo            3.4093737355        1.7531374674        2.7701143732
S             4.9769266354        0.8569347353        4.3092830933
S             5.0509467679        0.8470247437        1.2222319667
Mo            4.9793130665        4.5116675007        2.6331539708
S             3.4301289485        3.6749279007        4.2811940462
S             3.4350102123        3.5440677774        1.0660003346
Mo            3.4590007424        7.2147091933        2.6285214877
S             4.9850402003        6.3243465111        1.0379109354
Mo            5.0091933306        9.8954572103        2.7299084393
S             3.4687359144        8.9417909987        4.3255103045
S             3.4081366388        9.0665945956        1.1005272731
Mo            0.2918592988        1.7465159195        2.8415252615
S             1.8553951685        0.8030089787        4.4007213742
S             1.8565915858        0.8541044964        1.2069187786
Mo            1.8577573139        4.4919996367        2.6653606997
S             0.2726335063        3.6545167805        4.3343071921
S             0.2327379274        3.5282028128        1.1701537514
Mo            0.2687950273        7.2233424303        2.6981220241
S             1.9027992106        6.3121867234        4.2311083602
S             1.8565471901        6.3126974868        1.0484816763
Mo            1.8527007180        9.9383438480        2.7674533138
S             0.2977624408        9.0672535419        4.4084586850
S             0.2725385218        9.0468523111        1.1583737739
H             5.2657893292       -0.0353130024        5.3292868056



     Writing config-only to output data dir ./MoS2-V-O.save/
     NEW-OLD atomic charge density approx. for the potential

     negative rho (up, down):  1.477E-04 0.000E+00

     total cpu time spent up to now is       92.4 secs

     Self-consistent Calculation

     iteration #  1     ecut=    80.00 Ry     beta= 0.70
     Davidson diagonalization with overlap
     c_bands:  1 eigenvalues not converged
     ethr =  1.00E-06,  avg # of iterations = 20.0

     negative rho (up, down):  2.459E-04 0.000E+00

     total cpu time spent up to now is      107.7 secs

     total energy              =   -2205.54868325 Ry
     estimated scf accuracy    <       0.00500839 Ry

     iteration #  2     ecut=    80.00 Ry     beta= 0.70
     Davidson diagonalization with overlap
     c_bands:  1 eigenvalues not converged
     ethr =  1.63E-06,  avg # of iterations = 20.0

     negative rho (up, down):  3.643E-04 0.000E+00

     total cpu time spent up to now is      120.0 secs

     total energy              =   -2205.54876974 Ry
     estimated scf accuracy    <       0.00084108 Ry

     iteration #  3     ecut=    80.00 Ry     beta= 0.70
     Davidson diagonalization with overlap
     ethr =  2.74E-07,  avg # of iterations = 10.0

     negative rho (up, down):  4.384E-04 0.000E+00

     total cpu time spent up to now is      137.3 secs

     total energy              =   -2205.54885781 Ry
     estimated scf accuracy    <       0.00029657 Ry

     iteration #  4     ecut=    80.00 Ry     beta= 0.70
     Davidson diagonalization with overlap
     ethr =  9.66E-08,  avg # of iterations =  2.0

     negative rho (up, down):  4.661E-04 0.000E+00

     total cpu time spent up to now is      152.1 secs

     total energy              =   -2205.54888140 Ry
     estimated scf accuracy    <       0.00001592 Ry

     iteration #  5     ecut=    80.00 Ry     beta= 0.70
     Davidson diagonalization with overlap
     ethr =  5.19E-09,  avg # of iterations =  5.0

     negative rho (up, down):  4.531E-04 0.000E+00

     total cpu time spent up to now is      165.0 secs

     total energy              =   -2205.54888926 Ry
     estimated scf accuracy    <       0.00000813 Ry

     iteration #  6     ecut=    80.00 Ry     beta= 0.70
     Davidson diagonalization with overlap
     ethr =  2.65E-09,  avg # of iterations =  2.0

     negative rho (up, down):  4.080E-04 0.000E+00

     total cpu time spent up to now is      178.9 secs

     total energy              =   -2205.54888989 Ry
     estimated scf accuracy    <       0.00000218 Ry

     iteration #  7     ecut=    80.00 Ry     beta= 0.70
     Davidson diagonalization with overlap
     ethr =  7.09E-10,  avg # of iterations =  6.0

     negative rho (up, down):  1.373E-04 0.000E+00

     total cpu time spent up to now is      181.0 secs

     End of self-consistent calculation

          k = 0.0000 0.0000 0.0000 (105382 PWs)   bands (ev):

   -62.8760 -62.8560 -62.8476 -62.8369 -62.7834 -62.7816 -62.7740 -62.7708
   -62.7047 -62.5986 -62.5807 -62.5217 -37.2068 -37.1514 -37.1280 -37.1067
   -37.0902 -37.0868 -37.0783 -37.0489 -37.0448 -37.0285 -37.0188 -37.0024
   -36.9750 -36.9656 -36.9627 -36.9606 -36.9593 -36.9517 -36.9478 -36.9429
   -36.8990 -36.8790 -36.8661 -36.8569 -36.8227 -36.8146 -36.8076 -36.7957
   -36.7719 -36.7601 -36.7452 -36.7346 -36.6947 -36.6673 -36.5539 -36.5445
   -16.4629 -15.7008 -15.1253 -14.9939 -14.9023 -14.8178 -14.5839 -14.4365
   -14.4074 -14.3832 -14.3461 -14.3170 -14.2856 -14.2400 -14.1028 -14.0715
   -14.0602 -14.0510 -14.0040 -13.8399 -13.7692 -13.7458 -13.7269  -9.2182
    -7.6118  -7.4104  -7.3340  -7.2666  -7.2048  -7.1793  -7.1029  -7.0892
    -6.8193  -6.7164  -6.6781  -6.6130  -6.5822  -6.5375  -6.4205  -6.3569
    -6.2918  -6.2476  -6.1789  -5.9861  -5.8973  -5.8598  -5.7561  -5.7514
    -5.7195  -5.6872  -5.6187  -5.5969  -5.5681  -5.5516  -5.4643  -5.3968
    -5.3888  -5.2968  -5.2207  -5.0866  -4.9724  -4.9655  -4.9291  -4.8933
    -4.8651  -4.7808  -4.6854  -4.5146  -4.4426  -4.3248  -4.2515  -4.1855
    -4.1435  -4.0570  -3.9812  -3.9402  -3.8222  -3.7278  -3.6579  -3.6237
    -3.5796  -3.5039  -3.4688  -3.4420  -3.4315  -3.4178  -3.3811  -3.3729
    -3.3210  -3.1984  -3.0950  -2.8565  -2.8198  -2.7823  -2.7237  -2.6966
    -2.6703  -2.6423  -2.6044  -2.5384  -2.4678  -2.1899  -1.9839  -1.9349
    -1.8341  -0.6910  -0.6211  -0.5452  -0.1445  -0.0896  -0.0399  -0.0094
     0.0963   0.1846   0.2237   0.2291   0.2861   0.2967   0.4801   0.5380
     0.5918   0.6117   0.6196   0.6633   0.6881   0.7186   0.7563   0.7814
     0.7951   0.8520   0.8931   0.9499   1.0080   1.0458   1.1130   1.2367
     1.4406

     the Fermi energy is    -0.7298 ev

!    total energy              =   -2205.54889046 Ry
     estimated scf accuracy    <       0.00000077 Ry
     smearing contrib. (-TS)   =      -0.00907594 Ry
     internal energy E=F+TS    =   -2205.53981452 Ry

     The total energy is F=E-TS. E is the sum of the following terms:
     one-electron contribution =  -18058.27958946 Ry
     hartree contribution      =    9016.36983547 Ry
     xc contribution           =    -385.39261873 Ry
     ewald contribution        =    7221.76255821 Ry

     convergence has been achieved in   7 iterations

     negative rho (up, down):  1.373E-04 0.000E+00

     Forces acting on atoms (cartesian axes, Ry/au):

     atom    1 type  1   force =     0.01680283   -0.00792562   -0.00466061
     atom    2 type  2   force =    -0.00683179    0.01089707   -0.00079658
     atom    3 type  2   force =    -0.01039000    0.00762049   -0.00942871
     atom    4 type  1   force =     0.00812575   -0.00192334    0.00164213
     atom    5 type  2   force =     0.00206435   -0.00132261   -0.00539602
     atom    6 type  2   force =     0.00394629    0.00695029    0.00345115
     atom    7 type  1   force =     0.00106846   -0.00111860   -0.00183950
     atom    8 type  2   force =     0.00122817   -0.00421716    0.01020462
     atom    9 type  2   force =     0.01176856    0.00286571    0.00780544
     atom   10 type  1   force =    -0.00663705    0.00779523   -0.00853166
     atom   11 type  2   force =     0.00129153    0.00166118   -0.00424669
     atom   12 type  2   force =    -0.00258457   -0.00078794   -0.00251177
     atom   13 type  1   force =    -0.01623870    0.01235898   -0.01161345
     atom   14 type  2   force =     0.02633949   -0.01948796    0.02316955
     atom   15 type  2   force =    -0.00944809    0.00223680   -0.00864182
     atom   16 type  1   force =    -0.00084122   -0.00124267   -0.00056708
     atom   17 type  2   force =     0.00255126    0.00534553    0.00400414
     atom   18 type  2   force =    -0.00503299   -0.00457818    0.01001331
     atom   19 type  1   force =     0.00546942   -0.00412360    0.00077456
     atom   20 type  2   force =     0.00321905   -0.00550574   -0.00174087
     atom   21 type  1   force =    -0.00429349   -0.00343099   -0.01010710
     atom   22 type  2   force =    -0.00019386   -0.00161079   -0.00153689
     atom   23 type  2   force =    -0.00098873   -0.00036060    0.00102107
     atom   24 type  1   force =    -0.00567403   -0.00143042   -0.00964280
     atom   25 type  2   force =     0.00531792    0.01426558    0.00132777
     atom   26 type  2   force =    -0.00906400   -0.00202710   -0.00759150
     atom   27 type  1   force =    -0.00321468   -0.00202472    0.00792905
     atom   28 type  2   force =     0.00045732   -0.00178963   -0.00408707
     atom   29 type  2   force =     0.00262499    0.00159562   -0.00460880
     atom   30 type  1   force =    -0.00237805    0.00279821    0.00258020
     atom   31 type  2   force =     0.00062440    0.00003376    0.00948753
     atom   32 type  2   force =    -0.00854673    0.00349897    0.00702555
     atom   33 type  1   force =     0.00754692   -0.00092250    0.00002407
     atom   34 type  2   force =     0.00078328   -0.03099745   -0.01524838
     atom   35 type  2   force =    -0.00586156    0.00764586    0.00765425
     atom   36 type  3   force =    -0.00301041    0.00925835    0.01468291
     The non-local contrib.  to forces
     atom    1 type  1   force =     0.00344750    0.03211757   -0.01933307
     atom    2 type  2   force =    -0.01075349    0.00032977   -0.26489764
     atom    3 type  2   force =    -0.01464336   -0.00309673    0.26578403
     atom    4 type  1   force =     0.00019680    0.01361555    0.00405922
     atom    5 type  2   force =     0.00716356   -0.03678356   -0.25196903
     atom    6 type  2   force =     0.00074550    0.00435319    0.26397302
     atom    7 type  1   force =    -0.02766245   -0.01426683   -0.01730914
     atom    8 type  2   force =     0.00448718   -0.00523963   -0.25859615
     atom    9 type  2   force =     0.00838989   -0.01375941    0.27480740
     atom   10 type  1   force =     0.00447311   -0.00282674   -0.00123700
     atom   11 type  2   force =     0.00924099    0.01475460   -0.23449568
     atom   12 type  2   force =    -0.01346029   -0.01427663    0.25847300
     atom   13 type  1   force =    -0.00385679    0.02224311   -0.01688285
     atom   14 type  2   force =     0.05787483   -0.20227527    0.10605034
     atom   15 type  2   force =    -0.01072810   -0.00679259    0.26877919
     atom   16 type  1   force =     0.00095122    0.05541644   -0.01752129
     atom   17 type  2   force =    -0.00074598   -0.02721082   -0.24767349
     atom   18 type  2   force =    -0.00775508   -0.00663047    0.27153503
     atom   19 type  1   force =     0.02456761   -0.01317466   -0.01283857
     atom   20 type  2   force =     0.00033136   -0.02153489    0.26298907
     atom   21 type  1   force =     0.00015153    0.00614097    0.00215334
     atom   22 type  2   force =    -0.00186480    0.00571878   -0.24940897
     atom   23 type  2   force =     0.00875494   -0.01409334    0.26416849
     atom   24 type  1   force =     0.00280583    0.01955010   -0.01170193
     atom   25 type  2   force =     0.00524215    0.00435675   -0.25566290
     atom   26 type  2   force =     0.00101476   -0.00923184    0.26391441
     atom   27 type  1   force =    -0.00268112    0.01628509    0.00796082
     atom   28 type  2   force =    -0.00393539   -0.02741509   -0.27262430
     atom   29 type  2   force =     0.00654842   -0.00052745    0.26304957
     atom   30 type  1   force =     0.00011949    0.01534525    0.00996667
     atom   31 type  2   force =    -0.00797695   -0.00095716   -0.25803508
     atom   32 type  2   force =    -0.00316028   -0.01451217    0.27134989
     atom   33 type  1   force =    -0.00306731    0.00088395    0.00458161
     atom   34 type  2   force =    -0.00295147   -0.02615062   -0.27585224
     atom   35 type  2   force =    -0.00090643   -0.00771687    0.26905883
     atom   36 type  3   force =    -0.01235320    0.03819230   -0.04184349
     The ionic contribution  to forces
     atom    1 type  1   force =     0.29494618    0.87313885    5.45471333
     atom    2 type  2   force =    -0.25933171    0.29122488   39.36964045
     atom    3 type  2   force =    -0.08590395    0.04421994  -36.28424591
     atom    4 type  1   force =    -0.02634325    0.82380488    0.75683936
     atom    5 type  2   force =    -0.94615863    1.65766032   38.67600382
     atom    6 type  2   force =     0.30119187   -0.49756439  -37.95713428
     atom    7 type  1   force =    -2.43449671   -3.06203735    2.45120238
     atom    8 type  2   force =    -0.98672981    0.02408938   37.45957907
     atom    9 type  2   force =     0.31794273   -0.09668411  -37.92198317
     atom   10 type  1   force =    -0.59563561   -0.52628930    5.22167351
     atom   11 type  2   force =    -0.34946302   -1.92130445   38.99323708
     atom   12 type  2   force =     0.47816326    0.58234808  -37.95388467
     atom   13 type  1   force =     0.36237439    1.11294523    2.30890734
     atom   14 type  2   force =    -0.39935490    0.86861567   36.88283224
     atom   15 type  2   force =     0.17576468    0.08938923  -36.89261112
     atom   16 type  1   force =     0.06514516    4.01029791    0.46791489
     atom   17 type  2   force =     0.79339818    1.61572912   37.99159755
     atom   18 type  2   force =    -0.12937408   -0.51230244  -38.54392521
     atom   19 type  1   force =     2.48400624   -2.72054873    0.62036767
     atom   20 type  2   force =     0.21131483   -0.27263745  -38.50282944
     atom   21 type  1   force =    -0.06034847   -0.13006787    0.19969827
     atom   22 type  2   force =     0.28501109   -1.89080537   38.39115378
     atom   23 type  2   force =    -0.17431644    0.55246695  -38.36932100
     atom   24 type  1   force =    -0.37964457    1.02383866    5.60813336
     atom   25 type  2   force =     0.43419857    0.19519888   39.28684758
     atom   26 type  2   force =    -0.33121197    0.02748258  -37.40840051
     atom   27 type  1   force =     0.04912459    0.74829127   -1.95499001
     atom   28 type  2   force =     0.05841366    1.01500355   38.26800111
     atom   29 type  2   force =    -0.25069179   -0.34303546  -37.33864598
     atom   30 type  1   force =    -0.25939990   -1.11283196   -0.05389045
     atom   31 type  2   force =     1.20066695   -0.03498629   37.36944634
     atom   32 type  2   force =    -0.44727238   -0.05435355  -38.53402744
     atom   33 type  1   force =     0.41791038   -0.82025660    2.06346050
     atom   34 type  2   force =     0.20740599   -1.29613186   39.25958865
     atom   35 type  2   force =    -0.24193937    0.46143442  -37.74695545
     atom   36 type  3   force =     0.22063783   -0.72534263    8.36200637
     The local contribution  to forces
     atom    1 type  1   force =    -0.28179812   -0.91396428   -5.43943878
     atom    2 type  2   force =     0.26242293   -0.28050037  -39.12575316
     atom    3 type  2   force =     0.08937762   -0.03356068   36.02987877
     atom    4 type  1   force =     0.03450776   -0.83979806   -0.75906397
     atom    5 type  2   force =     0.94177030   -1.62479738  -38.44917622
     atom    6 type  2   force =    -0.29793317    0.50055576   37.71721142
     atom    7 type  1   force =     2.46312546    3.07582656   -2.43543222
     atom    8 type  2   force =     0.98376578   -0.02355718  -37.21084878
     atom    9 type  2   force =    -0.31415243    0.11257609   37.67559686
     atom   10 type  1   force =     0.58443508    0.53742582   -5.22859310
     atom   11 type  2   force =     0.34159956    1.91003975  -38.78158249
     atom   12 type  2   force =    -0.46854916   -0.56967202   37.71341493
     atom   13 type  1   force =    -0.37450664   -1.12354028   -2.30308744
     atom   14 type  2   force =     0.37194848   -0.69874655  -36.96413184
     atom   15 type  2   force =    -0.17515625   -0.08096637   36.63616486
     atom   16 type  1   force =    -0.06712515   -4.06740181   -0.45076121
     atom   17 type  2   force =    -0.79029908   -1.58519956  -37.75959026
     atom   18 type  2   force =     0.13165127    0.51414765   38.30319114
     atom   19 type  1   force =    -2.50334784    2.73023891   -0.60645576
     atom   20 type  2   force =    -0.20871642    0.28806322   38.25885558
     atom   21 type  1   force =     0.05570626    0.12105349   -0.21154666
     atom   22 type  2   force =    -0.28306758    1.88461399  -38.16285649
     atom   23 type  2   force =     0.16529220   -0.53966970   38.12698244
     atom   24 type  1   force =     0.37117470   -1.04525409   -5.60575084
     atom   25 type  2   force =    -0.43379678   -0.18485547  -39.04989504
     atom   26 type  2   force =     0.32158797   -0.02076753   37.15780941
     atom   27 type  1   force =    -0.04970618   -0.76683095    1.95510218
     atom   28 type  2   force =    -0.05427556   -0.99148522  -38.02005607
     atom   29 type  2   force =     0.24731804    0.34533643   37.09143958
     atom   30 type  1   force =     0.25718787    1.10064896    0.04672614
     atom   31 type  2   force =    -1.19247702    0.03594285  -37.12226487
     atom   32 type  2   force =     0.44198015    0.07169265   38.29044595
     atom   33 type  1   force =    -0.40704581    0.81871617   -2.06767536
     atom   34 type  2   force =    -0.20405304    1.29071901  -39.01980800
     atom   35 type  2   force =     0.23713475   -0.44675067   37.50647288
     atom   36 type  3   force =    -0.21129151    0.69640459   -8.30540541
     The core correction contribution to forces
     atom    1 type  1   force =     0.00000000    0.00000000    0.00000000
     atom    2 type  2   force =     0.00064888   -0.00019363    0.02047430
     atom    3 type  2   force =     0.00071026    0.00003478   -0.02085004
     atom    4 type  1   force =     0.00000000    0.00000000    0.00000000
     atom    5 type  2   force =    -0.00064239    0.00219687    0.02016285
     atom    6 type  2   force =     0.00005945   -0.00071813   -0.02084394
     atom    7 type  1   force =     0.00000000    0.00000000    0.00000000
     atom    8 type  2   force =    -0.00015752    0.00055844    0.02047525
     atom    9 type  2   force =    -0.00024573    0.00075285   -0.02090818
     atom   10 type  1   force =     0.00000000    0.00000000    0.00000000
     atom   11 type  2   force =    -0.00018244   -0.00144611    0.01903852
     atom   12 type  2   force =     0.00119832    0.00114760   -0.02069244
     atom   13 type  1   force =     0.00000000    0.00000000    0.00000000
     atom   14 type  2   force =    -0.00415693    0.01297243   -0.00147242
     atom   15 type  2   force =     0.00063864    0.00051842   -0.02090829
     atom   16 type  1   force =     0.00000000    0.00000000    0.00000000
     atom   17 type  2   force =     0.00011795    0.00163928    0.02004134
     atom   18 type  2   force =     0.00033086   -0.00011355   -0.02098816
     atom   19 type  1   force =     0.00000000    0.00000000    0.00000000
     atom   20 type  2   force =     0.00010646    0.00078239   -0.02108712
     atom   21 type  1   force =     0.00000000    0.00000000    0.00000000
     atom   22 type  2   force =    -0.00020564   -0.00093330    0.01985413
     atom   23 type  2   force =    -0.00068047    0.00106698   -0.02083131
     atom   24 type  1   force =     0.00000000    0.00000000    0.00000000
     atom   25 type  2   force =    -0.00014645   -0.00046122    0.02031340
     atom   26 type  2   force =    -0.00036127    0.00048020   -0.02093137
     atom   27 type  1   force =     0.00000000    0.00000000    0.00000000
     atom   28 type  2   force =     0.00026330    0.00190958    0.02088546
     atom   29 type  2   force =    -0.00054814   -0.00035527   -0.02061022
     atom   30 type  1   force =     0.00000000    0.00000000    0.00000000
     atom   31 type  2   force =     0.00047176    0.00019686    0.02058240
     atom   32 type  2   force =    -0.00006437    0.00080111   -0.02087533
     atom   33 type  1   force =     0.00000000    0.00000000    0.00000000
     atom   34 type  2   force =     0.00042254    0.00069780    0.02113476
     atom   35 type  2   force =    -0.00011774    0.00080682   -0.02105535
     atom   36 type  3   force =     0.00000000    0.00000000    0.00000000
     The Hubbard contrib.    to forces
     atom    1 type  1   force =     0.00000000    0.00000000    0.00000000
     atom    2 type  2   force =     0.00000000    0.00000000    0.00000000
     atom    3 type  2   force =     0.00000000    0.00000000    0.00000000
     atom    4 type  1   force =     0.00000000    0.00000000    0.00000000
     atom    5 type  2   force =     0.00000000    0.00000000    0.00000000
     atom    6 type  2   force =     0.00000000    0.00000000    0.00000000
     atom    7 type  1   force =     0.00000000    0.00000000    0.00000000
     atom    8 type  2   force =     0.00000000    0.00000000    0.00000000
     atom    9 type  2   force =     0.00000000    0.00000000    0.00000000
     atom   10 type  1   force =     0.00000000    0.00000000    0.00000000
     atom   11 type  2   force =     0.00000000    0.00000000    0.00000000
     atom   12 type  2   force =     0.00000000    0.00000000    0.00000000
     atom   13 type  1   force =     0.00000000    0.00000000    0.00000000
     atom   14 type  2   force =     0.00000000    0.00000000    0.00000000
     atom   15 type  2   force =     0.00000000    0.00000000    0.00000000
     atom   16 type  1   force =     0.00000000    0.00000000    0.00000000
     atom   17 type  2   force =     0.00000000    0.00000000    0.00000000
     atom   18 type  2   force =     0.00000000    0.00000000    0.00000000
     atom   19 type  1   force =     0.00000000    0.00000000    0.00000000
     atom   20 type  2   force =     0.00000000    0.00000000    0.00000000
     atom   21 type  1   force =     0.00000000    0.00000000    0.00000000
     atom   22 type  2   force =     0.00000000    0.00000000    0.00000000
     atom   23 type  2   force =     0.00000000    0.00000000    0.00000000
     atom   24 type  1   force =     0.00000000    0.00000000    0.00000000
     atom   25 type  2   force =     0.00000000    0.00000000    0.00000000
     atom   26 type  2   force =     0.00000000    0.00000000    0.00000000
     atom   27 type  1   force =     0.00000000    0.00000000    0.00000000
     atom   28 type  2   force =     0.00000000    0.00000000    0.00000000
     atom   29 type  2   force =     0.00000000    0.00000000    0.00000000
     atom   30 type  1   force =     0.00000000    0.00000000    0.00000000
     atom   31 type  2   force =     0.00000000    0.00000000    0.00000000
     atom   32 type  2   force =     0.00000000    0.00000000    0.00000000
     atom   33 type  1   force =     0.00000000    0.00000000    0.00000000
     atom   34 type  2   force =     0.00000000    0.00000000    0.00000000
     atom   35 type  2   force =     0.00000000    0.00000000    0.00000000
     atom   36 type  3   force =     0.00000000    0.00000000    0.00000000
     The SCF correction term to forces
     atom    1 type  1   force =     0.00020834    0.00078051   -0.00059543
     atom    2 type  2   force =     0.00018266    0.00003469   -0.00025386
     atom    3 type  2   force =     0.00007050    0.00002145    0.00001109
     atom    4 type  1   force =    -0.00023450    0.00045256   -0.00018581
     atom    5 type  2   force =    -0.00006743    0.00039941   -0.00041078
     atom    6 type  2   force =    -0.00011630    0.00032213    0.00025159
     atom    7 type  1   force =     0.00010323   -0.00064270   -0.00029385
     atom    8 type  2   force =    -0.00013639   -0.00006990   -0.00039810
     atom    9 type  2   force =    -0.00016484   -0.00002143    0.00029918
     atom   10 type  1   force =     0.00009144   -0.00051627   -0.00036841
     atom   11 type  2   force =     0.00009751   -0.00038435   -0.00043745
     atom   12 type  2   force =     0.00006437   -0.00033670    0.00018407
     atom   13 type  1   force =    -0.00024859    0.00070919   -0.00054384
     atom   14 type  2   force =     0.00002908   -0.00005597   -0.00010211
     atom   15 type  2   force =     0.00003401    0.00008638   -0.00005979
     atom   16 type  1   force =     0.00018862    0.00044306   -0.00019282
     atom   17 type  2   force =     0.00008126    0.00038578   -0.00036433
     atom   18 type  2   force =     0.00011512    0.00031890    0.00020716
     atom   19 type  1   force =     0.00024449   -0.00064086   -0.00029212
     atom   20 type  2   force =     0.00018389   -0.00018074    0.00033771
     atom   21 type  1   force =     0.00019826   -0.00055931   -0.00040539
     atom   22 type  2   force =    -0.00006586   -0.00020663   -0.00027268
     atom   23 type  2   force =    -0.00003789   -0.00013321    0.00002911
     atom   24 type  1   force =    -0.00000892    0.00043318   -0.00031672
     atom   25 type  2   force =    -0.00017850    0.00002490   -0.00026861
     atom   26 type  2   force =    -0.00009242    0.00000777    0.00002321
     atom   27 type  1   force =     0.00004910    0.00022815   -0.00013727
     atom   28 type  2   force =    -0.00000763    0.00019582   -0.00028661
     atom   29 type  2   force =    -0.00000047    0.00017563    0.00016491
     atom   30 type  1   force =    -0.00028445   -0.00036577   -0.00021550
     atom   31 type  2   force =    -0.00005926   -0.00016423   -0.00023461
     atom   32 type  2   force =    -0.00002879   -0.00013082    0.00013914
     atom   33 type  1   force =    -0.00024927   -0.00026775   -0.00033602
     atom   34 type  2   force =    -0.00003968   -0.00013351   -0.00030489
     atom   35 type  2   force =    -0.00003171   -0.00012957    0.00014001
     atom   36 type  3   force =    -0.00000246    0.00000235   -0.00006789

     Total force =     0.082915     Total SCF correction =     0.002842
     Energy error            =      2.0E-02 Ry
     Gradient error          =      3.1E-02 Ry/Bohr

     number of scf cycles    =   2
     number of bfgs steps    =   1

     energy             old  =   -2205.5284975315 Ry
     energy             new  =   -2205.5488904580 Ry

     CASE: energy            _new < energy            _old

     new trust radius        =       0.0478392011 bohr
     new conv_thr            =       0.0000000310 Ry


ATOMIC_POSITIONS (angstrom)
Mo            6.6030429791        1.7672068600        2.8278753991
S             8.1649532839        0.8279403722        4.4328780833
S             8.1780430538        0.8217392538        1.2697798836
Mo            8.1067922372        4.4898841767        2.7197458228
S             6.5012630995        3.7218502961        4.3393964608
S             6.5578856322        3.5231487662        1.1242691042
Mo            6.4897080910        7.2177032673        2.6650175133
S             8.0835872540        6.3377681841        4.2594596855
S             8.0970247623        6.3088709017        1.0953281590
Mo            8.1480400881        9.9137167506        2.8213005373
S             6.4995463810        8.9417308754        4.3795527320
S             6.6146241731        9.0488415806        1.1417840321
Mo            3.3971699640        1.7617780476        2.7618830393
S             4.9930094983        0.8534732140        4.3146855658
S             5.0438996857        0.8485157954        1.2161689103
Mo            4.9787202715        4.5106170775        2.6328705066
S             3.4321192352        3.6787988730        4.2838875777
S             3.4314111818        3.5404847194        1.0735404457
Mo            3.4633156552        7.2119176109        2.6285434616
S             4.9873307805        6.3205315974        1.0370060278
Mo            5.0060029952        9.8921540059        2.7211183128
S             3.4681661463        8.9404289307        4.3245763257
S             3.4074866579        9.0667072008        1.1020478567
Mo            0.2876077339        1.7454590332        2.8341509928
S             1.8595775439        0.8136322125        4.4020272167
S             1.8503210663        0.8528287713        1.2018799829
Mo            1.8552388708        4.4900417329        2.6711488293
S             0.2729922411        3.6534725831        4.3311979222
S             0.2346127371        3.5293501349        1.1670217036
Mo            0.2668938662        7.2263809985        2.6989319109
S             1.9032865566        6.3120818064        4.2385421170
S             1.8502825234        6.3152670594        1.0534769209
Mo            1.8589126742        9.9374263520        2.7663453512
S             0.2986079116        9.0441028449        4.3982508134
S             0.2681746647        9.0520961083        1.1645719434
H             5.2664510710       -0.0370015845        5.3495632151



     Writing config-only to output data dir ./MoS2-V-O.save/
     NEW-OLD atomic charge density approx. for the potential

     negative rho (up, down):  1.421E-04 0.000E+00

     total cpu time spent up to now is      184.3 secs

     Self-consistent Calculation

     iteration #  1     ecut=    80.00 Ry     beta= 0.70
     Davidson diagonalization with overlap
     ethr =  1.00E-06,  avg # of iterations =  7.0

     negative rho (up, down):  1.199E-04 0.000E+00

     total cpu time spent up to now is      199.7 secs

     total energy              =   -2205.55569859 Ry
     estimated scf accuracy    <       0.00078410 Ry

     iteration #  2     ecut=    80.00 Ry     beta= 0.70
     Davidson diagonalization with overlap
     ethr =  2.55E-07,  avg # of iterations =  2.0

     negative rho (up, down):  1.121E-04 0.000E+00

     total cpu time spent up to now is      212.7 secs

     total energy              =   -2205.55573768 Ry
     estimated scf accuracy    <       0.00017966 Ry

     iteration #  3     ecut=    80.00 Ry     beta= 0.70
     Davidson diagonalization with overlap
     ethr =  5.85E-08,  avg # of iterations =  6.0

     negative rho (up, down):  1.031E-04 0.000E+00

     total cpu time spent up to now is      230.7 secs

     total energy              =   -2205.55575534 Ry
     estimated scf accuracy    <       0.00006257 Ry

     iteration #  4     ecut=    80.00 Ry     beta= 0.70
     Davidson diagonalization with overlap
     ethr =  2.04E-08,  avg # of iterations =  5.0

     negative rho (up, down):  1.016E-04 0.000E+00

     total cpu time spent up to now is      244.1 secs

     total energy              =   -2205.55576441 Ry
     estimated scf accuracy    <       0.00000451 Ry

     iteration #  5     ecut=    80.00 Ry     beta= 0.70
     Davidson diagonalization with overlap
     ethr =  1.47E-09,  avg # of iterations = 16.0

     negative rho (up, down):  1.025E-04 0.000E+00

     total cpu time spent up to now is      260.6 secs

     total energy              =   -2205.55576626 Ry
     estimated scf accuracy    <       0.00000124 Ry

     iteration #  6     ecut=    80.00 Ry     beta= 0.70
     Davidson diagonalization with overlap
     ethr =  4.04E-10,  avg # of iterations =  2.0

     negative rho (up, down):  1.053E-04 0.000E+00

     total cpu time spent up to now is      275.5 secs

     total energy              =   -2205.55576627 Ry
     estimated scf accuracy    <       0.00000031 Ry

     iteration #  7     ecut=    80.00 Ry     beta= 0.70
     Davidson diagonalization with overlap
     ethr =  1.02E-10,  avg # of iterations =  5.0

     negative rho (up, down):  1.078E-04 0.000E+00

     total cpu time spent up to now is      292.0 secs

     total energy              =   -2205.55576631 Ry
     estimated scf accuracy    <       0.00000015 Ry

     iteration #  8     ecut=    80.00 Ry     beta= 0.70
     Davidson diagonalization with overlap
     ethr =  4.76E-11,  avg # of iterations =  2.0

     negative rho (up, down):  1.138E-04 0.000E+00

     total cpu time spent up to now is      301.7 secs

     total energy              =   -2205.55576627 Ry
     estimated scf accuracy    <       0.00000006 Ry

     iteration #  9     ecut=    80.00 Ry     beta= 0.70
     Davidson diagonalization with overlap
     ethr =  2.09E-11,  avg # of iterations =  2.0

     negative rho (up, down):  1.375E-04 0.000E+00

     total cpu time spent up to now is      303.7 secs

     End of self-consistent calculation

          k = 0.0000 0.0000 0.0000 (105382 PWs)   bands (ev):

   -62.8762 -62.8596 -62.8490 -62.8360 -62.7841 -62.7828 -62.7752 -62.7732
   -62.7058 -62.6074 -62.5887 -62.5282 -37.2008 -37.1507 -37.1307 -37.1137
   -37.0916 -37.0863 -37.0845 -37.0510 -37.0455 -37.0279 -37.0198 -37.0027
   -36.9746 -36.9672 -36.9652 -36.9596 -36.9590 -36.9530 -36.9510 -36.9454
   -36.9008 -36.8814 -36.8713 -36.8564 -36.8247 -36.8194 -36.8100 -36.8004
   -36.7762 -36.7661 -36.7520 -36.7417 -36.7016 -36.6758 -36.5609 -36.5511
   -16.4139 -15.6949 -15.1343 -14.9936 -14.9047 -14.8151 -14.5809 -14.4392
   -14.4079 -14.3771 -14.3564 -14.3344 -14.2859 -14.2442 -14.1012 -14.0754
   -14.0720 -14.0592 -14.0108 -13.8425 -13.7773 -13.7530 -13.7253  -9.1517
    -7.6071  -7.3947  -7.3254  -7.2586  -7.2117  -7.1878  -7.1100  -7.0965
    -6.8239  -6.7211  -6.6818  -6.6116  -6.5788  -6.5417  -6.4247  -6.3622
    -6.2963  -6.2503  -6.1799  -5.9773  -5.8978  -5.8631  -5.7648  -5.7554
    -5.7296  -5.6940  -5.6234  -5.6012  -5.5725  -5.5562  -5.4577  -5.3965
    -5.3887  -5.2908  -5.2126  -5.0854  -4.9815  -4.9641  -4.9307  -4.8997
    -4.8712  -4.7858  -4.6874  -4.5215  -4.4409  -4.3277  -4.2578  -4.1925
    -4.1492  -4.0684  -3.9878  -3.9485  -3.8196  -3.7335  -3.6557  -3.6258
    -3.5910  -3.5095  -3.4613  -3.4515  -3.4411  -3.4238  -3.3868  -3.3743
    -3.3194  -3.2063  -3.0991  -2.8635  -2.8224  -2.7762  -2.7339  -2.6998
    -2.6680  -2.6459  -2.6133  -2.5357  -2.4716  -2.1887  -1.9811  -1.9370
    -1.8521  -0.7011  -0.6320  -0.5515  -0.1447  -0.1016  -0.0429   0.0007
     0.1089   0.1795   0.2042   0.2185   0.3031   0.3094   0.4811   0.5323
     0.5946   0.6128   0.6166   0.6630   0.6909   0.7121   0.7547   0.7703
     0.7911   0.8768   0.8916   0.9542   1.0009   1.0426   1.1110   1.2160
     1.4355

     the Fermi energy is    -0.7398 ev

!    total energy              =   -2205.55576618 Ry
     estimated scf accuracy    <       0.00000002 Ry
     smearing contrib. (-TS)   =      -0.00904480 Ry
     internal energy E=F+TS    =   -2205.54672139 Ry

     The total energy is F=E-TS. E is the sum of the following terms:
     one-electron contribution =  -18058.65992764 Ry
     hartree contribution      =    9016.58550529 Ry
     xc contribution           =    -385.39033746 Ry
     ewald contribution        =    7221.91803843 Ry

     convergence has been achieved in   9 iterations

     negative rho (up, down):  1.375E-04 0.000E+00

     Forces acting on atoms (cartesian axes, Ry/au):

     atom    1 type  1   force =     0.00381705   -0.00040059   -0.00695732
     atom    2 type  2   force =    -0.00170486    0.00594511   -0.00084000
     atom    3 type  2   force =    -0.00692902    0.00521195   -0.01252733
     atom    4 type  1   force =     0.00544596    0.00136692    0.00146890
     atom    5 type  2   force =     0.00292473   -0.00245340   -0.00486400
     atom    6 type  2   force =     0.00439089    0.00406315    0.00294936
     atom    7 type  1   force =     0.00239338   -0.00153857    0.00143536
     atom    8 type  2   force =     0.00059466   -0.00340079    0.00614736
     atom    9 type  2   force =     0.00925203    0.00203862    0.00546021
     atom   10 type  1   force =    -0.00265361    0.00608225   -0.00017648
     atom   11 type  2   force =    -0.00037768    0.00184605   -0.00663094
     atom   12 type  2   force =    -0.00231236   -0.00152621   -0.00545909
     atom   13 type  1   force =    -0.00184334    0.00478448   -0.00224563
     atom   14 type  2   force =     0.01505388   -0.02055158    0.01900447
     atom   15 type  2   force =    -0.00754170    0.00318021   -0.00498687
     atom   16 type  1   force =    -0.00054005   -0.00157136    0.00029505
     atom   17 type  2   force =     0.00190531    0.00361875    0.00399138
     atom   18 type  2   force =    -0.00543594   -0.00133771    0.00532996
     atom   19 type  1   force =     0.00239614   -0.00367738    0.00240246
     atom   20 type  2   force =     0.00290906   -0.00490092   -0.00269636
     atom   21 type  1   force =    -0.00206217   -0.00090445   -0.00103723
     atom   22 type  2   force =     0.00191962   -0.00108374   -0.00212076
     atom   23 type  2   force =    -0.00152950   -0.00256320   -0.00224162
     atom   24 type  1   force =    -0.00398324   -0.00155891   -0.00493266
     atom   25 type  2   force =     0.00237502    0.01041712   -0.00196371
     atom   26 type  2   force =    -0.00814860   -0.00231749   -0.00782024
     atom   27 type  1   force =    -0.00142593    0.00151249    0.00550067
     atom   28 type  2   force =     0.00020671   -0.00326849   -0.00198186
     atom   29 type  2   force =     0.00252229    0.00182492   -0.00465644
     atom   30 type  1   force =    -0.00094486   -0.00271498    0.00526612
     atom   31 type  2   force =     0.00053321    0.00031975    0.00576266
     atom   32 type  2   force =    -0.00613826    0.00231139    0.00658873
     atom   33 type  1   force =     0.00189054    0.00168694    0.00359048
     atom   34 type  2   force =    -0.00093621   -0.01972079   -0.01440194
     atom   35 type  2   force =    -0.00377946    0.00691637    0.00394179
     atom   36 type  3   force =    -0.00224371    0.01236408    0.00940554
     The non-local contrib.  to forces
     atom    1 type  1   force =     0.00552305    0.03043732   -0.02018856
     atom    2 type  2   force =    -0.00682665   -0.00375778   -0.26313744
     atom    3 type  2   force =    -0.01073389   -0.00550745    0.26226979
     atom    4 type  1   force =     0.00168700    0.01367197    0.00382649
     atom    5 type  2   force =     0.00798598   -0.03734954   -0.25205979
     atom    6 type  2   force =     0.00098384    0.00162254    0.26441618
     atom    7 type  1   force =    -0.02692175   -0.01482708   -0.01820247
     atom    8 type  2   force =     0.00398566   -0.00503870   -0.26122754
     atom    9 type  2   force =     0.00563541   -0.01436438    0.27357958
     atom   10 type  1   force =     0.00315173   -0.00254511   -0.00171919
     atom   11 type  2   force =     0.00894470    0.01329660   -0.23595815
     atom   12 type  2   force =    -0.01293432   -0.01435830    0.25723942
     atom   13 type  1   force =    -0.00745442    0.02425208   -0.01659200
     atom   14 type  2   force =     0.05467850   -0.20608403    0.10398755
     atom   15 type  2   force =    -0.00938481   -0.00684447    0.27174203
     atom   16 type  1   force =     0.00087386    0.05467963   -0.01846643
     atom   17 type  2   force =    -0.00166083   -0.02649064   -0.24724044
     atom   18 type  2   force =    -0.00791282   -0.00437188    0.26873518
     atom   19 type  1   force =     0.02504502   -0.01298721   -0.01395719
     atom   20 type  2   force =     0.00022056   -0.02055875    0.26263020
     atom   21 type  1   force =    -0.00057501    0.00542914    0.00172769
     atom   22 type  2   force =    -0.00048847    0.00497544   -0.24992550
     atom   23 type  2   force =     0.00861385   -0.01567322    0.26191738
     atom   24 type  1   force =     0.00178189    0.02024934   -0.01102237
     atom   25 type  2   force =     0.00170475    0.00067920   -0.25684402
     atom   26 type  2   force =     0.00116130   -0.00922699    0.26304650
     atom   27 type  1   force =    -0.00319727    0.01512424    0.00713920
     atom   28 type  2   force =    -0.00383439   -0.02760128   -0.27137772
     atom   29 type  2   force =     0.00617124   -0.00185771    0.26318281
     atom   30 type  1   force =    -0.00002247    0.01620471    0.00965481
     atom   31 type  2   force =    -0.00766201   -0.00119441   -0.26086331
     atom   32 type  2   force =    -0.00056923   -0.01521412    0.27171126
     atom   33 type  1   force =    -0.00123129    0.00005969    0.00343584
     atom   34 type  2   force =    -0.00439405   -0.01669511   -0.27650479
     atom   35 type  2   force =     0.00038283   -0.00817803    0.26748880
     atom   36 type  3   force =    -0.01125727    0.03733543   -0.04165414
     The ionic contribution  to forces
     atom    1 type  1   force =    -0.26131817    1.01033861    5.38083797
     atom    2 type  2   force =    -0.14009603    0.17028802   39.47045086
     atom    3 type  2   force =    -0.05286551    0.00672652  -36.45155959
     atom    4 type  1   force =    -0.20277059    0.93722152    0.83851835
     atom    5 type  2   force =    -1.00785414    1.63326307   38.60366224
[...]
     atom   27 type  1   force =    -0.00239828    0.01876653    0.00339752
     atom   28 type  2   force =     0.00052678   -0.01718782   -0.27141428
     atom   29 type  2   force =    -0.00059586   -0.00989106    0.26929843
     atom   30 type  1   force =    -0.00013750    0.02000231    0.00740297
     atom   31 type  2   force =    -0.00885784   -0.00189753   -0.26487055
     atom   32 type  2   force =     0.00456985   -0.01288358    0.26258928
     atom   33 type  1   force =    -0.00036304   -0.00147074    0.00093360
     atom   34 type  2   force =     0.00062111   -0.00495965   -0.26947180
     atom   35 type  2   force =    -0.00082238   -0.01095818    0.26784108
     atom   36 type  3   force =    -0.00295149   -0.00147477   -0.06393991
     The ionic contribution  to forces
     atom    1 type  1   force =    -0.82081391    0.09776063    2.24368321
     atom    2 type  2   force =    -0.24029503   -0.14663451   38.94033763
     atom    3 type  2   force =    -0.08645384   -0.19391187  -37.58848035
     atom    4 type  1   force =    -0.42944769    0.51757336    0.60099429
     atom    5 type  2   force =    -0.96844848    1.33832143   38.52879203
     atom    6 type  2   force =    -0.05377471   -0.32912701  -38.25608265
     atom    7 type  1   force =    -3.47815394   -2.01891536    1.68829966
     atom    8 type  2   force =    -1.26877405    0.18287405   38.36753980
     atom    9 type  2   force =     0.21839993    0.01337295  -38.17779797
     atom   10 type  1   force =    -0.58260093   -0.30986110    2.67571560
     atom   11 type  2   force =    -0.49624220   -1.45339158   38.67565273
     atom   12 type  2   force =     0.08086855    0.46532911  -38.07989114
     atom   13 type  1   force =     0.87352995   -0.04504325    2.76299454
     atom   14 type  2   force =    -0.09385190   -0.27016705   35.27338456
     atom   15 type  2   force =    -0.04158883   -0.24983777  -36.42033068
     atom   16 type  1   force =     0.23225886    3.71897297    1.67454963
     atom   17 type  2   force =     0.99684715    1.29558815   38.66867386
     atom   18 type  2   force =     0.03243416   -0.38811110  -38.27096785
     atom   19 type  1   force =     3.48927626   -1.65133233    1.98015874
     atom   20 type  2   force =     0.03316742    0.09173428  -38.24053592
     atom   21 type  1   force =    -0.17257287    0.18406401    1.70462198
     atom   22 type  2   force =     0.52070452   -1.43088524   38.58733020
     atom   23 type  2   force =    -0.10205071    0.45080402  -37.89783070
     atom   24 type  1   force =     0.01073758    0.14282057    2.71894568
     atom   25 type  2   force =     0.23839352   -0.17641183   39.00024186
     atom   26 type  2   force =     0.11285776   -0.22543601  -37.49536901
     atom   27 type  1   force =     0.26627155    0.46019620    0.65666825
     atom   28 type  2   force =    -0.03667027    0.49394721   38.31560917
     atom   29 type  2   force =    -0.01552666   -0.22093556  -37.66533788
     atom   30 type  1   force =     0.00334142   -0.15841232    1.75402990
     atom   31 type  2   force =     1.20033477    0.23947386   38.46340141
     atom   32 type  2   force =    -0.22787230    0.05897045  -38.22421250
     atom   33 type  1   force =     0.72289828   -0.35101931    3.01535674
     atom   34 type  2   force =     0.00278767   -0.42891496   38.70379109
     atom   35 type  2   force =     0.03042181    0.26763331  -37.38957058
     atom   36 type  3   force =     0.04960713    0.02891161    8.70563470
     The local contribution  to forces
     atom    1 type  1   force =     0.80740702   -0.12928215   -2.23192698
     atom    2 type  2   force =     0.24856788    0.14917493  -38.70496991
     atom    3 type  2   force =     0.08888610    0.20009204   37.34252592
     atom    4 type  1   force =     0.42725185   -0.53445979   -0.60439024
     atom    5 type  2   force =     0.96489758   -1.31117789  -38.30252257
     atom    6 type  2   force =     0.04913404    0.33342274   38.01438990
     atom    7 type  1   force =     3.50399989    2.02678167   -1.68118474
     atom    8 type  2   force =     1.26050198   -0.18105251  -38.12343007
     atom    9 type  2   force =    -0.21460562   -0.00215301   37.93392160
     atom   10 type  1   force =     0.58186796    0.31096555   -2.67643555
     atom   11 type  2   force =     0.49432745    1.44339134  -38.44539872
     atom   12 type  2   force =    -0.07618220   -0.44829211   37.83726728
     atom   13 type  1   force =    -0.85987058    0.01411899   -2.75066401
     atom   14 type  2   force =     0.08452747    0.26670199  -35.53683718
     atom   15 type  2   force =     0.04073875    0.25866803   36.15994529
     atom   16 type  1   force =    -0.23360364   -3.77674535   -1.65172445
     atom   17 type  2   force =    -0.99436597   -1.26730855  -38.44078046
     atom   18 type  2   force =    -0.02669918    0.39248558   38.02918677
     atom   19 type  1   force =    -3.51642120    1.65837217   -1.96937045
     atom   20 type  2   force =    -0.03326308   -0.07613879   37.99626426
     atom   21 type  1   force =     0.17065503   -0.18153195   -1.69026476
     atom   22 type  2   force =    -0.51983733    1.42267289  -38.35543696
     atom   23 type  2   force =     0.09625900   -0.43371330   37.65367721
     atom   24 type  1   force =    -0.01074575   -0.16364382   -2.71792150
     atom   25 type  2   force =    -0.24766038    0.17891280  -38.76437798
     atom   26 type  2   force =    -0.11499570    0.23157181   37.24913076
     atom   27 type  1   force =    -0.26355880   -0.47854487   -0.66010456
     atom   28 type  2   force =     0.03649094   -0.47781112  -38.06474445
     atom   29 type  2   force =     0.01563117    0.23117367   37.41678433
     atom   30 type  1   force =    -0.00310357    0.13763944   -1.76172008
     atom   31 type  2   force =    -1.19143042   -0.23779854  -38.21942931
     atom   32 type  2   force =     0.22487992   -0.04662966   37.98221433
     atom   33 type  1   force =    -0.72258008    0.35312932   -3.01660749
     atom   34 type  2   force =    -0.00300761    0.43380166  -38.45530460
     atom   35 type  2   force =    -0.03014653   -0.25805641   37.14324046
     atom   36 type  3   force =    -0.04832359   -0.02809686   -8.64125037
     The core correction contribution to forces
     atom    1 type  1   force =     0.00000000    0.00000000    0.00000000
     atom    2 type  2   force =     0.00062763   -0.00011436    0.02019175
     atom    3 type  2   force =     0.00019219    0.00009048   -0.02099421
     atom    4 type  1   force =     0.00000000    0.00000000    0.00000000
     atom    5 type  2   force =    -0.00038326    0.00184940    0.01986033
     atom    6 type  2   force =    -0.00027225    0.00009074   -0.02081873
     atom    7 type  1   force =     0.00000000    0.00000000    0.00000000
     atom    8 type  2   force =    -0.00048932    0.00039107    0.02081699
     atom    9 type  2   force =     0.00052916    0.00063861   -0.02077338
     atom   10 type  1   force =     0.00000000    0.00000000    0.00000000
     atom   11 type  2   force =     0.00025633   -0.00109630    0.02002385
     atom   12 type  2   force =     0.00056463    0.00099383   -0.02085845
     atom   13 type  1   force =     0.00000000    0.00000000    0.00000000
     atom   14 type  2   force =    -0.00075335   -0.00066180   -0.01148009
     atom   15 type  2   force =    -0.00009926    0.00021317   -0.02129775
     atom   16 type  1   force =     0.00000000    0.00000000    0.00000000
     atom   17 type  2   force =     0.00029769    0.00187693    0.01993283
     atom   18 type  2   force =     0.00021430    0.00004211   -0.02081757
     atom   19 type  1   force =     0.00000000    0.00000000    0.00000000
     atom   20 type  2   force =     0.00004426    0.00083801   -0.02110722
     atom   21 type  1   force =     0.00000000    0.00000000    0.00000000
     atom   22 type  2   force =    -0.00021639   -0.00099806    0.02003701
     atom   23 type  2   force =    -0.00059133    0.00093880   -0.02084606
     atom   24 type  1   force =     0.00000000    0.00000000    0.00000000
     atom   25 type  2   force =    -0.00065986   -0.00013430    0.02021252
     atom   26 type  2   force =    -0.00014368    0.00005302   -0.02098048
     atom   27 type  1   force =     0.00000000    0.00000000    0.00000000
     atom   28 type  2   force =    -0.00004534    0.00106424    0.02095583
     atom   29 type  2   force =     0.00000733    0.00033204   -0.02086674
     atom   30 type  1   force =     0.00000000    0.00000000    0.00000000
     atom   31 type  2   force =     0.00048122    0.00038302    0.02083021
     atom   32 type  2   force =    -0.00055457    0.00070147   -0.02074741
     atom   33 type  1   force =     0.00000000    0.00000000    0.00000000
     atom   34 type  2   force =    -0.00005111    0.00002725    0.02088322
     atom   35 type  2   force =     0.00005560    0.00068472   -0.02090160
     atom   36 type  3   force =     0.00000000    0.00000000    0.00000000
     The Hubbard contrib.    to forces
     atom    1 type  1   force =     0.00000000    0.00000000    0.00000000
     atom    2 type  2   force =     0.00000000    0.00000000    0.00000000
     atom    3 type  2   force =     0.00000000    0.00000000    0.00000000
     atom    4 type  1   force =     0.00000000    0.00000000    0.00000000
     atom    5 type  2   force =     0.00000000    0.00000000    0.00000000
     atom    6 type  2   force =     0.00000000    0.00000000    0.00000000
     atom    7 type  1   force =     0.00000000    0.00000000    0.00000000
     atom    8 type  2   force =     0.00000000    0.00000000    0.00000000
     atom    9 type  2   force =     0.00000000    0.00000000    0.00000000
     atom   10 type  1   force =     0.00000000    0.00000000    0.00000000
     atom   11 type  2   force =     0.00000000    0.00000000    0.00000000
     atom   12 type  2   force =     0.00000000    0.00000000    0.00000000
     atom   13 type  1   force =     0.00000000    0.00000000    0.00000000
     atom   14 type  2   force =     0.00000000    0.00000000    0.00000000
     atom   15 type  2   force =     0.00000000    0.00000000    0.00000000
     atom   16 type  1   force =     0.00000000    0.00000000    0.00000000
     atom   17 type  2   force =     0.00000000    0.00000000    0.00000000
     atom   18 type  2   force =     0.00000000    0.00000000    0.00000000
     atom   19 type  1   force =     0.00000000    0.00000000    0.00000000
     atom   20 type  2   force =     0.00000000    0.00000000    0.00000000
     atom   21 type  1   force =     0.00000000    0.00000000    0.00000000
     atom   22 type  2   force =     0.00000000    0.00000000    0.00000000
     atom   23 type  2   force =     0.00000000    0.00000000    0.00000000
     atom   24 type  1   force =     0.00000000    0.00000000    0.00000000
     atom   25 type  2   force =     0.00000000    0.00000000    0.00000000
     atom   26 type  2   force =     0.00000000    0.00000000    0.00000000
     atom   27 type  1   force =     0.00000000    0.00000000    0.00000000
     atom   28 type  2   force =     0.00000000    0.00000000    0.00000000
     atom   29 type  2   force =     0.00000000    0.00000000    0.00000000
     atom   30 type  1   force =     0.00000000    0.00000000    0.00000000
     atom   31 type  2   force =     0.00000000    0.00000000    0.00000000
     atom   32 type  2   force =     0.00000000    0.00000000    0.00000000
     atom   33 type  1   force =     0.00000000    0.00000000    0.00000000
     atom   34 type  2   force =     0.00000000    0.00000000    0.00000000
     atom   35 type  2   force =     0.00000000    0.00000000    0.00000000
     atom   36 type  3   force =     0.00000000    0.00000000    0.00000000
     The SCF correction term to forces
     atom    1 type  1   force =    -0.00003197    0.00001731    0.00000940
     atom    2 type  2   force =    -0.00000679    0.00001858    0.00000522
     atom    3 type  2   force =    -0.00001024   -0.00000016   -0.00001056
     atom    4 type  1   force =    -0.00000824    0.00000631    0.00001767
     atom    5 type  2   force =    -0.00001783    0.00000035    0.00000053
     atom    6 type  2   force =    -0.00000450   -0.00000482    0.00001556
     atom    7 type  1   force =     0.00003591   -0.00001976   -0.00001717
     atom    8 type  2   force =     0.00000397   -0.00000731   -0.00001178
     atom    9 type  2   force =    -0.00000716    0.00000898    0.00001164
     atom   10 type  1   force =    -0.00001740   -0.00002305   -0.00003036
     atom   11 type  2   force =    -0.00000095   -0.00000488   -0.00001618
     atom   12 type  2   force =     0.00000418   -0.00000184   -0.00000370
     atom   13 type  1   force =     0.00002684    0.00001514    0.00004020
     atom   14 type  2   force =     0.00000597    0.00000911   -0.00000747
     atom   15 type  2   force =     0.00001078    0.00000508    0.00000919
     atom   16 type  1   force =     0.00001530   -0.00002817    0.00004535
     atom   17 type  2   force =     0.00000769    0.00000252    0.00001655
     atom   18 type  2   force =     0.00001213    0.00000631    0.00001844
     atom   19 type  1   force =     0.00000870   -0.00003509    0.00001370
     atom   20 type  2   force =     0.00002494   -0.00001337   -0.00000062
     atom   21 type  1   force =     0.00003249    0.00003928   -0.00000679
     atom   22 type  2   force =    -0.00000519    0.00001324    0.00001859
     atom   23 type  2   force =     0.00000505    0.00002405   -0.00001971
     atom   24 type  1   force =     0.00000129    0.00001831    0.00001841
     atom   25 type  2   force =     0.00001097    0.00001550    0.00001904
     atom   26 type  2   force =     0.00000036   -0.00000810   -0.00000343
     atom   27 type  1   force =     0.00000378   -0.00001330    0.00004194
     atom   28 type  2   force =     0.00000647    0.00000577    0.00001175
     atom   29 type  2   force =    -0.00000668    0.00000570    0.00000915
     atom   30 type  1   force =    -0.00003312   -0.00002351    0.00001104
     atom   31 type  2   force =    -0.00001640   -0.00002131    0.00001342
     atom   32 type  2   force =    -0.00002277   -0.00000740    0.00000232
     atom   33 type  1   force =    -0.00000286    0.00001853   -0.00000848
     atom   34 type  2   force =     0.00000174   -0.00000802   -0.00000093
     atom   35 type  2   force =    -0.00000886   -0.00000256   -0.00000649
     atom   36 type  3   force =    -0.00000068    0.00000247   -0.00000053

     Total force =     0.005727     Total SCF correction =     0.000169
     Energy error            =      8.1E-05 Ry
     Gradient error          =      1.7E-03 Ry/Bohr

     bfgs converged in  30 scf cycles and  29 bfgs steps
     (criteria: energy <  1.0E-04 Ry, force <  1.0E-02 Ry/Bohr)

     End of BFGS Geometry Optimization

     Final energy             =   -2205.5885061498 Ry

     File ./MoS2-V-O.bfgs deleted, as requested
Begin final coordinates

ATOMIC_POSITIONS (angstrom)
Mo            6.6070101214        1.7773753593        2.7601384175
S             8.1457405713        0.8312943257        4.3719593698
S             8.1510560914        0.8257902188        1.1723846963
Mo            8.1329416167        4.4741762500        2.7113768900
S             6.5316142724        3.6756531607        4.3216652292
S             6.5728398194        3.5520631923        1.0966939056
Mo            6.5603498303        7.1606778097        2.6519611412
S             8.1040996865        6.2826630067        4.3010367792
S             8.1661863581        6.2934656044        1.0987727211
Mo            8.1365997676        9.9222159009        2.7633200276
S             6.5494583645        8.8975350876        4.3355338325
S             6.5991959709        9.0149398191        1.1149692337
Mo            3.3956599044        1.7771486738        2.7692008001
S             5.0086305459        0.7983499976        4.2357570348
S             4.9990479960        0.8167769736        1.2179425894
Mo            4.9901715878        4.5024454765        2.6547809419
S             3.4557788385        3.6745400751        4.3287245840
S             3.4196339347        3.5466039460        1.1006611624
Mo            3.4410253056        7.1405234116        2.6576384640
S             5.0019232251        6.2906871087        1.0525294268
Mo            5.0074779906        9.8231278818        2.7430055979
S             3.4626902316        8.8867217089        4.3331853779
S             3.4113493999        9.0056295239        1.1227161669
Mo            0.2745786774        1.7134304251        2.7749427033
S             1.8587595632        0.8271025406        4.3761203706
S             1.8578623590        0.8204004690        1.1790623527
Mo            1.8606622945        4.4736359631        2.7133454055
S             0.2670059778        3.5855809758        4.3172656104
S             0.2708584460        3.5281996637        1.1473947111
Mo            0.2716525962        7.1961837720        2.7300161963
S             1.8911291600        6.2783325030        4.3064256367
S             1.8318937230        6.2914173288        1.0974428519
Mo            1.8726433016        9.9176526864        2.7697439865
S             0.2725995646        9.0094732032        4.3499878519
S             0.2789062737        9.0406889753        1.1730829978
H             5.0670691997        0.8284433915        5.5990392976
End final coordinates



     Writing all to output data dir ./MoS2-V-O.save/
 
     init_run     :      3.10s CPU      3.36s WALL (       1 calls)
     electrons    :   2882.38s CPU   3185.39s WALL (      30 calls)
     update_pot   :     40.74s CPU     42.81s WALL (      29 calls)
     forces       :     38.99s CPU     44.24s WALL (      30 calls)

     Called by init_run:
     wfcinit      :      0.39s CPU      0.43s WALL (       1 calls)
     potinit      :      2.02s CPU      2.14s WALL (       1 calls)
     hinit0       :      0.16s CPU      0.18s WALL (       1 calls)

     Called by electrons:
     c_bands      :    330.64s CPU    335.44s WALL (     271 calls)
     sum_band     :     77.65s CPU     94.97s WALL (     271 calls)
     v_of_rho     :    110.47s CPU    132.37s WALL (     286 calls)
     newd         :     36.60s CPU     52.68s WALL (     286 calls)
     mix_rho      :   2339.22s CPU   2581.79s WALL (     271 calls)

     Called by c_bands:
     init_us_2    :      5.74s CPU      6.26s WALL (     543 calls)
     init_us_2:cp :      5.73s CPU      6.26s WALL (     543 calls)
     regterg      :    310.43s CPU    314.66s WALL (     271 calls)

     Called by *egterg:
     rdiaghg      :     25.07s CPU     25.40s WALL (    1489 calls)
     h_psi        :    179.37s CPU    180.99s WALL (    1534 calls)
     s_psi        :     22.40s CPU     22.48s WALL (    1534 calls)
     g_psi        :      1.14s CPU      1.15s WALL (    1262 calls)

     Called by h_psi:
     h_psi:calbec :     25.76s CPU     25.90s WALL (    1534 calls)
     vloc_psi     :    129.18s CPU    130.50s WALL (    1534 calls)
     add_vuspsi   :     21.95s CPU     22.09s WALL (    1534 calls)

     General routines
     calbec       :     36.66s CPU     36.85s WALL (    1925 calls)
     fft          :     71.56s CPU     84.25s WALL (   19200 calls)
     ffts         :   1056.90s CPU   1291.32s WALL (  558739 calls)
     fftw         :    112.03s CPU    112.99s WALL (  163331 calls)
     interpolate  :      2.13s CPU      2.52s WALL (     286 calls)
 
     Parallel routines
 
     PWSCF        :  49m30.29s CPU  54m44.04s WALL

 
   This run was terminated on:   6:18:20   4Nov2023            

=------------------------------------------------------------------------------=
   JOB DONE.
=------------------------------------------------------------------------------=
