
     Program PWSCF v.7.2 starts on  3Nov2023 at 22:15:43 

     This program is part of the open-source Quantum ESPRESSO suite
     for quantum simulation of materials; please cite
         "P. Giannozzi et al., J. Phys.:Condens. Matter 21 395502 (2009);
         "P. Giannozzi et al., J. Phys.:Condens. Matter 29 465901 (2017);
         "P. Giannozzi et al., J. Chem. Phys. 152 154105 (2020);
          URL http://www.quantum-espresso.org", 
     in publications or presentations arising from this work. More details at
     http://www.quantum-espresso.org/quote

     Parallel version (MPI & OpenMP), running on      48 processor cores
     Number of MPI processes:                48
     Threads/MPI process:                     1

     MPI processes distributed on     1 nodes
     148876 MiB available memory on the printing compute node when the environment starts
 
     Waiting for input...
     Reading input from standard input
Warning: card &CELL ignored
Warning: card CELL_DYNAMICS = 'BFGS', ignored
Warning: card CELL_DOFREE = '2DXY' ignored
Warning: card / ignored

     Current dimensions of program PWSCF are:
     Max number of different atomic species (ntypx) = 10
     Max number of k-points (npk) =  40000
     Max angular momentum in pseudopotentials (lmaxx) =  4

     IMPORTANT: XC functional enforced from input :
     Exchange-correlation= RVV10
                           (   1   4  13   4  26   0   0)
     Any further DFT definition will be discarded
     Please, verify this is what you really want


     gamma-point specific algorithms are used
     signal trapping enabled: kill the code with -SIGUSR1 to stop cleanly the simulation 
 
     R & G space division:  proc/nbgrp/npool/nimage =      48
     Subspace diagonalization in iterative solution of the eigenvalue problem:
     one sub-group per band group will be used
     scalapack distributed-memory algorithm (size of sub-group:  2*  2 procs)

 
     Parallelization info
     --------------------
     sticks:   dense  smooth     PW     G-vecs:    dense   smooth      PW
     Min         243     194     47                49060    35090    4376
     Max         246     196     50                49086    35128    4410
     Sum       11735    9389   2349              2355467  1685513  210763
 
     Using Slab Decomposition
 


     bravais-lattice index     =            0
     lattice parameter (alat)  =      17.8707  a.u.
     unit-cell volume          =   17436.2743 (a.u.)^3
     number of atoms/cell      =           36
     number of atomic types    =            3
     number of electrons       =       307.00
     number of Kohn-Sham states=          185
     kinetic-energy cutoff     =      80.0000  Ry
     charge density cutoff     =     400.0000  Ry
     scf convergence threshold =      1.0E-06
     mixing beta               =       0.7000
     number of iterations used =            8  local-TF  mixing
     energy convergence thresh.=      1.0E-04
     force convergence thresh. =      1.0E-02
     Exchange-correlation= RVV10
                           (   1   4  13   4  26   0   0)
     nstep                     =          200


     celldm(1)=  17.870686  celldm(2)=   0.000000  celldm(3)=   0.000000
     celldm(4)=   0.000000  celldm(5)=   0.000000  celldm(6)=   0.000000

     crystal axes: (cart. coord. in units of alat)
               a(1) = (   1.000000   0.000000   0.000000 )  
               a(2) = (   0.000000   1.155671   0.000000 )  
               a(3) = (   0.000000   0.000000   2.643601 )  

     reciprocal axes: (cart. coord. in units 2 pi/alat)
               b(1) = (  1.000000  0.000000  0.000000 )  
               b(2) = (  0.000000  0.865298  0.000000 )  
               b(3) = (  0.000000  0.000000  0.378272 )  


     PseudoPot. # 1 for Mo read from file:
     ../pseudo/Mo_ONCV_PBE-1.0.oncvpsp.upf
     MD5 check sum: 1b5d28e075c9ccadda658a603575cd1f
     Pseudo is Norm-conserving, Zval = 14.0
     Generated using ONCVPSP code by D. R. Hamann
     Using radial grid of 1526 points,  6 beta functions with: 
                l(1) =   0
                l(2) =   0
                l(3) =   1
                l(4) =   1
                l(5) =   2
                l(6) =   2

     PseudoPot. # 2 for S  read from file:
     ../pseudo/s_pbe_v1.4.uspp.F.UPF
     MD5 check sum: 88d86576ff6df21479756cfb9bdac1df
     Pseudo is Ultrasoft + core correction, Zval =  6.0
     Generated by new atomic code, or converted to UPF format
     Using radial grid of  907 points,  6 beta functions with: 
                l(1) =   0
                l(2) =   0
                l(3) =   1
                l(4) =   1
                l(5) =   2
                l(6) =   2
     Q(r) pseudized with  8 coefficients,  rinner =    1.300   1.300   1.300
                                                       1.300   1.300

     PseudoPot. # 3 for H  read from file:
     ../pseudo/H_ONCV_PBE-1.0.oncvpsp.upf
     MD5 check sum: 1790becc920ee074925cf490c71280fe
     Pseudo is Norm-conserving, Zval =  1.0
     Generated using ONCVPSP code by D. R. Hamann
     Using radial grid of 1166 points,  2 beta functions with: 
                l(1) =   0
                l(2) =   0

     atomic species   valence    mass     pseudopotential
        Mo            14.00    95.94000     Mo( 1.00)
        S              6.00    32.06500     S ( 1.00)
        H              1.00     1.00794     H ( 1.00)

     No symmetry found



   Cartesian axes

     site n.     atom                  positions (alat units)
         1           Mo  tau(   1) = (   0.6952221   0.1890506   0.2985846  )
         2           S   tau(   2) = (   0.8646417   0.0856217   0.4689279  )
         3           S   tau(   3) = (   0.8663890   0.0857843   0.1351291  )
         4           Mo  tau(   4) = (   0.8560186   0.4753274   0.2873942  )
         5           S   tau(   5) = (   0.6873294   0.3936244   0.4596353  )
         6           S   tau(   6) = (   0.6929804   0.3713468   0.1185692  )
         7           Mo  tau(   7) = (   0.6862796   0.7633098   0.2825370  )
         8           S   tau(   8) = (   0.8545980   0.6708292   0.4486168  )
         9           S   tau(   9) = (   0.8545123   0.6666874   0.1146125  )
        10           Mo  tau(  10) = (   0.8629403   1.0471007   0.3006803  )
        11           S   tau(  11) = (   0.6868280   0.9456650   0.4634891  )
        12           S   tau(  12) = (   0.6998113   0.9568511   0.1205389  )
        13           Mo  tau(  13) = (   0.3618216   0.1847309   0.2935964  )
        14           S   tau(  14) = (   0.5260962   0.0863870   0.4600448  )
        15           S   tau(  15) = (   0.5348379   0.0894875   0.1297123  )
        16           Mo  tau(  16) = (   0.5265817   0.4772436   0.2784130  )
        17           S   tau(  17) = (   0.3624753   0.3882513   0.4525556  )
        18           S   tau(  18) = (   0.3635411   0.3752055   0.1119148  )
        19           Mo  tau(  19) = (   0.3652268   0.7630864   0.2781795  )
        20           S   tau(  20) = (   0.5269494   0.6690381   0.1096838  )
        21           Mo  tau(  21) = (   0.5300192   1.0470394   0.2900995  )
        22           S   tau(  22) = (   0.3670346   0.9457522   0.4574073  )
        23           S   tau(  23) = (   0.3604225   0.9585725   0.1159032  )
        24           Mo  tau(  24) = (   0.0313099   0.1847895   0.3013130  )
        25           S   tau(  25) = (   0.1956761   0.0838230   0.4650863  )
        26           S   tau(  26) = (   0.1967693   0.0903508   0.1278874  )
        27           Mo  tau(  27) = (   0.1967578   0.4753919   0.2813011  )
        28           S   tau(  28) = (   0.0287851   0.3864324   0.4586755  )
        29           S   tau(  29) = (   0.0244514   0.3729871   0.1239344  )
        30           Mo  tau(  30) = (   0.0286728   0.7631204   0.2856894  )
        31           S   tau(  31) = (   0.2011512   0.6675435   0.4465001  )
        32           S   tau(  32) = (   0.1969214   0.6672839   0.1104564  )
        33           Mo  tau(  33) = (   0.1950294   1.0511147   0.2932237  )
        34           S   tau(  34) = (   0.0312912   0.9612169   0.4667423  )
        35           S   tau(  35) = (   0.0292670   0.9563028   0.1216485  )
        36           H   tau(  36) = (   0.0000000   0.2568157   0.5650415  )

     number of k points=     1  Gaussian smearing, width (Ry)=  0.0100
                       cart. coord. in units 2pi/alat
        k(    1) = (   0.0000000   0.0000000   0.0000000), wk =   2.0000000

     Dense  grid:  1177734 G-vectors     FFT dimensions: ( 120, 135, 320)

     Smooth grid:   842757 G-vectors     FFT dimensions: ( 108, 120, 270)

     Estimated max dynamical RAM per process >     146.59 MB

     Estimated total dynamical RAM >       6.87 GB

     Initial potential from superposition of free atoms

     starting charge     306.9873, renormalised to     307.0000

     negative rho (up, down):  1.411E-04 0.000E+00


---------------------------------------------------------------------------------
Carrying out rVV10 run using the following parameters:
Nqs =      20    Nr_points =    1024   r_max =   100.000
b_value =  6.30000    beta =  0.00901
     q_mesh =  0.00010000  0.00030000  0.00058939  0.00100810
               0.00161396  0.00249058  0.00375900  0.00559430
               0.00824984  0.01209221  0.01765183  0.02569619
               0.03733578  0.05417739  0.07854596  0.11380545
               0.16482331  0.23864234  0.34545298  0.50000000

Gradients computed in Reciprocal space

---------------------------------------------------------------------------------


     Starting wfcs are  213 randomized atomic wfcs

     total cpu time spent up to now is        2.8 secs

     Self-consistent Calculation

     iteration #  1     ecut=    80.00 Ry     beta= 0.70
     Davidson diagonalization with overlap
     ethr =  1.00E-02,  avg # of iterations =  2.0

     Threshold (ethr) on eigenvalues was too large:
     Diagonalizing with lowered threshold

     Davidson diagonalization with overlap
     ethr =  3.90E-04,  avg # of iterations =  4.0

     negative rho (up, down):  2.348E-08 0.000E+00

     total cpu time spent up to now is       22.8 secs

     total energy              =   -2205.58541352 Ry
     estimated scf accuracy    <       1.48855715 Ry

     iteration #  2     ecut=    80.00 Ry     beta= 0.70
     Davidson diagonalization with overlap
     ethr =  4.85E-04,  avg # of iterations =  2.0

     total cpu time spent up to now is       25.2 secs

     total energy              =   -2205.45599551 Ry
     estimated scf accuracy    <       0.59040313 Ry

     iteration #  3     ecut=    80.00 Ry     beta= 0.70
     Davidson diagonalization with overlap
     ethr =  1.92E-04,  avg # of iterations =  5.0

     total cpu time spent up to now is       27.7 secs

     total energy              =   -2205.50474586 Ry
     estimated scf accuracy    <       0.15778026 Ry

     iteration #  4     ecut=    80.00 Ry     beta= 0.70
     Davidson diagonalization with overlap
     ethr =  5.14E-05,  avg # of iterations =  9.0

     total cpu time spent up to now is       30.5 secs

     total energy              =   -2205.52004329 Ry
     estimated scf accuracy    <       0.03970573 Ry

     iteration #  5     ecut=    80.00 Ry     beta= 0.70
     Davidson diagonalization with overlap
     ethr =  1.29E-05,  avg # of iterations =  2.0

     total cpu time spent up to now is       32.7 secs

     total energy              =   -2205.52114614 Ry
     estimated scf accuracy    <       0.02273645 Ry

     iteration #  6     ecut=    80.00 Ry     beta= 0.70
     Davidson diagonalization with overlap
     ethr =  7.41E-06,  avg # of iterations =  2.0

     total cpu time spent up to now is       34.9 secs

     total energy              =   -2205.52005131 Ry
     estimated scf accuracy    <       0.01282567 Ry

     iteration #  7     ecut=    80.00 Ry     beta= 0.70
     Davidson diagonalization with overlap
     ethr =  4.18E-06,  avg # of iterations = 16.0

     total cpu time spent up to now is       37.6 secs

     total energy              =   -2205.51850372 Ry
     estimated scf accuracy    <       0.00859922 Ry

     iteration #  8     ecut=    80.00 Ry     beta= 0.70
     Davidson diagonalization with overlap
     ethr =  2.80E-06,  avg # of iterations =  2.0

     negative rho (up, down):  5.582E-03 0.000E+00

     total cpu time spent up to now is       42.3 secs

     total energy              =   -2205.51801298 Ry
     estimated scf accuracy    <       0.00415094 Ry

     iteration #  9     ecut=    80.00 Ry     beta= 0.70
     Davidson diagonalization with overlap
     ethr =  1.35E-06,  avg # of iterations =  2.0

     negative rho (up, down):  3.033E-02 0.000E+00

     total cpu time spent up to now is       46.8 secs

     total energy              =   -2205.51785084 Ry
     estimated scf accuracy    <       0.00239033 Ry

     iteration # 10     ecut=    80.00 Ry     beta= 0.70
     Davidson diagonalization with overlap
     ethr =  7.79E-07,  avg # of iterations =  5.0

     negative rho (up, down):  2.904E-02 0.000E+00

     total cpu time spent up to now is       51.9 secs

     total energy              =   -2205.51794368 Ry
     estimated scf accuracy    <       0.00097605 Ry

     iteration # 11     ecut=    80.00 Ry     beta= 0.70
     Davidson diagonalization with overlap
     ethr =  3.18E-07,  avg # of iterations =  2.0

     negative rho (up, down):  1.666E-02 0.000E+00

     total cpu time spent up to now is       57.0 secs

     total energy              =   -2205.51797744 Ry
     estimated scf accuracy    <       0.00017030 Ry

     iteration # 12     ecut=    80.00 Ry     beta= 0.70
     Davidson diagonalization with overlap
     ethr =  5.55E-08,  avg # of iterations =  8.0

     negative rho (up, down):  5.425E-03 0.000E+00

     total cpu time spent up to now is       65.2 secs

     total energy              =   -2205.51803803 Ry
     estimated scf accuracy    <       0.00003981 Ry

     iteration # 13     ecut=    80.00 Ry     beta= 0.70
     Davidson diagonalization with overlap
     ethr =  1.30E-08,  avg # of iterations =  2.0

     negative rho (up, down):  9.241E-04 0.000E+00

     total cpu time spent up to now is       74.4 secs

     total energy              =   -2205.51805039 Ry
     estimated scf accuracy    <       0.00000905 Ry

     iteration # 14     ecut=    80.00 Ry     beta= 0.70
     Davidson diagonalization with overlap
     ethr =  2.95E-09,  avg # of iterations =  4.0

     negative rho (up, down):  5.049E-04 0.000E+00

     total cpu time spent up to now is       84.2 secs

     total energy              =   -2205.51805495 Ry
     estimated scf accuracy    <       0.00000132 Ry

     iteration # 15     ecut=    80.00 Ry     beta= 0.70
     Davidson diagonalization with overlap
     ethr =  4.30E-10,  avg # of iterations =  7.0

     negative rho (up, down):  1.369E-04 0.000E+00

     total cpu time spent up to now is       86.7 secs

     End of self-consistent calculation

          k = 0.0000 0.0000 0.0000 (105382 PWs)   bands (ev):

   -62.8781 -62.8509 -62.8421 -62.8229 -62.8155 -62.8112 -62.7986 -62.7953
   -62.7848 -62.7199 -62.7030 -62.6924 -37.2037 -37.1422 -37.1279 -37.1231
   -37.1095 -37.0843 -37.0805 -37.0575 -37.0566 -37.0515 -37.0399 -37.0338
   -37.0130 -37.0085 -37.0013 -36.9967 -36.9918 -36.9794 -36.9762 -36.9675
   -36.9406 -36.9303 -36.9087 -36.9012 -36.8841 -36.8786 -36.8687 -36.8670
   -36.8542 -36.8495 -36.8409 -36.8349 -36.8241 -36.7904 -36.6880 -36.6549
   -16.0628 -15.4443 -15.1057 -15.0590 -14.9353 -14.7936 -14.6801 -14.4664
   -14.4501 -14.4380 -14.3793 -14.3380 -14.3200 -14.2626 -14.1874 -14.1153
   -14.1029 -14.0810 -13.9930 -13.9383 -13.8175 -13.7882 -13.7723  -8.4516
    -7.5747  -7.4168  -7.2830  -7.2602  -7.2362  -7.2157  -7.1244  -7.0527
    -6.8278  -6.7767  -6.7408  -6.6582  -6.6221  -6.5084  -6.4543  -6.4095
    -6.2621  -6.2202  -6.1128  -5.9778  -5.9190  -5.8957  -5.8237  -5.7962
    -5.7213  -5.7150  -5.6721  -5.6394  -5.6081  -5.5722  -5.5487  -5.4758
    -5.4296  -5.3542  -5.1671  -5.1230  -5.0603  -5.0312  -4.9533  -4.9475
    -4.9259  -4.8068  -4.6343  -4.4936  -4.3450  -4.3225  -4.2959  -4.2500
    -4.1833  -4.1028  -4.0051  -3.8801  -3.7873  -3.7818  -3.7062  -3.6909
    -3.6398  -3.5914  -3.5384  -3.4964  -3.4855  -3.4552  -3.4288  -3.3761
    -3.3360  -3.1943  -3.1097  -2.8903  -2.8697  -2.7786  -2.7576  -2.7368
    -2.6958  -2.6551  -2.6269  -2.5939  -2.5473  -2.2765  -2.0180  -1.9738
    -1.8784  -0.8577  -0.7152  -0.6684  -0.1655  -0.1357  -0.0952  -0.0461
     0.0194   0.1178   0.2324   0.2603   0.2941   0.3267   0.3993   0.4115
     0.4753   0.5455   0.5652   0.5969   0.6401   0.7044   0.7250   0.7551
     0.7827   0.8089   0.8561   0.9081   0.9386   0.9868   1.0238   1.2433
     1.4452

     the Fermi energy is    -0.8737 ev

!    total energy              =   -2205.51805701 Ry
     estimated scf accuracy    <       0.00000041 Ry
     smearing contrib. (-TS)   =      -0.00759520 Ry
     internal energy E=F+TS    =   -2205.51046181 Ry

     The total energy is F=E-TS. E is the sum of the following terms:
     one-electron contribution =  -18048.47788289 Ry
     hartree contribution      =    9011.14907214 Ry
     xc contribution           =    -385.27538060 Ry
     ewald contribution        =    7217.09372954 Ry

     convergence has been achieved in  15 iterations

     negative rho (up, down):  1.369E-04 0.000E+00

     Forces acting on atoms (cartesian axes, Ry/au):

     atom    1 type  1   force =     0.01147112   -0.02535704    0.00507402
     atom    2 type  2   force =    -0.01657315    0.02048614    0.00936301
     atom    3 type  2   force =    -0.01136845    0.00942333   -0.00360594
     atom    4 type  1   force =    -0.00643835    0.00046696   -0.00048470
     atom    5 type  2   force =    -0.00379458   -0.00313120   -0.00945159
     atom    6 type  2   force =     0.00349062    0.00758457   -0.00026903
     atom    7 type  1   force =    -0.00177808   -0.00725799   -0.00564195
     atom    8 type  2   force =     0.00224032   -0.00076058    0.01876917
     atom    9 type  2   force =     0.01267463    0.00536355    0.00897372
     atom   10 type  1   force =    -0.00862311    0.00730427   -0.03062289
     atom   11 type  2   force =     0.00362359   -0.00204214   -0.00653885
     atom   12 type  2   force =    -0.00002036    0.00066757    0.00625157
     atom   13 type  1   force =     0.00488025    0.00339339   -0.01004013
     atom   14 type  2   force =     0.00777753    0.00050536    0.01185613
     atom   15 type  2   force =    -0.01293324    0.00183536   -0.00900284
     atom   16 type  1   force =     0.00145076    0.00936371    0.00923798
     atom   17 type  2   force =     0.01099059    0.00426759   -0.00159885
     atom   18 type  2   force =    -0.00682601   -0.01070760    0.01327700
     atom   19 type  1   force =     0.01033930   -0.00135729   -0.00363151
     atom   20 type  2   force =     0.00285516   -0.00498895    0.00169833
     atom   21 type  1   force =    -0.00466385    0.00624265    0.00032735
     atom   22 type  2   force =    -0.00134124   -0.00253394   -0.00292594
     atom   23 type  2   force =    -0.00134785    0.00167131    0.00935199
     atom   24 type  1   force =    -0.00023597   -0.02218406   -0.06215245
     atom   25 type  2   force =     0.01816722    0.01694457    0.00880633
     atom   26 type  2   force =    -0.01182002    0.00049919   -0.00346057
     atom   27 type  1   force =     0.02005652    0.00329761   -0.01243051
     atom   28 type  2   force =    -0.02096683   -0.03860411    0.06506285
     atom   29 type  2   force =     0.00313077    0.00015350   -0.00165840
     atom   30 type  1   force =    -0.00377573    0.00562347   -0.00352768
     atom   31 type  2   force =    -0.00032694    0.00208823    0.01982466
     atom   32 type  2   force =    -0.00739438    0.00249650    0.00696614
     atom   33 type  1   force =     0.01134587   -0.00435377   -0.00979764
     atom   34 type  2   force =     0.00323298   -0.04575065   -0.00967663
     atom   35 type  2   force =    -0.00855478    0.00827685    0.01591661
     atom   36 type  3   force =     0.00105567    0.05107368   -0.02423878
     The non-local contrib.  to forces
     atom    1 type  1   force =    -0.00157280    0.02948367   -0.01140594
     atom    2 type  2   force =     0.00522429    0.01666319   -0.22629715
     atom    3 type  2   force =    -0.01394343   -0.00365001    0.27288036
     atom    4 type  1   force =    -0.00005687   -0.00048265    0.00130823
     atom    5 type  2   force =     0.00819622   -0.03398722   -0.25376980
     atom    6 type  2   force =    -0.00402862    0.01270148    0.26170560
     atom    7 type  1   force =    -0.02558323   -0.00403725   -0.01562442
     atom    8 type  2   force =     0.00576104   -0.00011929   -0.25256701
     atom    9 type  2   force =     0.00866575   -0.01197656    0.27868036
     atom   10 type  1   force =     0.00642305   -0.00223904   -0.00494005
     atom   11 type  2   force =     0.01351921    0.00484518   -0.26033673
     atom   12 type  2   force =    -0.01105419   -0.01630175    0.26204186
     atom   13 type  1   force =     0.00059073    0.01852363   -0.00748945
     atom   14 type  2   force =     0.01043093   -0.00925785   -0.26138369
     atom   15 type  2   force =    -0.01346179   -0.00333350    0.26275956
     atom   16 type  1   force =    -0.00158382    0.03779931   -0.02658572
     atom   17 type  2   force =     0.00613374   -0.02741161   -0.24678977
     atom   18 type  2   force =    -0.00304306   -0.00144119    0.27371167
     atom   19 type  1   force =     0.01754473   -0.00694430   -0.01256165
     atom   20 type  2   force =    -0.00022493   -0.02193112    0.26548183
     atom   21 type  1   force =     0.00138953    0.02012971    0.00675535
     atom   22 type  2   force =    -0.00671896    0.00511838   -0.25884257
     atom   23 type  2   force =     0.00551272   -0.01390829    0.26752823
     atom   24 type  1   force =     0.00659568    0.01257393   -0.00654868
     atom   25 type  2   force =     0.01057689    0.00178930   -0.24515787
     atom   26 type  2   force =    -0.00351127   -0.01406654    0.26572811
     atom   27 type  1   force =    -0.00088908   -0.00014412    0.00419453
     atom   28 type  2   force =    -0.06487005   -0.27291420   -0.02413246
     atom   29 type  2   force =     0.00623686    0.00219333    0.26647214
     atom   30 type  1   force =    -0.00014014    0.02268693    0.01093636
     atom   31 type  2   force =    -0.00658706    0.00842605   -0.24786805
     atom   32 type  2   force =    -0.00541493   -0.01376115    0.27490772
     atom   33 type  1   force =    -0.00543668    0.00535632    0.00470502
     atom   34 type  2   force =     0.00047044   -0.03975962   -0.27276541
     atom   35 type  2   force =    -0.00395134   -0.01123490    0.27048045
     atom   36 type  3   force =     0.00369526    0.02181035   -0.01973749
     The ionic contribution  to forces
     atom    1 type  1   force =     0.11914755    0.14662177    5.46496186
     atom    2 type  2   force =    -1.01635624   -0.05438698   39.04276639
     atom    3 type  2   force =    -0.19427255   -0.03015838  -36.16393495
     atom    4 type  1   force =    -0.09161272    0.88302578    0.35410863
     atom    5 type  2   force =    -1.16449402    1.60321233   38.68565380
     atom    6 type  2   force =     0.31244751   -0.48055753  -38.06659175
     atom    7 type  1   force =    -2.66193544   -2.72870258    2.56915225
     atom    8 type  2   force =    -1.03021301    0.14435031   37.36877524
     atom    9 type  2   force =     0.32957082   -0.00503458  -38.01534590
     atom   10 type  1   force =    -1.18254408   -0.53157818    5.55765883
     atom   11 type  2   force =    -0.59755340   -1.65037116   39.14165630
     atom   12 type  2   force =     0.43005788    0.67605148  -37.84988425
     atom   13 type  1   force =     0.66555427    0.92084783    2.69864363
     atom   14 type  2   force =     0.03801231   -0.06553668   38.50307736
     atom   15 type  2   force =     0.15093278   -0.08511673  -36.82105686
     atom   16 type  1   force =    -0.04533423    4.04689343    0.42951982
     atom   17 type  2   force =     0.94792035    1.57362596   37.89052671
     atom   18 type  2   force =    -0.13658953   -0.62863943  -38.59447118
     atom   19 type  1   force =     2.75584112   -2.40044066    0.66076753
     atom   20 type  2   force =     0.22688185   -0.17880144  -38.47136456
     atom   21 type  1   force =     0.02461324   -0.03705124    1.15919068
     atom   22 type  2   force =     0.48485760   -1.75292940   38.43485183
     atom   23 type  2   force =    -0.07666280    0.65098180  -38.28301946
     atom   24 type  1   force =    -0.43008161    0.84755212    4.85875072
     atom   25 type  2   force =     0.96031676   -0.00153098   39.12491123
     atom   26 type  2   force =    -0.25347872    0.02691296  -37.39453170
     atom   27 type  1   force =     0.21651683    0.64736835   -2.49749248
     atom   28 type  2   force =     0.26592101    1.98237294   37.42543214
     atom   29 type  2   force =    -0.25870246   -0.39065638  -37.37149146
     atom   30 type  1   force =    -0.33203005   -0.81985948   -0.07088737
     atom   31 type  2   force =     1.27812603    0.04519368   37.31152111
     atom   32 type  2   force =    -0.46686786    0.02205930  -38.64297519
     atom   33 type  1   force =     0.88971007   -1.03807364    1.97974709
     atom   34 type  2   force =     0.24808676   -1.54483126   39.34063772
     atom   35 type  2   force =    -0.29810688    0.45319433  -37.82406346
     atom   36 type  3   force =    -0.10767917   -0.24600765    8.06479972
     The local contribution  to forces
     atom    1 type  1   force =    -0.10607464   -0.20141303   -5.44786465
     atom    2 type  2   force =     0.99541838    0.05943406  -38.82512054
     atom    3 type  2   force =     0.19626621    0.04313169   35.90861655
     atom    4 type  1   force =     0.08519850   -0.88204601   -0.35515327
     atom    5 type  2   force =     1.15340654   -1.57426496  -38.46143231
     atom    6 type  2   force =    -0.30533297    0.47662987   37.82556548
     atom    7 type  1   force =     2.68613467    2.72552354   -2.55865137
     atom    8 type  2   force =     1.02701208   -0.14537719  -37.11742856
     atom    9 type  2   force =    -0.32534734    0.02173673   37.76685446
     atom   10 type  1   force =     1.16777047    0.54105373   -5.58266076
     atom   11 type  2   force =     0.58838125    1.64403868  -38.90818972
     atom   12 type  2   force =    -0.42006007   -0.66049996   37.61501111
     atom   13 type  1   force =    -0.66131975   -0.93599840   -2.70066918
     atom   14 type  2   force =    -0.04011512    0.07533645  -38.25005712
     atom   15 type  2   force =    -0.15116803    0.09004620   36.57004734
     atom   16 type  1   force =     0.04851575   -4.07559772   -0.39321936
     atom   17 type  2   force =    -0.94302933   -1.54344064  -37.66510903
     atom   18 type  2   force =     0.13277730    0.61990715   38.35514032
     atom   19 type  1   force =    -2.76329326    2.40617742   -0.65137419
     atom   20 type  2   force =    -0.22385935    0.19489276   38.22874730
     atom   21 type  1   force =    -0.03063736    0.02325622   -1.16511411
     atom   22 type  2   force =    -0.47971315    1.74594719  -38.19906800
     atom   23 type  2   force =     0.07024161   -0.63654820   38.04574964
     atom   24 type  1   force =     0.42323720   -0.88243150   -4.91367780
     atom   25 type  2   force =    -0.95284048    0.01712957  -38.89043395
     atom   26 type  2   force =     0.24527062   -0.01313590   37.14645714
     atom   27 type  1   force =    -0.19562640   -0.64396770    2.48140379
     atom   28 type  2   force =    -0.22587540   -1.76472030  -37.34185342
     atom   29 type  2   force =     0.25617250    0.38919488   37.12423827
     atom   30 type  1   force =     0.32827737    0.80291512    0.05697539
     atom   31 type  2   force =    -1.27251967   -0.05135748  -37.06367935
     atom   32 type  2   force =     0.46480127   -0.00659929   38.39615833
     atom   33 type  1   force =    -0.87318908    1.02843244   -1.99364382
     atom   34 type  2   force =    -0.24567747    1.53764897  -39.09833464
     atom   35 type  2   force =     0.29351884   -0.43470468   37.59073769
     atom   36 type  3   force =     0.10504202    0.27527966   -8.06926338
     The core correction contribution to forces
     atom    1 type  1   force =     0.00000000    0.00000000    0.00000000
     atom    2 type  2   force =    -0.00076686   -0.00123024    0.01834487
     atom    3 type  2   force =     0.00065388    0.00006792   -0.02101528
     atom    4 type  1   force =     0.00000000    0.00000000    0.00000000
     atom    5 type  2   force =    -0.00082865    0.00190913    0.02035389
     atom    6 type  2   force =     0.00036457   -0.00115837   -0.02080586
     atom    7 type  1   force =     0.00000000    0.00000000    0.00000000
     atom    8 type  2   force =    -0.00027840    0.00041022    0.02027031
     atom    9 type  2   force =    -0.00022582    0.00071728   -0.02107897
     atom   10 type  1   force =     0.00000000    0.00000000    0.00000000
     atom   11 type  2   force =    -0.00065469   -0.00056006    0.02064024
     atom   12 type  2   force =     0.00106303    0.00135431   -0.02077516
     atom   13 type  1   force =     0.00000000    0.00000000    0.00000000
     atom   14 type  2   force =    -0.00056112   -0.00005923    0.02056054
     atom   15 type  2   force =     0.00073256    0.00024140   -0.02064992
     atom   16 type  1   force =     0.00000000    0.00000000    0.00000000
     atom   17 type  2   force =    -0.00009167    0.00145080    0.02005330
     atom   18 type  2   force =     0.00003913   -0.00051353   -0.02100714
     atom   19 type  1   force =     0.00000000    0.00000000    0.00000000
     atom   20 type  2   force =     0.00012769    0.00084341   -0.02117411
     atom   21 type  1   force =     0.00000000    0.00000000    0.00000000
     atom   22 type  2   force =     0.00017624   -0.00058020    0.02051185
     atom   23 type  2   force =    -0.00047261    0.00119079   -0.02086381
     atom   24 type  1   force =     0.00000000    0.00000000    0.00000000
     atom   25 type  2   force =     0.00003411   -0.00046982    0.01978938
     atom   26 type  2   force =    -0.00013370    0.00075408   -0.02096436
     atom   27 type  1   force =     0.00000000    0.00000000    0.00000000
     atom   28 type  2   force =     0.00384301    0.01662712    0.00612478
     atom   29 type  2   force =    -0.00054381   -0.00059852   -0.02079729
     atom   30 type  1   force =     0.00000000    0.00000000    0.00000000
     atom   31 type  2   force =     0.00049233   -0.00018133    0.02020716
     atom   32 type  2   force =     0.00001705    0.00081141   -0.02108230
     atom   33 type  1   force =     0.00000000    0.00000000    0.00000000
     atom   34 type  2   force =     0.00032897    0.00124065    0.02108203
     atom   35 type  2   force =    -0.00001208    0.00099911   -0.02106962
     atom   36 type  3   force =     0.00000000    0.00000000    0.00000000
     The Hubbard contrib.    to forces
     atom    1 type  1   force =     0.00000000    0.00000000    0.00000000
     atom    2 type  2   force =     0.00000000    0.00000000    0.00000000
     atom    3 type  2   force =     0.00000000    0.00000000    0.00000000
     atom    4 type  1   force =     0.00000000    0.00000000    0.00000000
     atom    5 type  2   force =     0.00000000    0.00000000    0.00000000
     atom    6 type  2   force =     0.00000000    0.00000000    0.00000000
     atom    7 type  1   force =     0.00000000    0.00000000    0.00000000
     atom    8 type  2   force =     0.00000000    0.00000000    0.00000000
     atom    9 type  2   force =     0.00000000    0.00000000    0.00000000
     atom   10 type  1   force =     0.00000000    0.00000000    0.00000000
     atom   11 type  2   force =     0.00000000    0.00000000    0.00000000
     atom   12 type  2   force =     0.00000000    0.00000000    0.00000000
     atom   13 type  1   force =     0.00000000    0.00000000    0.00000000
     atom   14 type  2   force =     0.00000000    0.00000000    0.00000000
     atom   15 type  2   force =     0.00000000    0.00000000    0.00000000
     atom   16 type  1   force =     0.00000000    0.00000000    0.00000000
     atom   17 type  2   force =     0.00000000    0.00000000    0.00000000
     atom   18 type  2   force =     0.00000000    0.00000000    0.00000000
     atom   19 type  1   force =     0.00000000    0.00000000    0.00000000
     atom   20 type  2   force =     0.00000000    0.00000000    0.00000000
     atom   21 type  1   force =     0.00000000    0.00000000    0.00000000
     atom   22 type  2   force =     0.00000000    0.00000000    0.00000000
     atom   23 type  2   force =     0.00000000    0.00000000    0.00000000
     atom   24 type  1   force =     0.00000000    0.00000000    0.00000000
     atom   25 type  2   force =     0.00000000    0.00000000    0.00000000
     atom   26 type  2   force =     0.00000000    0.00000000    0.00000000
     atom   27 type  1   force =     0.00000000    0.00000000    0.00000000
     atom   28 type  2   force =     0.00000000    0.00000000    0.00000000
     atom   29 type  2   force =     0.00000000    0.00000000    0.00000000
     atom   30 type  1   force =     0.00000000    0.00000000    0.00000000
     atom   31 type  2   force =     0.00000000    0.00000000    0.00000000
     atom   32 type  2   force =     0.00000000    0.00000000    0.00000000
     atom   33 type  1   force =     0.00000000    0.00000000    0.00000000
     atom   34 type  2   force =     0.00000000    0.00000000    0.00000000
     atom   35 type  2   force =     0.00000000    0.00000000    0.00000000
     atom   36 type  3   force =     0.00000000    0.00000000    0.00000000
     The SCF correction term to forces
     atom    1 type  1   force =    -0.00002950   -0.00005262   -0.00060496
     atom    2 type  2   force =    -0.00009324    0.00000294   -0.00031828
     atom    3 type  2   force =    -0.00007308    0.00002893   -0.00014034
     atom    4 type  1   force =     0.00003223   -0.00003332   -0.00073601
     atom    5 type  2   force =    -0.00007517   -0.00000365   -0.00024489
     atom    6 type  2   force =     0.00003962   -0.00003405   -0.00013023
     atom    7 type  1   force =    -0.00039459   -0.00004487   -0.00050612
     atom    8 type  2   force =    -0.00004191   -0.00002780   -0.00026852
     atom    9 type  2   force =     0.00001070   -0.00008249   -0.00012395
     atom   10 type  1   force =    -0.00027306    0.00006459   -0.00066863
     atom   11 type  2   force =    -0.00006929    0.00000205   -0.00029666
     atom   12 type  2   force =    -0.00002753    0.00006032   -0.00012972
     atom   13 type  1   force =     0.00005449    0.00001715   -0.00051286
     atom   14 type  2   force =     0.00001003    0.00001951   -0.00032867
     atom   15 type  2   force =     0.00003073   -0.00000518   -0.00009068
     atom   16 type  1   force =    -0.00014745    0.00026551   -0.00046448
     atom   17 type  2   force =     0.00005699    0.00003990   -0.00026778
     atom   18 type  2   force =    -0.00001035   -0.00002377   -0.00008439
     atom   19 type  1   force =     0.00024620   -0.00015292   -0.00045091
     atom   20 type  2   force =    -0.00007062    0.00000427    0.00002015
     atom   21 type  1   force =    -0.00002977   -0.00009521   -0.00049229
     atom   22 type  2   force =     0.00005652   -0.00009309   -0.00036677
     atom   23 type  2   force =     0.00003272   -0.00004796   -0.00003033
     atom   24 type  1   force =     0.00001225    0.00011823   -0.00066440
     atom   25 type  2   force =     0.00007943    0.00002332   -0.00029018
     atom   26 type  2   force =     0.00003253    0.00003143   -0.00013748
     atom   27 type  1   force =     0.00005465    0.00003791   -0.00052408
     atom   28 type  2   force =     0.00001408    0.00002717   -0.00049591
     atom   29 type  2   force =    -0.00003284    0.00001703   -0.00006778
     atom   30 type  1   force =     0.00011657   -0.00012226   -0.00053979
     atom   31 type  2   force =     0.00016092    0.00000413   -0.00034393
     atom   32 type  2   force =     0.00006957   -0.00001695   -0.00003014
     atom   33 type  1   force =     0.00026106   -0.00007206   -0.00059366
     atom   34 type  2   force =     0.00002377   -0.00005255   -0.00028404
     atom   35 type  2   force =    -0.00000383    0.00001983   -0.00015616
     atom   36 type  3   force =    -0.00000295   -0.00001185   -0.00002534

     Total force =     0.155027     Total SCF correction =     0.002421

     BFGS Geometry Optimization
     Energy error            =      0.0E+00 Ry
     Gradient error          =      6.5E-02 Ry/Bohr

     number of scf cycles    =   1
     number of bfgs steps    =   0

     energy             new  =   -2205.5180570093 Ry

     new trust radius        =       0.0785051539 bohr
     new conv_thr            =       0.0000010000 Ry


ATOMIC_POSITIONS (angstrom)
Mo            6.5806186638        1.7743878618        2.8263280903
S             8.1679392068        0.8205448233        4.4394930456
S             8.1872171633        0.8162283538        1.2759752461
Mo            8.0917555358        4.4953040510        2.7175619023
S             6.4979012515        3.7207545270        4.3416590833
S             6.5551969561        3.5157511347        1.1211378632
Mo            6.4890407796        7.2145965208        2.6688988919
S             8.0829132567        6.3434685098        4.2523937822
S             8.0876247717        6.3075405823        1.0886116870
Mo            8.1560558973        9.9060456661        2.8272568262
S             6.4970851191        8.9418461587        4.3796453242
S             6.6179364248        9.0490644756        1.1432154912
Mo            3.4242421796        1.7487515555        2.7711581537
S             4.9792811844        0.8172086328        4.3568070864
S             5.0509897787        0.8472333412        1.2218943629
Mo            4.9805243903        4.5181330626        2.6377730782
S             3.4336576319        3.6738579949        4.2788635055
S             3.4343084138        3.5425624780        1.0653775703
Mo            3.4593330607        7.2156062910        2.6287551504
S             4.9847450763        6.3242922456        1.0381524488
Mo            5.0097959177        9.9049035199        2.7435741842
S             3.4702483647        8.9424103636        4.3240429721
S             3.4077159157        9.0658744037        1.1010171596
Mo            0.2959656186        1.7357702317        2.8165550498
S             1.8600758898        0.8016606849        4.4028695494
S             1.8545451471        0.8546900770        1.2075695989
Mo            1.8713047632        4.4974117833        2.6536194382
S             0.2611186782        3.6339704115        4.3720138744
S             0.2328879399        3.5273304571        1.1711402967
Mo            0.2691541185        7.2196219069        2.6998296596
S             1.9020652374        6.3139038771        4.2329348777
S             1.8583252766        6.3116649016        1.0482456062
Mo            1.8503506404        9.9378352376        2.7677615621
S             0.2976237209        9.0657876252        4.4087488142
S             0.2722444058        9.0479056372        1.1588234855
H             0.0005586351        2.4556714700        5.3306351536



     Writing config-only to output data dir ./MoS2-V-O.save/
     NEW-OLD atomic charge density approx. for the potential

     negative rho (up, down):  1.467E-04 0.000E+00

     total cpu time spent up to now is       90.0 secs

     Self-consistent Calculation

     iteration #  1     ecut=    80.00 Ry     beta= 0.70
     Davidson diagonalization with overlap
     ethr =  1.00E-06,  avg # of iterations = 10.0

     negative rho (up, down):  8.231E-05 0.000E+00

     total cpu time spent up to now is      102.7 secs

     total energy              =   -2205.53764665 Ry
     estimated scf accuracy    <       0.00306398 Ry

     iteration #  2     ecut=    80.00 Ry     beta= 0.70
     Davidson diagonalization with overlap
     ethr =  9.98E-07,  avg # of iterations =  2.0

     negative rho (up, down):  7.503E-05 0.000E+00

     total cpu time spent up to now is      115.5 secs

     total energy              =   -2205.53774688 Ry
     estimated scf accuracy    <       0.00080168 Ry

     iteration #  3     ecut=    80.00 Ry     beta= 0.70
     Davidson diagonalization with overlap
     ethr =  2.61E-07,  avg # of iterations =  2.0

     negative rho (up, down):  6.570E-05 0.000E+00

     total cpu time spent up to now is      129.1 secs

     total energy              =   -2205.53777706 Ry
     estimated scf accuracy    <       0.00033300 Ry

     iteration #  4     ecut=    80.00 Ry     beta= 0.70
     Davidson diagonalization with overlap
     ethr =  1.08E-07,  avg # of iterations =  5.0

     negative rho (up, down):  6.314E-05 0.000E+00

     total cpu time spent up to now is      144.7 secs

     total energy              =   -2205.53780917 Ry
     estimated scf accuracy    <       0.00002110 Ry

     iteration #  5     ecut=    80.00 Ry     beta= 0.70
     Davidson diagonalization with overlap
     ethr =  6.87E-09,  avg # of iterations =  5.0

     negative rho (up, down):  6.088E-05 0.000E+00

     total cpu time spent up to now is      160.5 secs

     total energy              =   -2205.53781677 Ry
     estimated scf accuracy    <       0.00000905 Ry

     iteration #  6     ecut=    80.00 Ry     beta= 0.70
     Davidson diagonalization with overlap
     ethr =  2.95E-09,  avg # of iterations =  3.0

     negative rho (up, down):  5.776E-05 0.000E+00

     total cpu time spent up to now is      171.5 secs

     total energy              =   -2205.53781785 Ry
     estimated scf accuracy    <       0.00000216 Ry

     iteration #  7     ecut=    80.00 Ry     beta= 0.70
     Davidson diagonalization with overlap
     ethr =  7.05E-10,  avg # of iterations =  6.0

     negative rho (up, down):  5.906E-05 0.000E+00

     total cpu time spent up to now is      184.8 secs

     total energy              =   -2205.53781826 Ry
     estimated scf accuracy    <       0.00000117 Ry

     iteration #  8     ecut=    80.00 Ry     beta= 0.70
     Davidson diagonalization with overlap
     ethr =  3.82E-10,  avg # of iterations =  2.0

     negative rho (up, down):  1.372E-04 0.000E+00

     total cpu time spent up to now is      186.6 secs

     End of self-consistent calculation

          k = 0.0000 0.0000 0.0000 (105382 PWs)   bands (ev):

   -62.8867 -62.8467 -62.8333 -62.8157 -62.8069 -62.8040 -62.7909 -62.7866
   -62.7779 -62.7148 -62.6960 -62.6836 -37.1971 -37.1364 -37.1240 -37.1159
   -37.0996 -37.0868 -37.0750 -37.0519 -37.0495 -37.0439 -37.0329 -37.0299
   -37.0035 -37.0002 -36.9928 -36.9884 -36.9867 -36.9709 -36.9691 -36.9574
   -36.9352 -36.9235 -36.9039 -36.8946 -36.8759 -36.8713 -36.8634 -36.8590
   -36.8463 -36.8433 -36.8346 -36.8272 -36.8170 -36.7843 -36.6831 -36.6479
   -16.0638 -15.4666 -15.0953 -15.0593 -14.9310 -14.7996 -14.6671 -14.4674
   -14.4410 -14.4162 -14.3816 -14.3290 -14.3096 -14.2665 -14.1839 -14.1086
   -14.1025 -14.0813 -13.9894 -13.9146 -13.8236 -13.7919 -13.7621  -8.5280
    -7.5584  -7.4118  -7.2705  -7.2459  -7.2237  -7.2072  -7.1233  -7.0653
    -6.8023  -6.7720  -6.7308  -6.6519  -6.6284  -6.5028  -6.4506  -6.3963
    -6.2600  -6.2102  -6.1194  -5.9627  -5.9071  -5.8840  -5.8036  -5.7886
    -5.7214  -5.7107  -5.6579  -5.6432  -5.6164  -5.5665  -5.5517  -5.4432
    -5.4207  -5.3279  -5.1359  -5.1163  -5.0541  -5.0176  -4.9492  -4.9352
    -4.9228  -4.8082  -4.6268  -4.4934  -4.3696  -4.3023  -4.2789  -4.2364
    -4.1940  -4.1158  -4.0214  -3.8637  -3.7852  -3.7761  -3.6940  -3.6870
    -3.6423  -3.5801  -3.5333  -3.4957  -3.4832  -3.4550  -3.4244  -3.3826
    -3.3233  -3.1918  -3.1080  -2.8809  -2.8564  -2.7694  -2.7527  -2.7278
    -2.6794  -2.6608  -2.6304  -2.5886  -2.5455  -2.2713  -2.0138  -1.9755
    -1.8905  -0.8528  -0.6860  -0.6604  -0.1708  -0.1308  -0.0944  -0.0404
     0.0298   0.1080   0.2413   0.2838   0.3012   0.3401   0.4093   0.4206
     0.4718   0.5575   0.5704   0.5993   0.6551   0.7176   0.7298   0.7485
     0.7972   0.8158   0.8809   0.9244   0.9368   1.0026   1.0309   1.2578
     1.4524

     the Fermi energy is    -0.8646 ev

!    total energy              =   -2205.53781783 Ry
     estimated scf accuracy    <       0.00000064 Ry
     smearing contrib. (-TS)   =      -0.00720127 Ry
     internal energy E=F+TS    =   -2205.53061656 Ry

     The total energy is F=E-TS. E is the sum of the following terms:
     one-electron contribution =  -18045.40150788 Ry
     hartree contribution      =    9009.69706305 Ry
     xc contribution           =    -385.27891190 Ry
     ewald contribution        =    7215.45274016 Ry

     convergence has been achieved in   8 iterations

     negative rho (up, down):  1.372E-04 0.000E+00

     Forces acting on atoms (cartesian axes, Ry/au):

     atom    1 type  1   force =     0.00254428   -0.01244470    0.00067103
     atom    2 type  2   force =    -0.00820382    0.01068766   -0.00096715
     atom    3 type  2   force =    -0.01279692    0.00563189   -0.01366406
     atom    4 type  1   force =    -0.00279754   -0.00003663    0.00496953
     atom    5 type  2   force =    -0.00262053   -0.00395707   -0.00827483
     atom    6 type  2   force =     0.00255124    0.00404184    0.00140593
     atom    7 type  1   force =     0.00065239   -0.00532278    0.00024632
     atom    8 type  2   force =     0.00154666   -0.00132561    0.01270525
     atom    9 type  2   force =     0.01024519    0.00371511    0.00611857
     atom   10 type  1   force =    -0.00360787    0.00707225   -0.00916858
     atom   11 type  2   force =     0.00334951   -0.00131391   -0.00884415
     atom   12 type  2   force =    -0.00270003    0.00022247    0.00173540
     atom   13 type  1   force =     0.00422266    0.00227474   -0.00315619
     atom   14 type  2   force =     0.00541940    0.00038626    0.00767873
     atom   15 type  2   force =    -0.00906449    0.00063031   -0.00789958
     atom   16 type  1   force =     0.00194420    0.00572245    0.00603247
     atom   17 type  2   force =     0.00864801    0.00431088   -0.00227163
     atom   18 type  2   force =    -0.00275740   -0.00802846    0.00865444
     atom   19 type  1   force =     0.00539371   -0.00134882    0.00128265
     atom   20 type  2   force =     0.00268444   -0.00439296   -0.00143336
     atom   21 type  1   force =    -0.00329245    0.00366700    0.00219800
     atom   22 type  2   force =    -0.00007182   -0.00207835   -0.00316524
     atom   23 type  2   force =     0.00022143    0.00088272    0.00471168
     atom   24 type  1   force =    -0.00163979   -0.01294078   -0.02358338
     atom   25 type  2   force =     0.01099809    0.01288554   -0.00165785
     atom   26 type  2   force =    -0.00451131   -0.00258433   -0.00987528
     atom   27 type  1   force =     0.01016758    0.00103852   -0.00091362
     atom   28 type  2   force =    -0.01395015   -0.03289325    0.04612535
     atom   29 type  2   force =     0.00330895    0.00327292   -0.00276429
     atom   30 type  1   force =    -0.00155543   -0.00163633    0.00400568
     atom   31 type  2   force =     0.00000578    0.00024549    0.01198565
     atom   32 type  2   force =    -0.00449258    0.00291202    0.00442760
     atom   33 type  1   force =     0.00582637   -0.00147448    0.00106672
     atom   34 type  2   force =     0.00022205   -0.03340440   -0.01480783
     atom   35 type  2   force =    -0.00615506    0.00751236    0.00844359
     atom   36 type  3   force =     0.00026525    0.04807042   -0.02201755
     The non-local contrib.  to forces
     atom    1 type  1   force =     0.00002512    0.02585300   -0.01250718
     atom    2 type  2   force =     0.00613607    0.00559037   -0.23174180
     atom    3 type  2   force =    -0.01278989   -0.00756250    0.26545861
     atom    4 type  1   force =    -0.00136408   -0.00050662   -0.00122581
     atom    5 type  2   force =     0.00907381   -0.03535719   -0.25329392
     atom    6 type  2   force =    -0.00584007    0.00995267    0.26448287
     atom    7 type  1   force =    -0.02626139   -0.00447543   -0.01654215
     atom    8 type  2   force =     0.00497297    0.00025390   -0.25600508
     atom    9 type  2   force =     0.00580788   -0.01298906    0.27718802
     atom   10 type  1   force =     0.00511714   -0.00268252   -0.00626201
     atom   11 type  2   force =     0.01229850    0.00467764   -0.26218216
     atom   12 type  2   force =    -0.01253845   -0.01681736    0.26014711
     atom   13 type  1   force =     0.00087989    0.01992266   -0.00861898
     atom   14 type  2   force =     0.00863467   -0.00868190   -0.26292057
     atom   15 type  2   force =    -0.01046789   -0.00414351    0.26303381
     atom   16 type  1   force =    -0.00250994    0.03895805   -0.02859254
     atom   17 type  2   force =     0.00593432   -0.02700912   -0.24583782
     atom   18 type  2   force =     0.00114499    0.00136998    0.27132954
     atom   19 type  1   force =     0.01883984   -0.00630166   -0.01368064
     atom   20 type  2   force =    -0.00050346   -0.02066133    0.26273109
     atom   21 type  1   force =     0.00048254    0.02012334    0.00551661
     atom   22 type  2   force =    -0.00556534    0.00521922   -0.25909181
     atom   23 type  2   force =     0.00659547   -0.01487782    0.26474680
     atom   24 type  1   force =     0.00633311    0.00979736   -0.00566621
     atom   25 type  2   force =     0.00539215   -0.00268246   -0.24999476
     atom   26 type  2   force =     0.00182919   -0.01602432    0.26166581
     atom   27 type  1   force =     0.00301167   -0.00112052    0.00246547
     atom   28 type  2   force =    -0.06968919   -0.28998986   -0.02882666
     atom   29 type  2   force =     0.00651748    0.00148719    0.26781919
     atom   30 type  1   force =    -0.00049655    0.02372035    0.00940009
     atom   31 type  2   force =    -0.00527198    0.00953787   -0.25261349
     atom   32 type  2   force =    -0.00268410   -0.01305168    0.27384170
     atom   33 type  1   force =    -0.00387893    0.00390362    0.00242391
     atom   34 type  2   force =    -0.00168249   -0.03002827   -0.27693346
     atom   35 type  2   force =    -0.00269377   -0.01173517    0.26614436
     atom   36 type  3   force =     0.00485740    0.02739029   -0.02367115
     The ionic contribution  to forces
     atom    1 type  1   force =    -0.04459539    0.47094127    5.62157792
     atom    2 type  2   force =    -0.74855115   -0.13660023   39.11910099
     atom    3 type  2   force =    -0.28527142   -0.01525155  -36.30006199
     atom    4 type  1   force =     0.29113664    0.79359797    0.54194505
     atom    5 type  2   force =    -1.12833418    1.55767828   38.61149890
     atom    6 type  2   force =     0.26342097   -0.51359587  -37.98533908
     atom    7 type  1   force =    -2.54179943   -2.66697318    2.55050192
     atom    8 type  2   force =    -0.98991092    0.11746460   37.44655301
     atom    9 type  2   force =     0.34063049   -0.05415173  -37.95573013
     atom   10 type  1   force =    -0.97262152   -0.56909081    5.25222852
     atom   11 type  2   force =    -0.53198624   -1.63948511   39.10654574
     atom   12 type  2   force =     0.34973843    0.60717050  -37.83493801
     atom   13 type  1   force =     0.60666183    0.91642760    2.67674539
     atom   14 type  2   force =    -0.04250782   -0.03888280   38.59680235
     atom   15 type  2   force =     0.18037479   -0.03835135  -36.87317195
     atom   16 type  1   force =     0.01827420    3.88604895    0.67704165
     atom   17 type  2   force =     0.83469787    1.52286750   37.90752213
     atom   18 type  2   force =    -0.05208601   -0.58710358  -38.55013798
     atom   19 type  1   force =     2.57317840   -2.43100679    0.66595447
     atom   20 type  2   force =     0.21654895   -0.20312727  -38.52811892
     atom   21 type  1   force =     0.03382623   -0.08071504    1.31594823
     atom   22 type  2   force =     0.45802772   -1.74196595   38.46784249
     atom   23 type  2   force =    -0.06003388    0.60285216  -38.27258607
     atom   24 type  1   force =    -0.30797076    1.12961747    3.80399727
     atom   25 type  2   force =     0.77833770    0.01458493   39.11035998
     atom   26 type  2   force =    -0.10803913   -0.01928317  -37.43264462
     atom   27 type  1   force =    -0.29916914    0.57613928   -2.40042955
     atom   28 type  2   force =     0.39338712    2.02842743   37.43805699
     atom   29 type  2   force =    -0.27409109   -0.21507645  -37.25009532
     atom   30 type  1   force =    -0.25371018   -1.07279146   -0.02289140
     atom   31 type  2   force =     1.22024470   -0.02853056   37.35053187
     atom   32 type  2   force =    -0.48034633    0.03651493  -38.57418305
     atom   33 type  1   force =     0.72522962   -0.92269846    2.12334478
     atom   34 type  2   force =     0.18852691   -1.32654360   39.25690397
     atom   35 type  2   force =    -0.23414074    0.39378584  -37.74893965
     atom   36 type  3   force =    -0.11707723   -0.35289377    8.08826408
     The local contribution  to forces
     atom    1 type  1   force =     0.04734448   -0.50958713   -5.60930527
     atom    2 type  2   force =     0.73468653    0.14254146  -38.90738287
     atom    3 type  2   force =     0.28487422    0.02816859   36.04163180
     atom    4 type  1   force =    -0.29297115   -0.79299528   -0.53685477
     atom    5 type  2   force =     1.11750793   -1.52813828  -38.38717702
     atom    6 type  2   force =    -0.25534490    0.50878375   37.74282813
     atom    7 type  1   force =     2.56859897    2.66612751   -2.53462024
     atom    8 type  2   force =     0.98666638   -0.11937000  -37.19859839
     atom    9 type  2   force =    -0.33614718    0.07017941   37.70552706
     atom   10 type  1   force =     0.96381390    0.57894743   -5.25649663
     atom   11 type  2   force =     0.52351250    1.63400859  -38.87429632
     atom   12 type  2   force =    -0.34089290   -0.59143090   37.59704138
     atom   13 type  1   force =    -0.60346770   -0.93415351   -2.67239635
     atom   14 type  2   force =     0.03990809    0.04791965  -38.34727281
     atom   15 type  2   force =    -0.17963711    0.04272706   36.62268073
     atom   16 type  1   force =    -0.01391514   -3.91905480   -0.64321430
     atom   17 type  2   force =    -0.83182049   -1.49286825  -37.68444405
     atom   18 type  2   force =     0.04814502    0.57829404   38.30825661
     atom   19 type  1   force =    -2.58648857    2.43602425   -0.65185274
     atom   20 type  2   force =    -0.21347459    0.21868838   38.28491233
     atom   21 type  1   force =    -0.03758095    0.06422824   -1.32026586
     atom   22 type  2   force =    -0.45261915    1.73524693  -38.23288247
     atom   23 type  2   force =     0.05414763   -0.58827270   38.03317796
     atom   24 type  1   force =     0.29986150   -1.15271875   -3.82335927
     atom   25 type  2   force =    -0.77279812    0.00121330  -38.88232472
     atom   26 type  2   force =     0.10179695    0.03196072   37.18174983
     atom   27 type  1   force =     0.30677451   -0.57397343    2.39583095
     atom   28 type  2   force =    -0.34196069   -1.78945376  -37.36857815
     atom   29 type  2   force =     0.27149182    0.21712357   37.00001147
     atom   30 type  1   force =     0.25260331    1.04772110    0.01662441
     atom   31 type  2   force =    -1.21531438    0.01957230  -37.10657421
     atom   32 type  2   force =     0.47870209   -0.02137349   38.32559517
     atom   33 type  1   force =    -0.71548128    0.91724671   -2.12585502
     atom   34 type  2   force =    -0.18692148    1.32201882  -39.01637990
     atom   35 type  2   force =     0.23063981   -0.37547104   37.51197811
     atom   36 type  3   force =     0.11248582    0.37359081   -8.08667197
     The core correction contribution to forces
     atom    1 type  1   force =     0.00000000    0.00000000    0.00000000
     atom    2 type  2   force =    -0.00063206   -0.00079668    0.01855463
     atom    3 type  2   force =     0.00048050    0.00023733   -0.02084850
     atom    4 type  1   force =     0.00000000    0.00000000    0.00000000
     atom    5 type  2   force =    -0.00087380    0.00191480    0.02031159
     atom    6 type  2   force =     0.00038883   -0.00107336   -0.02086250
     atom    7 type  1   force =     0.00000000    0.00000000    0.00000000
     atom    8 type  2   force =    -0.00023313    0.00040278    0.02036889
     atom    9 type  2   force =    -0.00008429    0.00074250   -0.02106485
     atom   10 type  1   force =     0.00000000    0.00000000    0.00000000
     atom   11 type  2   force =    -0.00053663   -0.00054767    0.02068939
     atom   12 type  2   force =     0.00104632    0.00133899   -0.02072142
     atom   13 type  1   force =     0.00000000    0.00000000    0.00000000
     atom   14 type  2   force =    -0.00054245   -0.00006639    0.02062138
     atom   15 type  2   force =     0.00063277    0.00030345   -0.02066717
     atom   16 type  1   force =     0.00000000    0.00000000    0.00000000
     atom   17 type  2   force =    -0.00013196    0.00138813    0.02003226
     atom   18 type  2   force =    -0.00007066   -0.00062311   -0.02097544
     atom   19 type  1   force =     0.00000000    0.00000000    0.00000000
     atom   20 type  2   force =     0.00013222    0.00076299   -0.02110785
     atom   21 type  1   force =     0.00000000    0.00000000    0.00000000
     atom   22 type  2   force =     0.00010748   -0.00060813    0.02054369
     atom   23 type  2   force =    -0.00048958    0.00121415   -0.02080536
     atom   24 type  1   force =     0.00000000    0.00000000    0.00000000
     atom   25 type  2   force =     0.00018060   -0.00024761    0.01988595
     atom   26 type  2   force =    -0.00022677    0.00078061   -0.02085851
     atom   27 type  1   force =     0.00000000    0.00000000    0.00000000
     atom   28 type  2   force =     0.00426195    0.01797892    0.00544888
     atom   29 type  2   force =    -0.00057381   -0.00042021   -0.02085820
     atom   30 type  1   force =     0.00000000    0.00000000    0.00000000
     atom   31 type  2   force =     0.00041064   -0.00024202    0.02030645
     atom   32 type  2   force =    -0.00012394    0.00081606   -0.02104893
     atom   33 type  1   force =     0.00000000    0.00000000    0.00000000
     atom   34 type  2   force =     0.00036279    0.00093026    0.02121093
     atom   35 type  2   force =    -0.00002601    0.00100866   -0.02094247
     atom   36 type  3   force =     0.00000000    0.00000000    0.00000000
     The Hubbard contrib.    to forces
     atom    1 type  1   force =     0.00000000    0.00000000    0.00000000
     atom    2 type  2   force =     0.00000000    0.00000000    0.00000000
     atom    3 type  2   force =     0.00000000    0.00000000    0.00000000
     atom    4 type  1   force =     0.00000000    0.00000000    0.00000000
     atom    5 type  2   force =     0.00000000    0.00000000    0.00000000
     atom    6 type  2   force =     0.00000000    0.00000000    0.00000000
     atom    7 type  1   force =     0.00000000    0.00000000    0.00000000
     atom    8 type  2   force =     0.00000000    0.00000000    0.00000000
     atom    9 type  2   force =     0.00000000    0.00000000    0.00000000
     atom   10 type  1   force =     0.00000000    0.00000000    0.00000000
     atom   11 type  2   force =     0.00000000    0.00000000    0.00000000
     atom   12 type  2   force =     0.00000000    0.00000000    0.00000000
     atom   13 type  1   force =     0.00000000    0.00000000    0.00000000
     atom   14 type  2   force =     0.00000000    0.00000000    0.00000000
     atom   15 type  2   force =     0.00000000    0.00000000    0.00000000
     atom   16 type  1   force =     0.00000000    0.00000000    0.00000000
     atom   17 type  2   force =     0.00000000    0.00000000    0.00000000
     atom   18 type  2   force =     0.00000000    0.00000000    0.00000000
     atom   19 type  1   force =     0.00000000    0.00000000    0.00000000
     atom   20 type  2   force =     0.00000000    0.00000000    0.00000000
     atom   21 type  1   force =     0.00000000    0.00000000    0.00000000
     atom   22 type  2   force =     0.00000000    0.00000000    0.00000000
     atom   23 type  2   force =     0.00000000    0.00000000    0.00000000
     atom   24 type  1   force =     0.00000000    0.00000000    0.00000000
     atom   25 type  2   force =     0.00000000    0.00000000    0.00000000
     atom   26 type  2   force =     0.00000000    0.00000000    0.00000000
     atom   27 type  1   force =     0.00000000    0.00000000    0.00000000
     atom   28 type  2   force =     0.00000000    0.00000000    0.00000000
     atom   29 type  2   force =     0.00000000    0.00000000    0.00000000
     atom   30 type  1   force =     0.00000000    0.00000000    0.00000000
     atom   31 type  2   force =     0.00000000    0.00000000    0.00000000
     atom   32 type  2   force =     0.00000000    0.00000000    0.00000000
     atom   33 type  1   force =     0.00000000    0.00000000    0.00000000
     atom   34 type  2   force =     0.00000000    0.00000000    0.00000000
     atom   35 type  2   force =     0.00000000    0.00000000    0.00000000
     atom   36 type  3   force =     0.00000000    0.00000000    0.00000000
     The SCF correction term to forces
     atom    1 type  1   force =    -0.00022979    0.00034551    0.00088405
     atom    2 type  2   force =     0.00015694   -0.00004991    0.00048040
     atom    3 type  2   force =    -0.00009020    0.00003738    0.00013451
     atom    4 type  1   force =     0.00040119   -0.00013536    0.00108355
     atom    5 type  2   force =     0.00000586   -0.00005732    0.00036411
     atom    6 type  2   force =    -0.00007346   -0.00002799    0.00027499
     atom    7 type  1   force =     0.00011437   -0.00000432    0.00088527
     atom    8 type  2   force =     0.00005150   -0.00007953    0.00036532
     atom    9 type  2   force =     0.00003842   -0.00006866    0.00017695
     atom   10 type  1   force =     0.00008275   -0.00010449    0.00134003
     atom   11 type  2   force =     0.00006153    0.00002999    0.00037768
     atom   12 type  2   force =    -0.00005329   -0.00004141    0.00018482
     atom   13 type  1   force =     0.00014878    0.00007534    0.00109223
     atom   14 type  2   force =    -0.00007295    0.00009506    0.00042686
     atom   15 type  2   force =     0.00003310    0.00009200    0.00020349
     atom   16 type  1   force =     0.00009522   -0.00023240    0.00077614
     atom   17 type  2   force =    -0.00003159   -0.00007003    0.00043433
     atom   18 type  2   force =     0.00010940    0.00003156    0.00016020
     atom   19 type  1   force =    -0.00013583   -0.00006727    0.00084004
     atom   20 type  2   force =    -0.00001854   -0.00005838    0.00012848
     atom   21 type  1   force =    -0.00002012    0.00002781    0.00097750
     atom   22 type  2   force =    -0.00002238    0.00002693    0.00040134
     atom   23 type  2   force =     0.00000192   -0.00003572    0.00015683
     atom   24 type  1   force =     0.00013651    0.00036050    0.00142332
     atom   25 type  2   force =    -0.00011411    0.00001473    0.00039419
     atom   26 type  2   force =     0.00012859   -0.00002081    0.00019070
     atom   27 type  1   force =    -0.00044931   -0.00000946    0.00119800
     atom   28 type  2   force =     0.00005080    0.00014137    0.00000278
     atom   29 type  2   force =    -0.00003531    0.00015618    0.00033705
     atom   30 type  1   force =     0.00004813   -0.00028897    0.00085106
     atom   31 type  2   force =    -0.00006306   -0.00009474    0.00031351
     atom   32 type  2   force =    -0.00004015    0.00000354    0.00020120
     atom   33 type  1   force =    -0.00004290    0.00007099    0.00113154
     atom   34 type  2   force =    -0.00006354    0.00021575    0.00036911
     atom   35 type  2   force =     0.00006579   -0.00007858    0.00018172
     atom   36 type  3   force =    -0.00000060   -0.00001956    0.00003998

     Total force =     0.106830     Total SCF correction =     0.004090
     Energy error            =      2.0E-02 Ry
     Gradient error          =      4.8E-02 Ry/Bohr

     number of scf cycles    =   2
     number of bfgs steps    =   1

     energy             old  =   -2205.5180570093 Ry
     energy             new  =   -2205.5378178254 Ry

     CASE: energy            _new < energy            _old

     new trust radius        =       0.0863556693 bohr
     new conv_thr            =       0.0000000481 Ry


ATOMIC_POSITIONS (angstrom)
Mo            6.5835508971        1.7636308787        2.8273402911
S             8.1608646133        0.8296325548        4.4399784658
S             8.1778703519        0.8208572073        1.2669899381
Mo            8.0892513293        4.4953355316        2.7206203878
S             6.4958162417        3.7179090910        4.3353702930
S             6.5572030952        3.5191689328        1.1219877620
Mo            6.4892423995        7.2104138811        2.6683954863
S             8.0841439365        6.3425489180        4.2625459946
S             8.0955244011        6.3104946237        1.0934931796
Mo            8.1527890358        9.9113303015        2.8179394262
S             6.4996071351        8.9407844811        4.3733392724
S             6.6162416187        9.0492817564        1.1450321483
Mo            3.4274580194        1.7505730450        2.7680091997
S             4.9835849603        0.8175096707        4.3630025811
S             5.0438000799        0.8478424217        1.2158931021
Mo            4.9819121998        4.5228117283        2.6426314138
S             3.4403597721        3.6770577008        4.2772531906
S             3.4317841716        3.5362816739        1.0723503190
Mo            3.4639194101        7.2146025740        2.6291357355
S             4.9867606207        6.3209569873        1.0374520005
Mo            5.0071883864        9.9079299009        2.7449900971
S             3.4700469718        8.9408121821        4.3217178004
S             3.4076975670        9.0666225684        1.1050608905
Mo            0.2949102559        1.7250722403        2.7945261092
S             1.8690878367        0.8117131736        4.4028571186
S             1.8503392596        0.8531283724        1.2009761174
Mo            1.8800164116        4.4984472179        2.6515974724
S             0.2499299116        3.6088513991        4.4085118723
S             0.2353270695        3.5293998839        1.1692142334
Mo            0.2677389301        7.2192518720        2.7019291958
S             1.9020307402        6.3143012266        4.2427590897
S             1.8546471244        6.3137812813        1.0518331022
Mo            1.8553255470        9.9364033919        2.7672878809
S             0.2981398441        9.0395149942        4.3983387745
S             0.2673888887        9.0535795346        1.1659718218
H             0.0008479781        2.4917576562        5.3140081077



     Writing config-only to output data dir ./MoS2-V-O.save/
     NEW-OLD atomic charge density approx. for the potential

     negative rho (up, down):  1.487E-04 0.000E+00

     total cpu time spent up to now is      190.1 secs

     Self-consistent Calculation

     iteration #  1     ecut=    80.00 Ry     beta= 0.70
     Davidson diagonalization with overlap
     c_bands:  1 eigenvalues not converged
     ethr =  1.00E-06,  avg # of iterations = 20.0

     negative rho (up, down):  7.957E-05 0.000E+00

     total cpu time spent up to now is      211.9 secs

     total energy              =   -2205.55090301 Ry
     estimated scf accuracy    <       0.00232525 Ry

     iteration #  2     ecut=    80.00 Ry     beta= 0.70
     Davidson diagonalization with overlap
     ethr =  7.57E-07,  avg # of iterations =  2.0

     negative rho (up, down):  6.223E-05 0.000E+00

     total cpu time spent up to now is      224.6 secs

     total energy              =   -2205.55099976 Ry
     estimated scf accuracy    <       0.00052676 Ry

     iteration #  3     ecut=    80.00 Ry     beta= 0.70
     Davidson diagonalization with overlap
     ethr =  1.72E-07,  avg # of iterations =  4.0

     negative rho (up, down):  4.452E-05 0.000E+00

     total cpu time spent up to now is      242.2 secs

     total energy              =   -2205.55103133 Ry
     estimated scf accuracy    <       0.00020438 Ry

     iteration #  4     ecut=    80.00 Ry     beta= 0.70
     Davidson diagonalization with overlap
     ethr =  6.66E-08,  avg # of iterations =  2.0

     negative rho (up, down):  3.891E-05 0.000E+00

     total cpu time spent up to now is      258.3 secs

     total energy              =   -2205.55104790 Ry
     estimated scf accuracy    <       0.00001374 Ry

     iteration #  5     ecut=    80.00 Ry     beta= 0.70
     Davidson diagonalization with overlap
     ethr =  4.48E-09,  avg # of iterations = 10.0

     negative rho (up, down):  3.950E-05 0.000E+00

     total cpu time spent up to now is      272.4 secs

     total energy              =   -2205.55105249 Ry
     estimated scf accuracy    <       0.00000528 Ry

     iteration #  6     ecut=    80.00 Ry     beta= 0.70
     Davidson diagonalization with overlap
     ethr =  1.72E-09,  avg # of iterations =  3.0

     negative rho (up, down):  4.416E-05 0.000E+00

     total cpu time spent up to now is      283.7 secs

     total energy              =   -2205.55105280 Ry
     estimated scf accuracy    <       0.00000127 Ry

     iteration #  7     ecut=    80.00 Ry     beta= 0.70
     Davidson diagonalization with overlap
     ethr =  4.15E-10,  avg # of iterations =  5.0

     negative rho (up, down):  5.048E-05 0.000E+00

     total cpu time spent up to now is      295.8 secs

     total energy              =   -2205.55105294 Ry
     estimated scf accuracy    <       0.00000037 Ry

     iteration #  8     ecut=    80.00 Ry     beta= 0.70
     Davidson diagonalization with overlap
     ethr =  1.19E-10,  avg # of iterations =  5.0

     negative rho (up, down):  6.996E-05 0.000E+00

     total cpu time spent up to now is      306.4 secs

     total energy              =   -2205.55105287 Ry
     estimated scf accuracy    <       0.00000016 Ry

     iteration #  9     ecut=    80.00 Ry     beta= 0.70
     Davidson diagonalization with overlap
     ethr =  5.32E-11,  avg # of iterations =  5.0

     negative rho (up, down):  9.131E-05 0.000E+00

     total cpu time spent up to now is      317.0 secs

     total energy              =   -2205.55105277 Ry
     estimated scf accuracy    <       0.00000005 Ry

     iteration # 10     ecut=    80.00 Ry     beta= 0.70
     Davidson diagonalization with overlap
     ethr =  1.57E-11,  avg # of iterations =  5.0

     negative rho (up, down):  1.375E-04 0.000E+00

     total cpu time spent up to now is      319.0 secs

     End of self-consistent calculation

          k = 0.0000 0.0000 0.0000 (105382 PWs)   bands (ev):

   -62.8929 -62.8384 -62.8222 -62.8060 -62.7963 -62.7941 -62.7810 -62.7785
   -62.7673 -62.7028 -62.6843 -62.6718 -37.1896 -37.1304 -37.1191 -37.1058
   -37.0882 -37.0863 -37.0672 -37.0431 -37.0395 -37.0342 -37.0243 -37.0200
   -36.9928 -36.9889 -36.9822 -36.9788 -36.9774 -36.9603 -36.9590 -36.9490
   -36.9271 -36.9137 -36.8959 -36.8833 -36.8652 -36.8601 -36.8534 -36.8474
   -36.8355 -36.8326 -36.8249 -36.8158 -36.8070 -36.7755 -36.6717 -36.6368
   -16.0834 -15.5254 -15.0837 -15.0638 -14.9227 -14.7964 -14.6631 -14.4637
   -14.4299 -14.3945 -14.3790 -14.3209 -14.2969 -14.2604 -14.1753 -14.1031
   -14.0964 -14.0713 -13.9820 -13.9025 -13.8194 -13.7884 -13.7492  -8.6478
    -7.5448  -7.4048  -7.2576  -7.2404  -7.2026  -7.1950  -7.1154  -7.0711
    -6.7782  -6.7682  -6.7176  -6.6538  -6.6205  -6.4909  -6.4439  -6.3789
    -6.2603  -6.2012  -6.1303  -5.9471  -5.9049  -5.8649  -5.7872  -5.7757
    -5.7218  -5.7010  -5.6443  -5.6348  -5.6083  -5.5642  -5.5419  -5.4162
    -5.4072  -5.3088  -5.1175  -5.1057  -5.0466  -4.9982  -4.9444  -4.9178
    -4.9127  -4.8057  -4.6120  -4.4868  -4.4006  -4.2823  -4.2658  -4.2216
    -4.1967  -4.1215  -4.0226  -3.8448  -3.7875  -3.7640  -3.6906  -3.6759
    -3.6365  -3.5630  -3.5202  -3.4956  -3.4803  -3.4548  -3.4169  -3.3762
    -3.3098  -3.1895  -3.0974  -2.8692  -2.8438  -2.7629  -2.7420  -2.7137
    -2.6711  -2.6498  -2.6294  -2.5761  -2.5382  -2.2653  -2.0050  -1.9697
    -1.8911  -0.8406  -0.6552  -0.6477  -0.1986  -0.1170  -0.0853  -0.0319
     0.0447   0.1032   0.2488   0.2960   0.3119   0.3536   0.4087   0.4334
     0.4733   0.5711   0.5786   0.6046   0.6700   0.7159   0.7465   0.7630
     0.8130   0.8230   0.9094   0.9344   0.9480   1.0132   1.0387   1.2740
     1.4500

     the Fermi energy is    -0.8501 ev

!    total energy              =   -2205.55105266 Ry
     estimated scf accuracy    <       0.00000002 Ry
     smearing contrib. (-TS)   =      -0.00695818 Ry
     internal energy E=F+TS    =   -2205.54409448 Ry

     The total energy is F=E-TS. E is the sum of the following terms:
     one-electron contribution =  -18042.26887187 Ry
     hartree contribution      =    9008.20619506 Ry
     xc contribution           =    -385.29524997 Ry
     ewald contribution        =    7213.81383230 Ry

     convergence has been achieved in  10 iterations

     negative rho (up, down):  1.375E-04 0.000E+00

     Forces acting on atoms (cartesian axes, Ry/au):

     atom    1 type  1   force =    -0.00335633   -0.00266820   -0.00436178
     atom    2 type  2   force =    -0.00306213    0.00185435   -0.00676688
     atom    3 type  2   force =    -0.01160193    0.00259133   -0.01688266
     atom    4 type  1   force =     0.00073290   -0.00099197    0.00680818
     atom    5 type  2   force =    -0.00188462   -0.00446287   -0.00531541
     atom    6 type  2   force =     0.00205982    0.00193477    0.00275993
     atom    7 type  1   force =     0.00232186   -0.00339569    0.00227926
     atom    8 type  2   force =     0.00061507   -0.00225968    0.00883009
     atom    9 type  2   force =     0.00740769    0.00165562    0.00470539
     atom   10 type  1   force =    -0.00141220    0.00608907    0.00112799
     atom   11 type  2   force =     0.00289220   -0.00060022   -0.00820586
     atom   12 type  2   force =    -0.00408646   -0.00021643    0.00013376
     atom   13 type  1   force =     0.00270306    0.00062154   -0.00029007
     atom   14 type  2   force =     0.00311277    0.00027021    0.00472478
     atom   15 type  2   force =    -0.00582488   -0.00058007   -0.00568109
     atom   16 type  1   force =     0.00199046    0.00239147    0.00160832
     atom   17 type  2   force =     0.00653308    0.00397058   -0.00122524
     atom   18 type  2   force =     0.00023342   -0.00464665    0.00518805
     atom   19 type  1   force =     0.00187087   -0.00154492    0.00289780
     atom   20 type  2   force =     0.00231871   -0.00318755   -0.00228870
     atom   21 type  1   force =    -0.00177371    0.00166673    0.00127501
     atom   22 type  2   force =     0.00084847   -0.00153186   -0.00150059
     atom   23 type  2   force =     0.00098747    0.00001161    0.00232845
     atom   24 type  1   force =    -0.00345630   -0.00552869   -0.00196225
     atom   25 type  2   force =     0.00557372    0.00834211   -0.00647634
     atom   26 type  2   force =     0.00103775   -0.00437389   -0.01073100
     atom   27 type  1   force =     0.00272138   -0.00024858    0.00475935
     atom   28 type  2   force =    -0.00574291   -0.01293673    0.02223317
     atom   29 type  2   force =     0.00316865    0.00467446   -0.00053097
     atom   30 type  1   force =     0.00007340   -0.00591689    0.00547149
     atom   31 type  2   force =     0.00063449   -0.00175341    0.00692303
     atom   32 type  2   force =    -0.00169835    0.00236695    0.00362961
     atom   33 type  1   force =     0.00176789    0.00029217    0.00404369
     atom   34 type  2   force =    -0.00153676   -0.02089262   -0.01378411
     atom   35 type  2   force =    -0.00349775    0.00538848    0.00445727
     atom   36 type  3   force =    -0.00267079    0.03361548   -0.01018167
     The non-local contrib.  to forces
     atom    1 type  1   force =     0.00070879    0.02322613   -0.01283290
     atom    2 type  2   force =     0.00455895   -0.00563488   -0.23614328
     atom    3 type  2   force =    -0.01019294   -0.01037326    0.26206747
     atom    4 type  1   force =    -0.00279398   -0.00038648   -0.00327575
     atom    5 type  2   force =     0.00981755   -0.03599098   -0.25154280
     atom    6 type  2   force =    -0.00705089    0.00842033    0.26656148
     atom    7 type  1   force =    -0.02665744   -0.00454126   -0.01697095
     atom    8 type  2   force =     0.00446427    0.00026403   -0.25780902
     atom    9 type  2   force =     0.00249960   -0.01426998    0.27629459
     atom   10 type  1   force =     0.00389123   -0.00276279   -0.00611074
     atom   11 type  2   force =     0.01143674    0.00450328   -0.26222162
     atom   12 type  2   force =    -0.01304331   -0.01710663    0.25992917
     atom   13 type  1   force =     0.00134952    0.02138390   -0.00893719
     atom   14 type  2   force =     0.00682896   -0.00825944   -0.26371682
     atom   15 type  2   force =    -0.00781777   -0.00504141    0.26368655
     atom   16 type  1   force =    -0.00311882    0.04036608   -0.02924421
     atom   17 type  2   force =     0.00559541   -0.02697482   -0.24395564
     atom   18 type  2   force =     0.00424410    0.00450662    0.26943728
     atom   19 type  1   force =     0.01971101   -0.00559515   -0.01439516
     atom   20 type  2   force =    -0.00092854   -0.01873582    0.26129423
     atom   21 type  1   force =    -0.00030073    0.02001127    0.00488194
     atom   22 type  2   force =    -0.00495364    0.00531585   -0.25820269
     atom   23 type  2   force =     0.00711331   -0.01563978    0.26325441
     atom   24 type  1   force =     0.00615365    0.00700283   -0.00527783
     atom   25 type  2   force =     0.00122832   -0.00722697   -0.25191661
     atom   26 type  2   force =     0.00595913   -0.01686075    0.26068577
     atom   27 type  1   force =     0.00633505   -0.00208640    0.00138259
     atom   28 type  2   force =    -0.07329427   -0.29194086   -0.03724309
     atom   29 type  2   force =     0.00631115   -0.00030521    0.27059385
     atom   30 type  1   force =    -0.00079710    0.02447096    0.00873736
     atom   31 type  2   force =    -0.00407156    0.01021721   -0.25520350
     atom   32 type  2   force =     0.00018433   -0.01320972    0.27356837
     atom   33 type  1   force =    -0.00252853    0.00258749    0.00149675
     atom   34 type  2   force =    -0.00274737   -0.02050024   -0.27724799
     atom   35 type  2   force =    -0.00107671   -0.01356440    0.26419289
     atom   36 type  3   force =     0.00665531    0.03524690   -0.02948079
     The ionic contribution  to forces
     atom    1 type  1   force =    -0.13631000    0.70400327    5.62246885
     atom    2 type  2   force =    -0.55295535   -0.20372241   39.15888043
[...]
     atom   27 type  1   force =     0.01958151    0.01653857   -0.00588737
     atom   28 type  2   force =    -0.00337094   -0.00495861    0.27401442
     atom   29 type  2   force =    -0.00126818   -0.01255742    0.28294220
     atom   30 type  1   force =    -0.00013384    0.01952178    0.00651076
     atom   31 type  2   force =    -0.00737801   -0.00673422   -0.25551548
     atom   32 type  2   force =     0.00276978   -0.02019442    0.26935982
     atom   33 type  1   force =     0.00354303   -0.00494403    0.00219458
     atom   34 type  2   force =     0.00131141   -0.00785633   -0.27048267
     atom   35 type  2   force =    -0.00086197   -0.01808988    0.26801557
     atom   36 type  3   force =     0.00102410   -0.00245700   -0.06375663
     The ionic contribution  to forces
     atom    1 type  1   force =     0.02328914    0.76238278    1.84409974
     atom    2 type  2   force =    -0.31098701    0.17041539   39.05303055
     atom    3 type  2   force =     0.11244660    0.01020875  -37.64917471
     atom    4 type  1   force =     0.10973549    0.76810133    0.20102140
     atom    5 type  2   force =    -0.89800329    1.27531792   38.23127805
     atom    6 type  2   force =     0.34606481   -0.26379972  -38.43118738
     atom    7 type  1   force =    -2.16988238   -2.92857121    2.45789895
     atom    8 type  2   force =    -1.24725328    0.10576769   38.03795513
     atom    9 type  2   force =     0.35360604    0.06403239  -37.79004880
     atom   10 type  1   force =    -0.21222276   -0.81516354    3.38094356
     atom   11 type  2   force =    -0.33190270   -1.49072098   38.91567333
     atom   12 type  2   force =     0.30333366    0.26281466  -38.12283796
     atom   13 type  1   force =    -0.04141407    0.74097560    2.34845203
     atom   14 type  2   force =     0.02699363    0.11062408   38.58553887
     atom   15 type  2   force =    -0.03140654   -0.06781357  -37.65299403
     atom   16 type  1   force =     0.04712854    4.21063625   -0.53568607
     atom   17 type  2   force =     0.92605616    1.27361945   38.36407424
     atom   18 type  2   force =    -0.38000848   -0.27477400  -38.36413448
     atom   19 type  1   force =     2.17992314   -2.88813936    3.34088882
     atom   20 type  2   force =    -0.03496871   -0.12679543  -38.48250670
     atom   21 type  1   force =    -0.02249315   -0.07253099    1.26424357
     atom   22 type  2   force =     0.34811601   -1.46213613   39.02951487
     atom   23 type  2   force =    -0.36442615    0.23472005  -37.93260461
     atom   24 type  1   force =     0.01409310    1.04609418    2.68360885
     atom   25 type  2   force =     0.28023918    0.18190362   39.15234688
     atom   26 type  2   force =    -0.07233418   -0.01498686  -37.53122332
     atom   27 type  1   force =    -0.15362958    0.77155526    0.75714361
     atom   28 type  2   force =     0.01052728    0.52382725   35.01947221
     atom   29 type  2   force =     0.02687258   -0.04010577  -36.93133558
     atom   30 type  1   force =     0.04890032   -0.98786206    1.90907363
     atom   31 type  2   force =     1.18079741    0.12176412   38.11456197
     atom   32 type  2   force =    -0.32238841    0.07656211  -37.61795325
     atom   33 type  1   force =     0.25687913   -0.84395245    3.99929314
     atom   34 type  2   force =    -0.02516439   -0.59749969   38.88414499
     atom   35 type  2   force =     0.04560723    0.03893654  -37.22132411
     atom   36 type  3   force =    -0.02212435    0.12459234    8.68875262
     The local contribution  to forces
     atom    1 type  1   force =    -0.01861819   -0.78768429   -1.83802671
     atom    2 type  2   force =     0.30248936   -0.16606653  -38.81672335
     atom    3 type  2   force =    -0.11134473    0.00071363   37.40147638
     atom    4 type  1   force =    -0.09138979   -0.78484977   -0.19592162
     atom    5 type  2   force =     0.88303934   -1.25267212  -38.00622526
     atom    6 type  2   force =    -0.34168719    0.26691486   38.19116638
     atom    7 type  1   force =     2.20262027    2.94058059   -2.44433896
     atom    8 type  2   force =     1.23880021   -0.09915956  -37.80284464
     atom    9 type  2   force =    -0.34979388   -0.04549348   37.54215093
     atom   10 type  1   force =     0.21622953    0.81969579   -3.38423769
     atom   11 type  2   force =     0.32357585    1.48877906  -38.67603696
     atom   12 type  2   force =    -0.29571637   -0.25545682   37.88458743
     atom   13 type  1   force =     0.03749454   -0.76648476   -2.34276232
     atom   14 type  2   force =    -0.02633495   -0.10383064  -38.34361656
     atom   15 type  2   force =     0.03098687    0.07050063   37.41123497
     atom   16 type  1   force =    -0.04754363   -4.26473987    0.53969673
     atom   17 type  2   force =    -0.91076419   -1.25090646  -38.13899151
     atom   18 type  2   force =     0.37518496    0.27805578   38.12467441
     atom   19 type  1   force =    -2.21463427    2.90034646   -3.32574580
     atom   20 type  2   force =     0.03408714    0.14353957   38.24106599
     atom   21 type  1   force =     0.02235793    0.05807279   -1.26744912
     atom   22 type  2   force =    -0.33904924    1.46065534  -38.79001184
     atom   23 type  2   force =     0.35596653   -0.22745609   37.69354413
     atom   24 type  1   force =    -0.01391989   -1.03965181   -2.66841945
     atom   25 type  2   force =    -0.27226370   -0.17745403  -38.91629982
     atom   26 type  2   force =     0.07172088    0.02601411   37.28347597
     atom   27 type  1   force =     0.13419857   -0.78745254   -0.75122164
     atom   28 type  2   force =    -0.00671382   -0.51751042  -35.28077726
     atom   29 type  2   force =    -0.02621990    0.05264500   36.67058461
     atom   30 type  1   force =    -0.04851691    0.96829143   -1.91504617
     atom   31 type  2   force =    -1.17320945   -0.11531512  -37.87865000
     atom   32 type  2   force =     0.31930152   -0.05741760   37.36961732
     atom   33 type  1   force =    -0.26046633    0.84893719   -4.00235173
     atom   34 type  2   force =     0.02451209    0.60503963  -38.63435284
     atom   35 type  2   force =    -0.04487406   -0.02301522   36.97437847
     atom   36 type  3   force =     0.02156605   -0.12273126   -8.62537613
     The core correction contribution to forces
     atom    1 type  1   force =     0.00000000    0.00000000    0.00000000
     atom    2 type  2   force =    -0.00078204    0.00001015    0.02022282
     atom    3 type  2   force =     0.00003993    0.00048310   -0.02107232
     atom    4 type  1   force =     0.00000000    0.00000000    0.00000000
     atom    5 type  2   force =    -0.00133605    0.00120257    0.01989881
     atom    6 type  2   force =     0.00036279   -0.00031765   -0.02073256
     atom    7 type  1   force =     0.00000000    0.00000000    0.00000000
     atom    8 type  2   force =    -0.00070966    0.00091076    0.02007806
     atom    9 type  2   force =     0.00030972    0.00127783   -0.02088292
     atom   10 type  1   force =     0.00000000    0.00000000    0.00000000
     atom   11 type  2   force =    -0.00035248   -0.00045725    0.02063663
     atom   12 type  2   force =     0.00062290    0.00072975   -0.02067467
     atom   13 type  1   force =     0.00000000    0.00000000    0.00000000
     atom   14 type  2   force =     0.00005266    0.00007960    0.02060667
     atom   15 type  2   force =    -0.00009996    0.00001643   -0.02063063
     atom   16 type  1   force =     0.00000000    0.00000000    0.00000000
     atom   17 type  2   force =     0.00139874    0.00122259    0.01993532
     atom   18 type  2   force =    -0.00041262   -0.00036413   -0.02072942
     atom   19 type  1   force =     0.00000000    0.00000000    0.00000000
     atom   20 type  2   force =    -0.00010335    0.00074195   -0.02107555
     atom   21 type  1   force =     0.00000000    0.00000000    0.00000000
     atom   22 type  2   force =     0.00040935   -0.00037622    0.02065669
     atom   23 type  2   force =    -0.00071648    0.00065015   -0.02064359
     atom   24 type  1   force =     0.00000000    0.00000000    0.00000000
     atom   25 type  2   force =     0.00074355    0.00004234    0.02022512
     atom   26 type  2   force =    -0.00001768    0.00044904   -0.02106280
     atom   27 type  1   force =     0.00000000    0.00000000    0.00000000
     atom   28 type  2   force =     0.00020594    0.00019681   -0.01123352
     atom   29 type  2   force =     0.00007865    0.00043049   -0.02133121
     atom   30 type  1   force =     0.00000000    0.00000000    0.00000000
     atom   31 type  2   force =     0.00056513    0.00092398    0.02007262
     atom   32 type  2   force =    -0.00019299    0.00132134   -0.02084670
     atom   33 type  1   force =     0.00000000    0.00000000    0.00000000
     atom   34 type  2   force =    -0.00011323    0.00026325    0.02096757
     atom   35 type  2   force =     0.00006211    0.00102244   -0.02094508
     atom   36 type  3   force =     0.00000000    0.00000000    0.00000000
     The Hubbard contrib.    to forces
     atom    1 type  1   force =     0.00000000    0.00000000    0.00000000
     atom    2 type  2   force =     0.00000000    0.00000000    0.00000000
     atom    3 type  2   force =     0.00000000    0.00000000    0.00000000
     atom    4 type  1   force =     0.00000000    0.00000000    0.00000000
     atom    5 type  2   force =     0.00000000    0.00000000    0.00000000
     atom    6 type  2   force =     0.00000000    0.00000000    0.00000000
     atom    7 type  1   force =     0.00000000    0.00000000    0.00000000
     atom    8 type  2   force =     0.00000000    0.00000000    0.00000000
     atom    9 type  2   force =     0.00000000    0.00000000    0.00000000
     atom   10 type  1   force =     0.00000000    0.00000000    0.00000000
     atom   11 type  2   force =     0.00000000    0.00000000    0.00000000
     atom   12 type  2   force =     0.00000000    0.00000000    0.00000000
     atom   13 type  1   force =     0.00000000    0.00000000    0.00000000
     atom   14 type  2   force =     0.00000000    0.00000000    0.00000000
     atom   15 type  2   force =     0.00000000    0.00000000    0.00000000
     atom   16 type  1   force =     0.00000000    0.00000000    0.00000000
     atom   17 type  2   force =     0.00000000    0.00000000    0.00000000
     atom   18 type  2   force =     0.00000000    0.00000000    0.00000000
     atom   19 type  1   force =     0.00000000    0.00000000    0.00000000
     atom   20 type  2   force =     0.00000000    0.00000000    0.00000000
     atom   21 type  1   force =     0.00000000    0.00000000    0.00000000
     atom   22 type  2   force =     0.00000000    0.00000000    0.00000000
     atom   23 type  2   force =     0.00000000    0.00000000    0.00000000
     atom   24 type  1   force =     0.00000000    0.00000000    0.00000000
     atom   25 type  2   force =     0.00000000    0.00000000    0.00000000
     atom   26 type  2   force =     0.00000000    0.00000000    0.00000000
     atom   27 type  1   force =     0.00000000    0.00000000    0.00000000
     atom   28 type  2   force =     0.00000000    0.00000000    0.00000000
     atom   29 type  2   force =     0.00000000    0.00000000    0.00000000
     atom   30 type  1   force =     0.00000000    0.00000000    0.00000000
     atom   31 type  2   force =     0.00000000    0.00000000    0.00000000
     atom   32 type  2   force =     0.00000000    0.00000000    0.00000000
     atom   33 type  1   force =     0.00000000    0.00000000    0.00000000
     atom   34 type  2   force =     0.00000000    0.00000000    0.00000000
     atom   35 type  2   force =     0.00000000    0.00000000    0.00000000
     atom   36 type  3   force =     0.00000000    0.00000000    0.00000000
     The SCF correction term to forces
     atom    1 type  1   force =     0.00000412   -0.00004814    0.00000575
     atom    2 type  2   force =     0.00000775   -0.00001641    0.00000257
     atom    3 type  2   force =     0.00000213    0.00000883    0.00000470
     atom    4 type  1   force =     0.00001448   -0.00001311   -0.00007529
     atom    5 type  2   force =    -0.00001309   -0.00002730   -0.00000516
     atom    6 type  2   force =     0.00001093   -0.00001169   -0.00001474
     atom    7 type  1   force =     0.00000155    0.00004045   -0.00001899
     atom    8 type  2   force =     0.00000413    0.00002428   -0.00001970
     atom    9 type  2   force =     0.00001266    0.00000265   -0.00001833
     atom   10 type  1   force =     0.00001472    0.00003022    0.00002685
     atom   11 type  2   force =    -0.00000797    0.00002133    0.00000962
     atom   12 type  2   force =    -0.00000213    0.00000482   -0.00000800
     atom   13 type  1   force =    -0.00001592   -0.00004861    0.00005408
     atom   14 type  2   force =    -0.00001226   -0.00000864    0.00000618
     atom   15 type  2   force =     0.00000368   -0.00000198    0.00001138
     atom   16 type  1   force =     0.00000334   -0.00002991   -0.00000883
     atom   17 type  2   force =    -0.00001140   -0.00003028    0.00001820
     atom   18 type  2   force =    -0.00000514   -0.00001734   -0.00000848
     atom   19 type  1   force =    -0.00001224    0.00005212    0.00001140
     atom   20 type  2   force =     0.00000876    0.00000883   -0.00001805
     atom   21 type  1   force =    -0.00001521    0.00002204    0.00003629
     atom   22 type  2   force =    -0.00000049    0.00002446    0.00000732
     atom   23 type  2   force =     0.00000222    0.00000708    0.00000655
     atom   24 type  1   force =     0.00001457   -0.00004235    0.00000844
     atom   25 type  2   force =     0.00000227   -0.00000689    0.00000716
     atom   26 type  2   force =    -0.00000534    0.00000453    0.00001922
     atom   27 type  1   force =    -0.00001234   -0.00002306   -0.00001010
     atom   28 type  2   force =     0.00002000   -0.00003030   -0.00000892
     atom   29 type  2   force =    -0.00000576   -0.00000680   -0.00001610
     atom   30 type  1   force =     0.00000990    0.00003154   -0.00003444
     atom   31 type  2   force =     0.00000232    0.00001408   -0.00000217
     atom   32 type  2   force =    -0.00001992    0.00000788   -0.00001125
     atom   33 type  1   force =     0.00000360    0.00003369    0.00006050
     atom   34 type  2   force =     0.00000725    0.00002529    0.00000293
     atom   35 type  2   force =     0.00000038   -0.00000510    0.00000430
     atom   36 type  3   force =     0.00000290   -0.00000530    0.00000084

     Total force =     0.005992     Total SCF correction =     0.000212
     Energy error            =      7.8E-05 Ry
     Gradient error          =      1.5E-03 Ry/Bohr

     bfgs converged in  43 scf cycles and  42 bfgs steps
     (criteria: energy <  1.0E-04 Ry, force <  1.0E-02 Ry/Bohr)

     End of BFGS Geometry Optimization

     Final energy             =   -2205.5902831572 Ry

     File ./MoS2-V-O.bfgs deleted, as requested
Begin final coordinates

ATOMIC_POSITIONS (angstrom)
Mo            6.5639380167        1.7226366712        2.7460872243
S             8.1121046161        0.8008566568        4.3791702167
S             8.1440525264        0.7909098138        1.1726130865
Mo            8.0847676063        4.4765958060        2.7110313524
S             6.5015406044        3.6361109742        4.2937682523
S             6.5757471281        3.5149862725        1.0894631093
Mo            6.4872959567        7.1927103711        2.6691731682
S             8.0534776791        6.2918945345        4.3028029380
S             8.1289707780        6.2943722321        1.1118099673
Mo            8.1232951914        9.8987257651        2.7800591451
S             6.4975193126        8.9302395165        4.3460758179
S             6.5803148630        9.0164350697        1.1228822935
Mo            3.4111197690        1.7231098621        2.7558047343
S             4.9909035099        0.8054018837        4.3398763034
S             4.9824038670        0.8076779395        1.1599973850
Mo            4.9878829614        4.4592893612        2.6174975827
S             3.4814654405        3.6387807033        4.3040927757
S             3.4002791870        3.5118145596        1.0962566109
Mo            3.4979013049        7.1887978521        2.6855025733
S             4.9863358109        6.2812166116        1.0435212312
Mo            4.9888151448        9.8915646827        2.7362535477
S             3.4849593199        8.9328159701        4.3578481242
S             3.3943617998        9.0102782448        1.1375575757
Mo            0.2593464833        1.6574088729        2.7807797824
S             1.8602838113        0.8035436537        4.3887755977
S             1.8340178171        0.7861087769        1.1818202836
Mo            1.8951220807        4.4749299496        2.7215962047
S             0.2541080029        3.5770112445        4.2081201789
S             0.2658798983        3.5194160939        1.1787212133
Mo            0.2600953376        7.1720703242        2.7413463764
S             1.9200398545        6.2931754655        4.3102650900
S             1.8597187647        6.2940728991        1.1246731513
Mo            1.8527815645        9.8971252416        2.7919354534
S             0.2541336150        8.9772449918        4.3685394529
S             0.2640302179        9.0137011088        1.1912296406
H             0.2333371705        3.6265608785        5.5733924310
End final coordinates



     Writing all to output data dir ./MoS2-V-O.save/
 
     init_run     :      2.47s CPU      2.65s WALL (       1 calls)
     electrons    :   4234.02s CPU   4648.75s WALL (      43 calls)
     update_pot   :     58.77s CPU     61.23s WALL (      42 calls)
     forces       :     58.18s CPU     62.28s WALL (      43 calls)

     Called by init_run:
     wfcinit      :      0.39s CPU      0.43s WALL (       1 calls)
     potinit      :      1.36s CPU      1.44s WALL (       1 calls)
     hinit0       :      0.17s CPU      0.19s WALL (       1 calls)

     Called by electrons:
     c_bands      :    457.83s CPU    462.67s WALL (     380 calls)
     sum_band     :    123.32s CPU    134.70s WALL (     380 calls)
     v_of_rho     :    159.76s CPU    183.93s WALL (     408 calls)
     newd         :     65.97s CPU     73.89s WALL (     408 calls)
     mix_rho      :   3445.35s CPU   3809.28s WALL (     380 calls)

     Called by c_bands:
     init_us_2    :      8.38s CPU      8.65s WALL (     761 calls)
     init_us_2:cp :      8.38s CPU      8.64s WALL (     761 calls)
     regterg      :    429.97s CPU    434.54s WALL (     380 calls)

     Called by *egterg:
     rdiaghg      :     35.47s CPU     35.71s WALL (    2094 calls)
     h_psi        :    247.39s CPU    249.55s WALL (    2152 calls)
     s_psi        :     31.46s CPU     31.57s WALL (    2152 calls)
     g_psi        :      1.67s CPU      1.69s WALL (    1771 calls)

     Called by h_psi:
     h_psi:calbec :     34.58s CPU     34.73s WALL (    2152 calls)
     vloc_psi     :    178.00s CPU    179.83s WALL (    2152 calls)
     add_vuspsi   :     30.82s CPU     30.97s WALL (    2152 calls)

     General routines
     calbec       :     49.31s CPU     49.50s WALL (    2704 calls)
     fft          :    108.47s CPU    125.84s WALL (   27396 calls)
     ffts         :   1539.71s CPU   1891.56s WALL (  841746 calls)
     fftw         :    154.91s CPU    156.31s WALL (  228882 calls)
     interpolate  :      2.88s CPU      3.33s WALL (     408 calls)
 
     Parallel routines
 
     PWSCF        :      1h12m CPU      1h19m WALL

 
   This run was terminated on:  23:35:30   3Nov2023            

=------------------------------------------------------------------------------=
   JOB DONE.
=------------------------------------------------------------------------------=
