
     Program PWSCF v.7.2 starts on  4Nov2023 at  3:18:10 

     This program is part of the open-source Quantum ESPRESSO suite
     for quantum simulation of materials; please cite
         "P. Giannozzi et al., J. Phys.:Condens. Matter 21 395502 (2009);
         "P. Giannozzi et al., J. Phys.:Condens. Matter 29 465901 (2017);
         "P. Giannozzi et al., J. Chem. Phys. 152 154105 (2020);
          URL http://www.quantum-espresso.org", 
     in publications or presentations arising from this work. More details at
     http://www.quantum-espresso.org/quote

     Parallel version (MPI & OpenMP), running on      48 processor cores
     Number of MPI processes:                48
     Threads/MPI process:                     1

     MPI processes distributed on     1 nodes
     53277 MiB available memory on the printing compute node when the environment starts
 
     Waiting for input...
     Reading input from standard input
Warning: card &CELL ignored
Warning: card CELL_DYNAMICS = 'BFGS', ignored
Warning: card CELL_DOFREE = '2DXY' ignored
Warning: card / ignored

     Current dimensions of program PWSCF are:
     Max number of different atomic species (ntypx) = 10
     Max number of k-points (npk) =  40000
     Max angular momentum in pseudopotentials (lmaxx) =  4

     IMPORTANT: XC functional enforced from input :
     Exchange-correlation= RVV10
                           (   1   4  13   4  26   0   0)
     Any further DFT definition will be discarded
     Please, verify this is what you really want


     gamma-point specific algorithms are used
     signal trapping enabled: kill the code with -SIGUSR1 to stop cleanly the simulation 
 
     R & G space division:  proc/nbgrp/npool/nimage =      48
     Subspace diagonalization in iterative solution of the eigenvalue problem:
     one sub-group per band group will be used
     scalapack distributed-memory algorithm (size of sub-group:  2*  2 procs)

 
     Parallelization info
     --------------------
     sticks:   dense  smooth     PW     G-vecs:    dense   smooth      PW
     Min         243     194     47                49060    35090    4376
     Max         246     196     50                49086    35128    4410
     Sum       11735    9389   2349              2355467  1685513  210763
 
     Using Slab Decomposition
 


     bravais-lattice index     =            0
     lattice parameter (alat)  =      17.8707  a.u.
     unit-cell volume          =   17436.2743 (a.u.)^3
     number of atoms/cell      =           36
     number of atomic types    =            3
     number of electrons       =       307.00
     number of Kohn-Sham states=          185
     kinetic-energy cutoff     =      80.0000  Ry
     charge density cutoff     =     400.0000  Ry
     scf convergence threshold =      1.0E-06
     mixing beta               =       0.7000
     number of iterations used =            8  local-TF  mixing
     energy convergence thresh.=      1.0E-04
     force convergence thresh. =      1.0E-02
     Exchange-correlation= RVV10
                           (   1   4  13   4  26   0   0)
     nstep                     =          200


     celldm(1)=  17.870686  celldm(2)=   0.000000  celldm(3)=   0.000000
     celldm(4)=   0.000000  celldm(5)=   0.000000  celldm(6)=   0.000000

     crystal axes: (cart. coord. in units of alat)
               a(1) = (   1.000000   0.000000   0.000000 )  
               a(2) = (   0.000000   1.155671   0.000000 )  
               a(3) = (   0.000000   0.000000   2.643601 )  

     reciprocal axes: (cart. coord. in units 2 pi/alat)
               b(1) = (  1.000000  0.000000  0.000000 )  
               b(2) = (  0.000000  0.865298  0.000000 )  
               b(3) = (  0.000000  0.000000  0.378272 )  


     PseudoPot. # 1 for Mo read from file:
     ../pseudo/Mo_ONCV_PBE-1.0.oncvpsp.upf
     MD5 check sum: 1b5d28e075c9ccadda658a603575cd1f
     Pseudo is Norm-conserving, Zval = 14.0
     Generated using ONCVPSP code by D. R. Hamann
     Using radial grid of 1526 points,  6 beta functions with: 
                l(1) =   0
                l(2) =   0
                l(3) =   1
                l(4) =   1
                l(5) =   2
                l(6) =   2

     PseudoPot. # 2 for S  read from file:
     ../pseudo/s_pbe_v1.4.uspp.F.UPF
     MD5 check sum: 88d86576ff6df21479756cfb9bdac1df
     Pseudo is Ultrasoft + core correction, Zval =  6.0
     Generated by new atomic code, or converted to UPF format
     Using radial grid of  907 points,  6 beta functions with: 
                l(1) =   0
                l(2) =   0
                l(3) =   1
                l(4) =   1
                l(5) =   2
                l(6) =   2
     Q(r) pseudized with  8 coefficients,  rinner =    1.300   1.300   1.300
                                                       1.300   1.300

     PseudoPot. # 3 for H  read from file:
     ../pseudo/H_ONCV_PBE-1.0.oncvpsp.upf
     MD5 check sum: 1790becc920ee074925cf490c71280fe
     Pseudo is Norm-conserving, Zval =  1.0
     Generated using ONCVPSP code by D. R. Hamann
     Using radial grid of 1166 points,  2 beta functions with: 
                l(1) =   0
                l(2) =   0

     atomic species   valence    mass     pseudopotential
        Mo            14.00    95.94000     Mo( 1.00)
        S              6.00    32.06500     S ( 1.00)
        H              1.00     1.00794     H ( 1.00)

     No symmetry found



   Cartesian axes

     site n.     atom                  positions (alat units)
         1           Mo  tau(   1) = (   0.6952221   0.1890506   0.2985846  )
         2           S   tau(   2) = (   0.8646417   0.0856217   0.4689279  )
         3           S   tau(   3) = (   0.8663890   0.0857843   0.1351291  )
         4           Mo  tau(   4) = (   0.8560186   0.4753274   0.2873942  )
         5           S   tau(   5) = (   0.6873294   0.3936244   0.4596353  )
         6           S   tau(   6) = (   0.6929804   0.3713468   0.1185692  )
         7           Mo  tau(   7) = (   0.6862796   0.7633098   0.2825370  )
         8           S   tau(   8) = (   0.8545980   0.6708292   0.4486168  )
         9           S   tau(   9) = (   0.8545123   0.6666874   0.1146125  )
        10           Mo  tau(  10) = (   0.8629403   1.0471007   0.3006803  )
        11           S   tau(  11) = (   0.6868280   0.9456650   0.4634891  )
        12           S   tau(  12) = (   0.6998113   0.9568511   0.1205389  )
        13           Mo  tau(  13) = (   0.3618216   0.1847309   0.2935964  )
        14           S   tau(  14) = (   0.5260962   0.0863870   0.4600448  )
        15           S   tau(  15) = (   0.5348379   0.0894875   0.1297123  )
        16           Mo  tau(  16) = (   0.5265817   0.4772436   0.2784130  )
        17           S   tau(  17) = (   0.3624753   0.3882513   0.4525556  )
        18           S   tau(  18) = (   0.3635411   0.3752055   0.1119148  )
        19           Mo  tau(  19) = (   0.3652268   0.7630864   0.2781795  )
        20           S   tau(  20) = (   0.5269494   0.6690381   0.1096838  )
        21           Mo  tau(  21) = (   0.5300192   1.0470394   0.2900995  )
        22           S   tau(  22) = (   0.3670346   0.9457522   0.4574073  )
        23           S   tau(  23) = (   0.3604225   0.9585725   0.1159032  )
        24           Mo  tau(  24) = (   0.0313099   0.1847895   0.3013130  )
        25           S   tau(  25) = (   0.1956761   0.0838230   0.4650863  )
        26           S   tau(  26) = (   0.1967693   0.0903508   0.1278874  )
        27           Mo  tau(  27) = (   0.1967578   0.4753919   0.2813011  )
        28           S   tau(  28) = (   0.0287851   0.3864324   0.4586755  )
        29           S   tau(  29) = (   0.0244514   0.3729871   0.1239344  )
        30           Mo  tau(  30) = (   0.0286728   0.7631204   0.2856894  )
        31           S   tau(  31) = (   0.2011512   0.6675435   0.4465001  )
        32           S   tau(  32) = (   0.1969214   0.6672839   0.1104564  )
        33           Mo  tau(  33) = (   0.1950294   1.0511147   0.2932237  )
        34           S   tau(  34) = (   0.0312912   0.9612169   0.4667423  )
        35           S   tau(  35) = (   0.0292670   0.9563028   0.1216485  )
        36           H   tau(  36) = (   0.8888889   0.5136314   0.5407634  )

     number of k points=     1  Gaussian smearing, width (Ry)=  0.0100
                       cart. coord. in units 2pi/alat
        k(    1) = (   0.0000000   0.0000000   0.0000000), wk =   2.0000000

     Dense  grid:  1177734 G-vectors     FFT dimensions: ( 120, 135, 320)

     Smooth grid:   842757 G-vectors     FFT dimensions: ( 108, 120, 270)

     Estimated max dynamical RAM per process >     146.59 MB

     Estimated total dynamical RAM >       6.87 GB

     Initial potential from superposition of free atoms

     starting charge     306.9873, renormalised to     307.0000

     negative rho (up, down):  1.416E-04 0.000E+00


---------------------------------------------------------------------------------
Carrying out rVV10 run using the following parameters:
Nqs =      20    Nr_points =    1024   r_max =   100.000
b_value =  6.30000    beta =  0.00901
     q_mesh =  0.00010000  0.00030000  0.00058939  0.00100810
               0.00161396  0.00249058  0.00375900  0.00559430
               0.00824984  0.01209221  0.01765183  0.02569619
               0.03733578  0.05417739  0.07854596  0.11380545
               0.16482331  0.23864234  0.34545298  0.50000000

Gradients computed in Reciprocal space

---------------------------------------------------------------------------------


     Starting wfcs are  213 randomized atomic wfcs

     total cpu time spent up to now is        3.5 secs

     Self-consistent Calculation

     iteration #  1     ecut=    80.00 Ry     beta= 0.70
     Davidson diagonalization with overlap
     ethr =  1.00E-02,  avg # of iterations =  2.0

     Threshold (ethr) on eigenvalues was too large:
     Diagonalizing with lowered threshold

     Davidson diagonalization with overlap
     ethr =  3.70E-04,  avg # of iterations =  4.0

     negative rho (up, down):  2.526E-08 0.000E+00

     total cpu time spent up to now is       19.1 secs

     total energy              =   -2205.58318459 Ry
     estimated scf accuracy    <       1.43058886 Ry

     iteration #  2     ecut=    80.00 Ry     beta= 0.70
     Davidson diagonalization with overlap
     ethr =  4.66E-04,  avg # of iterations =  2.0

     total cpu time spent up to now is       21.5 secs

     total energy              =   -2205.42059630 Ry
     estimated scf accuracy    <       0.57532669 Ry

     iteration #  3     ecut=    80.00 Ry     beta= 0.70
     Davidson diagonalization with overlap
     ethr =  1.87E-04,  avg # of iterations =  5.0

     total cpu time spent up to now is       24.1 secs

     total energy              =   -2205.51270480 Ry
     estimated scf accuracy    <       0.05872652 Ry

     iteration #  4     ecut=    80.00 Ry     beta= 0.70
     Davidson diagonalization with overlap
     c_bands:  1 eigenvalues not converged
     ethr =  1.91E-05,  avg # of iterations = 20.0

     total cpu time spent up to now is       27.5 secs

     total energy              =   -2205.51612217 Ry
     estimated scf accuracy    <       0.02855467 Ry

     iteration #  5     ecut=    80.00 Ry     beta= 0.70
     Davidson diagonalization with overlap
     ethr =  9.30E-06,  avg # of iterations =  2.0

     total cpu time spent up to now is       29.7 secs

     total energy              =   -2205.51554970 Ry
     estimated scf accuracy    <       0.01865132 Ry

     iteration #  6     ecut=    80.00 Ry     beta= 0.70
     Davidson diagonalization with overlap
     ethr =  6.08E-06,  avg # of iterations =  1.0

     total cpu time spent up to now is       31.8 secs

     total energy              =   -2205.51485314 Ry
     estimated scf accuracy    <       0.01130616 Ry

     iteration #  7     ecut=    80.00 Ry     beta= 0.70
     Davidson diagonalization with overlap
     ethr =  3.68E-06,  avg # of iterations =  2.0

     total cpu time spent up to now is       34.0 secs

     total energy              =   -2205.51335790 Ry
     estimated scf accuracy    <       0.00783076 Ry

     iteration #  8     ecut=    80.00 Ry     beta= 0.70
     Davidson diagonalization with overlap
     ethr =  2.55E-06,  avg # of iterations =  8.0

     negative rho (up, down):  3.176E-03 0.000E+00

     total cpu time spent up to now is       38.3 secs

     total energy              =   -2205.51262620 Ry
     estimated scf accuracy    <       0.00415114 Ry

     iteration #  9     ecut=    80.00 Ry     beta= 0.70
     Davidson diagonalization with overlap
     ethr =  1.35E-06,  avg # of iterations =  2.0

     negative rho (up, down):  1.597E-02 0.000E+00

     total cpu time spent up to now is       43.1 secs

     total energy              =   -2205.51240189 Ry
     estimated scf accuracy    <       0.00252401 Ry

     iteration # 10     ecut=    80.00 Ry     beta= 0.70
     Davidson diagonalization with overlap
     ethr =  8.22E-07,  avg # of iterations =  1.0

     negative rho (up, down):  3.023E-02 0.000E+00

     total cpu time spent up to now is       47.4 secs

     total energy              =   -2205.51250625 Ry
     estimated scf accuracy    <       0.00141120 Ry

     iteration # 11     ecut=    80.00 Ry     beta= 0.70
     Davidson diagonalization with overlap
     ethr =  4.60E-07,  avg # of iterations =  2.0

     negative rho (up, down):  2.073E-02 0.000E+00

     total cpu time spent up to now is       53.1 secs

     total energy              =   -2205.51258810 Ry
     estimated scf accuracy    <       0.00039218 Ry

     iteration # 12     ecut=    80.00 Ry     beta= 0.70
     Davidson diagonalization with overlap
     ethr =  1.28E-07,  avg # of iterations =  9.0

     negative rho (up, down):  6.401E-03 0.000E+00

     total cpu time spent up to now is       60.2 secs

     total energy              =   -2205.51266143 Ry
     estimated scf accuracy    <       0.00005354 Ry

     iteration # 13     ecut=    80.00 Ry     beta= 0.70
     Davidson diagonalization with overlap
     ethr =  1.74E-08,  avg # of iterations =  5.0

     negative rho (up, down):  1.550E-03 0.000E+00

     total cpu time spent up to now is       66.6 secs

     total energy              =   -2205.51267903 Ry
     estimated scf accuracy    <       0.00000631 Ry

     iteration # 14     ecut=    80.00 Ry     beta= 0.70
     Davidson diagonalization with overlap
     ethr =  2.05E-09,  avg # of iterations =  5.0

     negative rho (up, down):  2.588E-04 0.000E+00

     total cpu time spent up to now is       75.2 secs

     total energy              =   -2205.51268216 Ry
     estimated scf accuracy    <       0.00000141 Ry

     iteration # 15     ecut=    80.00 Ry     beta= 0.70
     Davidson diagonalization with overlap
     ethr =  4.58E-10,  avg # of iterations =  4.0

     negative rho (up, down):  1.374E-04 0.000E+00

     total cpu time spent up to now is       77.4 secs

     End of self-consistent calculation

          k = 0.0000 0.0000 0.0000 (105382 PWs)   bands (ev):

   -62.9064 -62.8724 -62.8614 -62.8440 -62.8343 -62.8257 -62.8253 -62.8003
   -62.7908 -62.7129 -62.6761 -62.6288 -37.2208 -37.1686 -37.1464 -37.1198
   -37.1143 -37.1045 -37.0887 -37.0722 -37.0692 -37.0630 -37.0499 -37.0405
   -37.0374 -37.0240 -37.0167 -37.0086 -37.0036 -36.9960 -36.9923 -36.9848
   -36.9705 -36.9459 -36.9256 -36.9119 -36.8977 -36.8814 -36.8653 -36.8523
   -36.8417 -36.8353 -36.8211 -36.8074 -36.7954 -36.7812 -36.6793 -36.6215
   -16.0555 -15.4143 -15.1809 -14.9999 -14.9431 -14.8216 -14.6163 -14.5457
   -14.4612 -14.4295 -14.3789 -14.3391 -14.3025 -14.2627 -14.1797 -14.1500
   -14.1094 -14.0969 -14.0084 -13.9189 -13.8298 -13.8108 -13.7815  -8.5299
    -7.5972  -7.4035  -7.3457  -7.2551  -7.2262  -7.1716  -7.1277  -7.0949
    -6.8214  -6.8017  -6.7613  -6.6738  -6.5759  -6.5389  -6.4230  -6.4016
    -6.2505  -6.2403  -6.0347  -5.9914  -5.9426  -5.9019  -5.8562  -5.7445
    -5.7333  -5.7102  -5.6635  -5.6565  -5.6055  -5.5854  -5.5315  -5.4608
    -5.4461  -5.4198  -5.1931  -5.1441  -5.0630  -5.0341  -4.9552  -4.9383
    -4.9100  -4.8427  -4.6734  -4.5144  -4.3188  -4.3077  -4.2584  -4.2292
    -4.2201  -4.0261  -4.0050  -3.8630  -3.8223  -3.7731  -3.7298  -3.7013
    -3.6765  -3.5803  -3.5280  -3.4999  -3.4860  -3.4639  -3.4308  -3.4018
    -3.3422  -3.2201  -3.1350  -2.8827  -2.8730  -2.7971  -2.7665  -2.7262
    -2.7132  -2.6825  -2.6483  -2.5933  -2.5554  -2.2675  -2.0420  -1.9883
    -1.9688  -0.8456  -0.7408  -0.5444  -0.1630  -0.1362  -0.1148  -0.0630
     0.0911   0.1440   0.2163   0.2649   0.2684   0.3293   0.3641   0.4523
     0.4582   0.5251   0.5438   0.6180   0.6237   0.6485   0.7311   0.7470
     0.8015   0.8200   0.8281   0.8788   0.9568   1.0134   1.0555   1.1825
     1.3752

     the Fermi energy is    -0.8682 ev

!    total energy              =   -2205.51268369 Ry
     estimated scf accuracy    <       0.00000028 Ry
     smearing contrib. (-TS)   =      -0.00785450 Ry
     internal energy E=F+TS    =   -2205.50482919 Ry

     The total energy is F=E-TS. E is the sum of the following terms:
     one-electron contribution =  -18053.54686444 Ry
     hartree contribution      =    9013.62050037 Ry
     xc contribution           =    -385.27350431 Ry
     ewald contribution        =    7219.69503920 Ry

     convergence has been achieved in  15 iterations

     negative rho (up, down):  1.374E-04 0.000E+00

     Forces acting on atoms (cartesian axes, Ry/au):

     atom    1 type  1   force =     0.01479546   -0.02066535    0.00659375
     atom    2 type  2   force =    -0.01489362    0.01473462   -0.00083936
     atom    3 type  2   force =    -0.01144908    0.00994588   -0.00389611
     atom    4 type  1   force =    -0.00863554   -0.01767530   -0.04148132
     atom    5 type  2   force =    -0.00684636   -0.00915867   -0.00004139
     atom    6 type  2   force =     0.00334139    0.01298626    0.00051665
     atom    7 type  1   force =    -0.00333951   -0.01426122   -0.01033171
     atom    8 type  2   force =     0.00993862   -0.02117814    0.05811327
     atom    9 type  2   force =     0.01265875    0.00447403    0.01015027
     atom   10 type  1   force =    -0.01186174    0.00370739   -0.02345604
     atom   11 type  2   force =     0.00516542    0.00075001   -0.00659884
     atom   12 type  2   force =    -0.00318959    0.00164030    0.00392535
     atom   13 type  1   force =     0.00471738    0.00600120   -0.00683931
     atom   14 type  2   force =     0.00798186   -0.00013865    0.01156495
     atom   15 type  2   force =    -0.01204157    0.00194354   -0.00907862
     atom   16 type  1   force =     0.01323174    0.00865562   -0.00400521
     atom   17 type  2   force =     0.00647501    0.00113522   -0.00016809
     atom   18 type  2   force =    -0.00636596   -0.00734036    0.01488815
     atom   19 type  1   force =     0.00212992    0.00486245   -0.00605540
     atom   20 type  2   force =     0.00426330   -0.00599047    0.00241720
     atom   21 type  1   force =    -0.00858281    0.00512910   -0.00115048
     atom   22 type  2   force =    -0.00204353   -0.00221115   -0.00026650
     atom   23 type  2   force =    -0.00005822    0.00254404    0.01023669
     atom   24 type  1   force =    -0.01184303   -0.00657469   -0.02336971
     atom   25 type  2   force =     0.01703224    0.01841378    0.00716522
     atom   26 type  2   force =    -0.01148399   -0.00110987   -0.00340730
     atom   27 type  1   force =    -0.00684067   -0.00145745    0.01003091
     atom   28 type  2   force =     0.00535456    0.00077348    0.00950570
     atom   29 type  2   force =     0.00244119    0.00031115   -0.00432692
     atom   30 type  1   force =     0.00099015    0.00345374    0.00301666
     atom   31 type  2   force =     0.00529368    0.00282492    0.01490219
     atom   32 type  2   force =    -0.01064451    0.00279657    0.00821268
     atom   33 type  1   force =     0.01383967   -0.00614920   -0.00944643
     atom   34 type  2   force =     0.00351948   -0.04033082   -0.01076033
     atom   35 type  2   force =    -0.00787766    0.00845108    0.01499447
     atom   36 type  3   force =     0.00482757    0.03870697   -0.02071503
     The non-local contrib.  to forces
     atom    1 type  1   force =    -0.00280211    0.02813236   -0.01061102
     atom    2 type  2   force =    -0.01055720   -0.00027954   -0.27283802
     atom    3 type  2   force =    -0.01188883   -0.00147015    0.27068656
     atom    4 type  1   force =    -0.00529346    0.00507572   -0.00780644
     atom    5 type  2   force =     0.01002327   -0.02977878   -0.23061611
     atom    6 type  2   force =     0.00176361    0.01275696    0.26450808
     atom    7 type  1   force =    -0.03052029   -0.01128783   -0.01376150
     atom    8 type  2   force =     0.04945561   -0.17634059   -0.09275624
     atom    9 type  2   force =     0.00977602   -0.01404550    0.27829174
     atom   10 type  1   force =     0.00450871    0.00476969   -0.00170404
     atom   11 type  2   force =     0.01263636    0.00851849   -0.25721343
     atom   12 type  2   force =    -0.01336942   -0.01622529    0.26291620
     atom   13 type  1   force =     0.00145492    0.01971684   -0.00700658
     atom   14 type  2   force =     0.01031578   -0.00912066   -0.26288428
     atom   15 type  2   force =    -0.01314627   -0.00501472    0.26065377
     atom   16 type  1   force =    -0.00049774    0.03565847   -0.01605398
     atom   17 type  2   force =     0.00192141   -0.02942720   -0.24886753
     atom   18 type  2   force =    -0.00407641   -0.00170876    0.27444194
     atom   19 type  1   force =     0.02273521   -0.00679704   -0.00577537
     atom   20 type  2   force =     0.00404800   -0.02036334    0.26605501
     atom   21 type  1   force =    -0.00071418    0.02086974    0.00457857
     atom   22 type  2   force =    -0.00850607    0.00542068   -0.25789382
     atom   23 type  2   force =     0.00527567   -0.01357442    0.26779915
     atom   24 type  1   force =     0.00560979    0.01247610   -0.01461921
     atom   25 type  2   force =     0.01133536    0.00664297   -0.25888438
     atom   26 type  2   force =    -0.00302140   -0.01492968    0.26331072
     atom   27 type  1   force =     0.00106860    0.00828770    0.00864008
     atom   28 type  2   force =    -0.05401423    0.02478046   -0.20090981
     atom   29 type  2   force =     0.00549906    0.00255470    0.26627522
     atom   30 type  1   force =     0.00753507    0.01559750    0.00338895
     atom   31 type  2   force =    -0.01100804    0.00065202   -0.25183073
     atom   32 type  2   force =    -0.01105556   -0.01263977    0.27415480
     atom   33 type  1   force =    -0.00204079    0.00896504    0.00531214
     atom   34 type  2   force =    -0.00256024   -0.03650995   -0.27116765
     atom   35 type  2   force =    -0.00207048   -0.01228732    0.27161364
     atom   36 type  3   force =     0.00082812    0.01051952   -0.01375768
     The ionic contribution  to forces
     atom    1 type  1   force =     0.25189198   -0.01796085    5.58094266
     atom    2 type  2   force =    -0.67243656    0.26930397   39.27648566
     atom    3 type  2   force =    -0.16628725   -0.02272366  -36.10184556
     atom    4 type  1   force =    -0.06362564    0.39547989   -0.48263401
     atom    5 type  2   force =    -1.42610291    1.21092414   38.57995753
     atom    6 type  2   force =     0.30383830   -0.53785869  -38.09834750
     atom    7 type  1   force =    -2.80704662   -2.50959322    2.36903795
     atom    8 type  2   force =    -1.18182123    0.94105607   36.88037331
     atom    9 type  2   force =     0.33170718    0.01503010  -38.10596292
     atom   10 type  1   force =    -1.10875096   -0.25923900    5.65005297
     atom   11 type  2   force =    -0.61169720   -1.51408707   39.14241344
     atom   12 type  2   force =     0.42791849    0.72022661  -37.85842132
     atom   13 type  1   force =     0.49873455    0.87712564    2.84551362
     atom   14 type  2   force =     0.02561169   -0.06164673   38.52856215
     atom   15 type  2   force =     0.14458989   -0.08668449  -36.80061118
     atom   16 type  1   force =    -0.22365655    3.91638958    0.32855042
     atom   17 type  2   force =     0.83778076    1.45163246   37.92514275
     atom   18 type  2   force =    -0.15544210   -0.66451688  -38.58398408
     atom   19 type  1   force =     2.73972060   -2.33258839    0.61930044
     atom   20 type  2   force =     0.20289202   -0.17220257  -38.50601004
     atom   21 type  1   force =    -0.00007388    0.08016469    1.18963289
     atom   22 type  2   force =     0.46369040   -1.67326193   38.44429019
     atom   23 type  2   force =    -0.08390773    0.68280776  -38.27968272
     atom   24 type  1   force =    -0.43204941    0.85357784    5.69719314
     atom   25 type  2   force =     0.70071165    0.21706748   39.27774051
     atom   26 type  2   force =    -0.27320901    0.03964761  -37.33181892
     atom   27 type  1   force =     0.31039095    0.35992339   -2.48471530
     atom   28 type  2   force =     0.62721173    0.47218928   37.88717461
     atom   29 type  2   force =    -0.22877932   -0.47210102  -37.35946941
     atom   30 type  1   force =    -0.16582087   -0.56123332   -0.30392900
     atom   31 type  2   force =     1.41679620    0.06307343   37.28205313
     atom   32 type  2   force =    -0.44691834    0.02252353  -38.67345407
     atom   33 type  1   force =     0.84218050   -0.82407244    2.08444701
     atom   34 type  2   force =     0.27708090   -1.34517795   39.35627869
     atom   35 type  2   force =    -0.28822514    0.50779823  -37.82272078
     atom   36 type  3   force =    -0.06689706   -0.04099353    7.84846373
     The local contribution  to forces
     atom    1 type  1   force =    -0.23440795   -0.03078599   -5.56301423
     atom    2 type  2   force =     0.66786419   -0.25425693  -39.02502772
     atom    3 type  2   force =     0.16620428    0.03416352   35.84840789
     atom    4 type  1   force =     0.06024602   -0.41824005    0.44948723
     atom    5 type  2   force =     1.41033638   -1.19178671  -38.36816984
     atom    6 type  2   force =    -0.30240471    0.53929090   37.85552502
     atom    7 type  1   force =     2.83435792    2.50674918   -2.36500061
     atom    8 type  2   force =     1.14504043   -0.79658157  -36.74039230
     atom    9 type  2   force =    -0.32853882    0.00270242   37.85907802
     atom   10 type  1   force =     1.09241734    0.25810727   -5.67102987
     atom   11 type  2   force =     0.60494693    1.50696300  -38.91201034
     atom   12 type  2   force =    -0.41891058   -0.70373095   37.62045623
     atom   13 type  1   force =    -0.49538020   -0.89076783   -2.84461376
     atom   14 type  2   force =    -0.02738124    0.07069105  -38.27442323
     atom   15 type  2   force =    -0.14418919    0.09335487   36.55164526
     atom   16 type  1   force =     0.23735249   -3.94363870   -0.31588870
     atom   17 type  2   force =    -0.83323996   -1.42263065  -37.69637034
     atom   18 type  2   force =     0.15308458    0.65947873   38.34570901
     atom   19 type  1   force =    -2.76046203    2.34427318   -0.61905092
     atom   20 type  2   force =    -0.20259752    0.18575513   38.26371056
     atom   21 type  1   force =    -0.00770903   -0.09588507   -1.19463133
     atom   22 type  2   force =    -0.45750722    1.66629038  -38.20674647
     atom   23 type  2   force =     0.07902474   -0.66784411   38.04313699
     atom   24 type  1   force =     0.41458849   -0.87269223   -5.70513893
     atom   25 type  2   force =    -0.69488275   -0.20477776  -39.03195569
     atom   26 type  2   force =     0.26486752   -0.02663867   37.08617979
     atom   27 type  1   force =    -0.31824420   -0.36963827    2.48674710
     atom   28 type  2   force =    -0.57128834   -0.49492131  -37.69321926
     atom   29 type  2   force =     0.22623888    0.47049231   37.10979629
     atom   30 type  1   force =     0.15927202    0.54910711    0.30418461
     atom   31 type  2   force =    -1.40130848   -0.06102104  -37.03543051
     atom   32 type  2   force =     0.44699399   -0.00786793   38.42870082
     atom   33 type  1   force =    -0.82639046    0.80894530   -2.09850026
     atom   34 type  2   force =    -0.27153678    1.34021992  -39.11657649
     atom   35 type  2   force =     0.28250814   -0.48815961   37.58744676
     atom   36 type  3   force =     0.07090298    0.06917790   -7.85536409
     The core correction contribution to forces
     atom    1 type  1   force =     0.00000000    0.00000000    0.00000000
     atom    2 type  2   force =     0.00024503   -0.00006896    0.02085305
     atom    3 type  2   force =     0.00052256   -0.00004203   -0.02091429
     atom    4 type  1   force =     0.00000000    0.00000000    0.00000000
     atom    5 type  2   force =    -0.00118788    0.00144222    0.01901371
     atom    6 type  2   force =     0.00006882   -0.00117304   -0.02093510
     atom    7 type  1   force =     0.00000000    0.00000000    0.00000000
     atom    8 type  2   force =    -0.00271761    0.01075928    0.01120164
     atom    9 type  2   force =    -0.00028785    0.00080036   -0.02109270
     atom   10 type  1   force =     0.00000000    0.00000000    0.00000000
     atom   11 type  2   force =    -0.00069155   -0.00060024    0.02048689
     atom   12 type  2   force =     0.00116933    0.00133491   -0.02080350
     atom   13 type  1   force =     0.00000000    0.00000000    0.00000000
     atom   14 type  2   force =    -0.00056290   -0.00006827    0.02064694
     atom   15 type  2   force =     0.00070240    0.00030142   -0.02054780
     atom   16 type  1   force =     0.00000000    0.00000000    0.00000000
     atom   17 type  2   force =     0.00005075    0.00153687    0.02015989
     atom   18 type  2   force =     0.00013534   -0.00054040   -0.02106101
     atom   19 type  1   force =     0.00000000    0.00000000    0.00000000
     atom   20 type  2   force =    -0.00008194    0.00077487   -0.02120343
     atom   21 type  1   force =     0.00000000    0.00000000    0.00000000
     atom   22 type  2   force =     0.00027377   -0.00059077    0.02042752
     atom   23 type  2   force =    -0.00045955    0.00114274   -0.02085747
     atom   24 type  1   force =     0.00000000    0.00000000    0.00000000
     atom   25 type  2   force =    -0.00013978   -0.00053878    0.02059465
     atom   26 type  2   force =    -0.00010986    0.00078721   -0.02086651
     atom   27 type  1   force =     0.00000000    0.00000000    0.00000000
     atom   28 type  2   force =     0.00348698   -0.00130950    0.01677199
     atom   29 type  2   force =    -0.00051015   -0.00060297   -0.02074339
     atom   30 type  1   force =     0.00000000    0.00000000    0.00000000
     atom   31 type  2   force =     0.00076737    0.00011143    0.02038182
     atom   32 type  2   force =     0.00033399    0.00077431   -0.02103332
     atom   33 type  1   force =     0.00000000    0.00000000    0.00000000
     atom   34 type  2   force =     0.00051335    0.00117540    0.02100346
     atom   35 type  2   force =    -0.00007782    0.00107689   -0.02113423
     atom   36 type  3   force =     0.00000000    0.00000000    0.00000000
     The Hubbard contrib.    to forces
     atom    1 type  1   force =     0.00000000    0.00000000    0.00000000
     atom    2 type  2   force =     0.00000000    0.00000000    0.00000000
     atom    3 type  2   force =     0.00000000    0.00000000    0.00000000
     atom    4 type  1   force =     0.00000000    0.00000000    0.00000000
     atom    5 type  2   force =     0.00000000    0.00000000    0.00000000
     atom    6 type  2   force =     0.00000000    0.00000000    0.00000000
     atom    7 type  1   force =     0.00000000    0.00000000    0.00000000
     atom    8 type  2   force =     0.00000000    0.00000000    0.00000000
     atom    9 type  2   force =     0.00000000    0.00000000    0.00000000
     atom   10 type  1   force =     0.00000000    0.00000000    0.00000000
     atom   11 type  2   force =     0.00000000    0.00000000    0.00000000
     atom   12 type  2   force =     0.00000000    0.00000000    0.00000000
     atom   13 type  1   force =     0.00000000    0.00000000    0.00000000
     atom   14 type  2   force =     0.00000000    0.00000000    0.00000000
     atom   15 type  2   force =     0.00000000    0.00000000    0.00000000
     atom   16 type  1   force =     0.00000000    0.00000000    0.00000000
     atom   17 type  2   force =     0.00000000    0.00000000    0.00000000
     atom   18 type  2   force =     0.00000000    0.00000000    0.00000000
     atom   19 type  1   force =     0.00000000    0.00000000    0.00000000
     atom   20 type  2   force =     0.00000000    0.00000000    0.00000000
     atom   21 type  1   force =     0.00000000    0.00000000    0.00000000
     atom   22 type  2   force =     0.00000000    0.00000000    0.00000000
     atom   23 type  2   force =     0.00000000    0.00000000    0.00000000
     atom   24 type  1   force =     0.00000000    0.00000000    0.00000000
     atom   25 type  2   force =     0.00000000    0.00000000    0.00000000
     atom   26 type  2   force =     0.00000000    0.00000000    0.00000000
     atom   27 type  1   force =     0.00000000    0.00000000    0.00000000
     atom   28 type  2   force =     0.00000000    0.00000000    0.00000000
     atom   29 type  2   force =     0.00000000    0.00000000    0.00000000
     atom   30 type  1   force =     0.00000000    0.00000000    0.00000000
     atom   31 type  2   force =     0.00000000    0.00000000    0.00000000
     atom   32 type  2   force =     0.00000000    0.00000000    0.00000000
     atom   33 type  1   force =     0.00000000    0.00000000    0.00000000
     atom   34 type  2   force =     0.00000000    0.00000000    0.00000000
     atom   35 type  2   force =     0.00000000    0.00000000    0.00000000
     atom   36 type  3   force =     0.00000000    0.00000000    0.00000000
     The SCF correction term to forces
     atom    1 type  1   force =     0.00011400   -0.00005412   -0.00070543
     atom    2 type  2   force =    -0.00000862    0.00003282   -0.00029409
     atom    3 type  2   force =     0.00000061    0.00001493   -0.00021247
     atom    4 type  1   force =     0.00003800    0.00000589   -0.00050986
     atom    5 type  2   force =     0.00008524    0.00003720   -0.00020844
     atom    6 type  2   force =     0.00007582   -0.00003314   -0.00021561
     atom    7 type  1   force =    -0.00013006   -0.00013262   -0.00058931
     atom    8 type  2   force =    -0.00001813   -0.00007459   -0.00029490
     atom    9 type  2   force =     0.00000268   -0.00001661   -0.00014563
     atom   10 type  1   force =    -0.00003637    0.00006617   -0.00075686
     atom   11 type  2   force =    -0.00002866   -0.00004744   -0.00025715
     atom   12 type  2   force =     0.00000305    0.00003176   -0.00020402
     atom   13 type  1   force =    -0.00009144   -0.00007672   -0.00071435
     atom   14 type  2   force =    -0.00000102    0.00000270   -0.00031839
     atom   15 type  2   force =     0.00000206   -0.00001680   -0.00020043
     atom   16 type  1   force =     0.00003399    0.00024302   -0.00059471
     atom   17 type  2   force =    -0.00003750    0.00002047   -0.00021462
     atom   18 type  2   force =    -0.00006691   -0.00005631   -0.00019947
     atom   19 type  1   force =     0.00013659   -0.00002856   -0.00051130
     atom   20 type  2   force =     0.00000319    0.00004219   -0.00011666
     atom   21 type  1   force =    -0.00008525   -0.00002351   -0.00071237
     atom   22 type  2   force =     0.00000603   -0.00007278   -0.00032568
     atom   23 type  2   force =     0.00000910    0.00000880   -0.00014102
     atom   24 type  1   force =     0.00000855    0.00006034   -0.00078647
     atom   25 type  2   force =     0.00000823    0.00001661   -0.00031162
     atom   26 type  2   force =    -0.00001078    0.00002040   -0.00019413
     atom   27 type  1   force =    -0.00005556   -0.00003352   -0.00062272
     atom   28 type  2   force =    -0.00004112    0.00003129   -0.00029359
     atom   29 type  2   force =    -0.00000682   -0.00003513   -0.00016739
     atom   30 type  1   force =     0.00000438   -0.00002082   -0.00060965
     atom   31 type  2   force =     0.00004709    0.00000582   -0.00025327
     atom   32 type  2   force =     0.00000186    0.00000316   -0.00013730
     atom   33 type  1   force =     0.00009087    0.00000964   -0.00068708
     atom   34 type  2   force =     0.00002270   -0.00004150   -0.00028010
     atom   35 type  2   force =    -0.00001190    0.00001964   -0.00019268
     atom   36 type  3   force =    -0.00000603   -0.00000019   -0.00003875

     Total force =     0.131646     Total SCF correction =     0.002578

     BFGS Geometry Optimization
     Energy error            =      0.0E+00 Ry
     Gradient error          =      5.8E-02 Ry/Bohr

     number of scf cycles    =   1
     number of bfgs steps    =   0

     energy             new  =   -2205.5126836917 Ry

     new trust radius        =       0.0626453632 bohr
     new conv_thr            =       0.0000010000 Ry


ATOMIC_POSITIONS (angstrom)
Mo            6.5823778313        1.7768705947        2.8271322945
S             8.1688279767        0.8175012472        4.4340941831
S             8.1871744919        0.8165048796        1.2758216911
Mo            8.0905928343        4.4857035803        2.6958674241
S             6.4962863194        3.7175649266        4.3466387450
S             6.5551179849        3.5186095876        1.1215536269
Mo            6.4882145032        7.2108905713        2.6664171788
S             8.0869870202        6.3326640022        4.2732137790
S             8.0876163711        6.3070698694        1.0892342911
Mo            8.1543420875        9.9041422785        2.8310493574
S             6.4979010180        8.9433237016        4.3796135763
S             6.6162593399        9.0495792217        1.1419845107
Mo            3.4241559929        1.7501315489        2.7728519538
S             4.9793893114        0.8168678374        4.3566529993
S             5.0514616308        0.8472905881        1.2218542643
Mo            4.9867586150        4.5177583609        2.6307650809
S             3.4312680907        3.6722004167        4.2796206312
S             3.4345518602        3.5443443452        1.0662301525
Mo            3.4549888474        7.2188976378        2.6274724835
S             4.9854902320        6.3237622659        1.0385328565
Mo            5.0077220938        9.9043142566        2.7427921533
S             3.4698767258        8.9425811781        4.3254502840
S             3.4083983576        9.0663362311        1.1014853204
Mo            0.2898234239        1.7440303565        2.8370779889
S             1.8594752874        0.8024381619        4.4020011093
S             1.8547229675        0.8538385990        1.2075977893
Mo            1.8570713828        4.4948955127        2.6655055096
S             0.2750473582        3.6548081353        4.3426142987
S             0.2325230314        3.5274138807        1.1697281773
Mo            0.2716761158        7.2184737342        2.7032927780
S             1.9050395406        6.3142937199        4.2303300215
S             1.8566053828        6.3118236908        1.0489052480
Mo            1.8516702997        9.9368851381        2.7679474182
S             0.2977753253        9.0686556748        4.4081753444
S             0.2726027211        9.0479978326        1.1583355133
H             8.4085635284        4.8777717358        5.1029075424



     Writing config-only to output data dir ./MoS2-V-O.save/
     NEW-OLD atomic charge density approx. for the potential

     negative rho (up, down):  1.450E-04 0.000E+00

     total cpu time spent up to now is       80.8 secs

     Self-consistent Calculation

     iteration #  1     ecut=    80.00 Ry     beta= 0.70
     Davidson diagonalization with overlap
     ethr =  1.00E-06,  avg # of iterations =  8.0

     negative rho (up, down):  1.192E-04 0.000E+00

     total cpu time spent up to now is       93.8 secs

     total energy              =   -2205.52724670 Ry
     estimated scf accuracy    <       0.00160515 Ry

     iteration #  2     ecut=    80.00 Ry     beta= 0.70
     Davidson diagonalization with overlap
     ethr =  5.23E-07,  avg # of iterations =  2.0

     negative rho (up, down):  1.203E-04 0.000E+00

     total cpu time spent up to now is      114.0 secs

     total energy              =   -2205.52729974 Ry
     estimated scf accuracy    <       0.00038974 Ry

     iteration #  3     ecut=    80.00 Ry     beta= 0.70
     Davidson diagonalization with overlap
     ethr =  1.27E-07,  avg # of iterations =  6.0

     negative rho (up, down):  1.197E-04 0.000E+00

     total cpu time spent up to now is      129.8 secs

     total energy              =   -2205.52732521 Ry
     estimated scf accuracy    <       0.00011910 Ry

     iteration #  4     ecut=    80.00 Ry     beta= 0.70
     Davidson diagonalization with overlap
     ethr =  3.88E-08,  avg # of iterations =  2.0

     negative rho (up, down):  1.193E-04 0.000E+00

     total cpu time spent up to now is      146.7 secs

     total energy              =   -2205.52734451 Ry
     estimated scf accuracy    <       0.00000666 Ry

     iteration #  5     ecut=    80.00 Ry     beta= 0.70
     Davidson diagonalization with overlap
     ethr =  2.17E-09,  avg # of iterations =  6.0

     negative rho (up, down):  1.168E-04 0.000E+00

     total cpu time spent up to now is      162.4 secs

     total energy              =   -2205.52734873 Ry
     estimated scf accuracy    <       0.00000408 Ry

     iteration #  6     ecut=    80.00 Ry     beta= 0.70
     Davidson diagonalization with overlap
     ethr =  1.33E-09,  avg # of iterations =  2.0

     negative rho (up, down):  1.378E-04 0.000E+00

     total cpu time spent up to now is      164.3 secs

     End of self-consistent calculation

          k = 0.0000 0.0000 0.0000 (105382 PWs)   bands (ev):

   -62.9105 -62.8747 -62.8603 -62.8436 -62.8342 -62.8239 -62.8220 -62.8013
   -62.7899 -62.7158 -62.6685 -62.6225 -37.2207 -37.1702 -37.1448 -37.1171
   -37.1111 -37.1043 -37.0902 -37.0722 -37.0662 -37.0603 -37.0481 -37.0408
   -37.0347 -37.0236 -37.0141 -37.0069 -37.0024 -36.9954 -36.9926 -36.9832
   -36.9709 -36.9439 -36.9249 -36.9116 -36.8971 -36.8808 -36.8656 -36.8511
   -36.8425 -36.8275 -36.8186 -36.8022 -36.7945 -36.7739 -36.6757 -36.6179
   -16.0550 -15.4230 -15.1774 -14.9988 -14.9292 -14.8289 -14.6165 -14.5284
   -14.4584 -14.4264 -14.3829 -14.3315 -14.3005 -14.2637 -14.1763 -14.1540
   -14.1061 -14.0981 -14.0111 -13.9090 -13.8298 -13.8074 -13.7976  -8.5513
    -7.5921  -7.4027  -7.3362  -7.2393  -7.2275  -7.1726  -7.1309  -7.1011
    -6.8197  -6.7925  -6.7584  -6.6672  -6.5795  -6.5372  -6.4171  -6.3910
    -6.2486  -6.2329  -6.0386  -5.9887  -5.9271  -5.8958  -5.8486  -5.7402
    -5.7312  -5.7067  -5.6668  -5.6611  -5.6147  -5.5824  -5.5344  -5.4584
    -5.4306  -5.3918  -5.1826  -5.1261  -5.0591  -5.0335  -4.9442  -4.9357
    -4.9168  -4.8481  -4.6727  -4.5180  -4.3176  -4.3053  -4.2533  -4.2390
    -4.2159  -4.0283  -4.0115  -3.8782  -3.8195  -3.7730  -3.7288  -3.7094
    -3.6722  -3.5725  -3.5304  -3.5022  -3.4844  -3.4633  -3.4322  -3.4049
    -3.3496  -3.2186  -3.1451  -2.8815  -2.8564  -2.7852  -2.7603  -2.7278
    -2.7132  -2.6822  -2.6602  -2.5942  -2.5566  -2.2591  -2.0488  -1.9844
    -1.9771  -0.8492  -0.7235  -0.5543  -0.1560  -0.1356  -0.1130  -0.0689
     0.0958   0.1402   0.2165   0.2801   0.2864   0.3325   0.3800   0.4455
     0.4532   0.5218   0.5481   0.6021   0.6292   0.6609   0.7320   0.7473
     0.7980   0.8296   0.8350   0.8865   0.9679   1.0100   1.0495   1.1970
     1.3908

     the Fermi energy is    -0.8661 ev

!    total energy              =   -2205.52734889 Ry
     estimated scf accuracy    <       0.00000072 Ry
     smearing contrib. (-TS)   =      -0.00746619 Ry
     internal energy E=F+TS    =   -2205.51988271 Ry

     The total energy is F=E-TS. E is the sum of the following terms:
     one-electron contribution =  -18051.56380493 Ry
     hartree contribution      =    9012.65814490 Ry
     xc contribution           =    -385.26874867 Ry
     ewald contribution        =    7218.65452599 Ry

     convergence has been achieved in   6 iterations

     negative rho (up, down):  1.378E-04 0.000E+00

     Forces acting on atoms (cartesian axes, Ry/au):

     atom    1 type  1   force =     0.00328182   -0.01132431    0.00131896
     atom    2 type  2   force =    -0.00904796    0.00877519   -0.00255633
     atom    3 type  2   force =    -0.01056005    0.00691620   -0.00937733
     atom    4 type  1   force =    -0.00313336   -0.01055288   -0.01403142
     atom    5 type  2   force =    -0.00204474   -0.00847987   -0.00396827
     atom    6 type  2   force =    -0.00038994    0.00583224   -0.00365688
     atom    7 type  1   force =    -0.00102685   -0.01035786    0.00092222
     atom    8 type  2   force =     0.00741543   -0.02445636    0.04453182
     atom    9 type  2   force =     0.01121587    0.00478134    0.00552360
     atom   10 type  1   force =    -0.00549779    0.00412562   -0.00818115
     atom   11 type  2   force =     0.00374612   -0.00058200   -0.00890593
     atom   12 type  2   force =    -0.00543416   -0.00052100    0.00008139
     atom   13 type  1   force =     0.00341287    0.00281596   -0.00231973
     atom   14 type  2   force =     0.00567075   -0.00009326    0.00757163
     atom   15 type  2   force =    -0.00841805    0.00198529   -0.00720514
     atom   16 type  1   force =     0.01145854    0.00450001   -0.00160728
     atom   17 type  2   force =     0.00672345    0.00184082   -0.00164338
     atom   18 type  2   force =    -0.00538925   -0.00441861    0.01202070
     atom   19 type  1   force =     0.00222651    0.00359650   -0.00195298
     atom   20 type  2   force =     0.00257423   -0.00445759   -0.00205210
     atom   21 type  1   force =    -0.00517194    0.00373785    0.00194650
     atom   22 type  2   force =    -0.00051513   -0.00170344   -0.00016459
     atom   23 type  2   force =     0.00052425    0.00180587    0.00428740
     atom   24 type  1   force =    -0.00655993   -0.00316976   -0.00856398
     atom   25 type  2   force =     0.01146372    0.01397195   -0.00037317
     atom   26 type  2   force =    -0.00738019   -0.00135567   -0.00434664
     atom   27 type  1   force =    -0.00465862    0.00007005    0.01054746
     atom   28 type  2   force =     0.00142625   -0.00396974    0.00048516
     atom   29 type  2   force =     0.00356078   -0.00051744   -0.00825073
     atom   30 type  1   force =    -0.00016773   -0.00317644    0.00945000
     atom   31 type  2   force =     0.00516467    0.00243638    0.01030226
     atom   32 type  2   force =    -0.00963295    0.00172047    0.00682469
     atom   33 type  1   force =     0.00651715   -0.00180487    0.00042449
     atom   34 type  2   force =     0.00106931   -0.02944502   -0.01434873
     atom   35 type  2   force =    -0.00589416    0.00678056    0.00937796
     atom   36 type  3   force =     0.00347105    0.04469382   -0.02211049
     The non-local contrib.  to forces
     atom    1 type  1   force =    -0.00092623    0.02572499   -0.01157586
     atom    2 type  2   force =    -0.00754650   -0.00433694   -0.27219373
     atom    3 type  2   force =    -0.00954697   -0.00526781    0.26571396
     atom    4 type  1   force =    -0.00694370    0.00434044   -0.00920797
     atom    5 type  2   force =     0.00975179   -0.03336249   -0.23379690
     atom    6 type  2   force =    -0.00027691    0.00673649    0.26241789
     atom    7 type  1   force =    -0.03210457   -0.01346437   -0.01672949
     atom    8 type  2   force =     0.05308934   -0.19902715   -0.10052778
     atom    9 type  2   force =     0.00759395   -0.01667373    0.27586533
     atom   10 type  1   force =     0.00315816    0.00540510   -0.00155218
     atom   11 type  2   force =     0.01038295    0.00797865   -0.25922601
     atom   12 type  2   force =    -0.01515655   -0.01727909    0.26175623
     atom   13 type  1   force =     0.00209021    0.02157581   -0.00780230
     atom   14 type  2   force =     0.00925939   -0.00835242   -0.26507232
     atom   15 type  2   force =    -0.01044043   -0.00549407    0.26164969
     atom   16 type  1   force =    -0.00164293    0.03722035   -0.01779387
     atom   17 type  2   force =     0.00163713   -0.02779775   -0.25067503
     atom   18 type  2   force =    -0.00237529    0.00069973    0.27336507
     atom   19 type  1   force =     0.02311130   -0.00655996   -0.00648541
     atom   20 type  2   force =     0.00240285   -0.01817543    0.26371125
     atom   21 type  1   force =    -0.00189281    0.02063193    0.00316858
     atom   22 type  2   force =    -0.00690229    0.00556631   -0.25827802
     atom   23 type  2   force =     0.00561656   -0.01377089    0.26392320
     atom   24 type  1   force =     0.00433343    0.01174754   -0.01497600
     atom   25 type  2   force =     0.00706139    0.00306272   -0.26381990
     atom   26 type  2   force =    -0.00033023   -0.01487641    0.26349394
     atom   27 type  1   force =    -0.00018958    0.00751248    0.00732336
     atom   28 type  2   force =    -0.04950157    0.01698548   -0.20968202
     atom   29 type  2   force =     0.00415927    0.00049975    0.26493721
     atom   30 type  1   force =     0.00726764    0.01621730    0.00129436
     atom   31 type  2   force =    -0.01152482   -0.00027264   -0.25525076
     atom   32 type  2   force =    -0.00951985   -0.01299791    0.27347076
     atom   33 type  1   force =     0.00009483    0.00767446    0.00421558
     atom   34 type  2   force =    -0.00449834   -0.02818639   -0.27433762
     atom   35 type  2   force =    -0.00070287   -0.01317170    0.26891862
     atom   36 type  3   force =     0.00004497    0.01374445   -0.01478359
     The ionic contribution  to forces
     atom    1 type  1   force =    -0.05979448    0.15737476    5.78027713
     atom    2 type  2   force =    -0.47587153    0.14218558   39.35637606
     atom    3 type  2   force =    -0.16140159   -0.06234363  -36.21582237
     atom    4 type  1   force =     0.10921813    0.63688318   -1.16135436
     atom    5 type  2   force =    -1.35458038    1.25043383   38.56552798
     atom    6 type  2   force =     0.15227574   -0.67527862  -38.12473927
     atom    7 type  1   force =    -2.56539196   -2.38077921    2.40312921
     atom    8 type  2   force =    -1.23414827    0.95296056   37.03685816
     atom    9 type  2   force =     0.37039421    0.10438315  -38.01923873
     atom   10 type  1   force =    -0.88348784   -0.36656171    5.38676117
     atom   11 type  2   force =    -0.56881483   -1.55896644   39.06799330
     atom   12 type  2   force =     0.37808129    0.65811880  -37.82414159
     atom   13 type  1   force =     0.44313275    0.86253810    2.79565795
     atom   14 type  2   force =    -0.04658152   -0.04604469   38.59930667
     atom   15 type  2   force =     0.16316578   -0.04061283  -36.83501765
     atom   16 type  1   force =    -0.45501451    3.78218098    0.36160643
     atom   17 type  2   force =     0.84869414    1.45636581   37.88780562
     atom   18 type  2   force =    -0.15734621   -0.58858492  -38.46312913
     atom   19 type  1   force =     2.68103918   -2.49369974    0.50523399
     atom   20 type  2   force =     0.11840439   -0.15486268  -38.54649898
     atom   21 type  1   force =     0.08238193    0.03487126    1.30873080
     atom   22 type  2   force =     0.46993595   -1.66643619   38.50578594
     atom   23 type  2   force =    -0.06963727    0.65110910  -38.29928226
     atom   24 type  1   force =    -0.15533812    0.76412380    5.43281803
     atom   25 type  2   force =     0.57144455    0.17357908   39.24002448
     atom   26 type  2   force =    -0.22284652    0.03771182  -37.29561301
     atom   27 type  1   force =     0.37030824    0.41583305   -2.11293577
     atom   28 type  2   force =     0.54527001    0.43103267   37.89748564
     atom   29 type  2   force =    -0.08746391   -0.43671537  -37.39763331
     atom   30 type  1   force =    -0.32208348   -0.70817944   -0.07370982
     atom   31 type  2   force =     1.44050196    0.04618014   37.33021042
     atom   32 type  2   force =    -0.41379605   -0.01751885  -38.59879291
     atom   33 type  1   force =     0.59108936   -0.59276731    2.15134187
     atom   34 type  2   force =     0.21238414   -1.13850298   39.25084684
     atom   35 type  2   force =    -0.25785509    0.47237413  -37.72587255
     atom   36 type  3   force =    -0.05626817   -0.10238516    7.83000405
     The local contribution  to forces
     atom    1 type  1   force =     0.06360826   -0.19486075   -5.76770473
     atom    2 type  2   force =     0.47429981   -0.12927512  -39.10778690
     atom    3 type  2   force =     0.15990199    0.07437999   35.96139819
     atom    4 type  1   force =    -0.10546623   -0.65189752    1.15638679
     atom    5 type  2   force =     1.34391181   -1.22735780  -38.35513541
     atom    6 type  2   force =    -0.15254724    0.67515206   37.87942614
     atom    7 type  1   force =     2.59665983    2.38425573   -2.38555363
     atom    8 type  2   force =     1.19147172   -0.79048625  -36.90325222
     atom    9 type  2   force =    -0.36655573   -0.08385656   37.76993693
     atom   10 type  1   force =     0.87477861    0.36540007   -5.39318098
     atom   11 type  2   force =     0.56281508    1.55114675  -38.83851754
     atom   12 type  2   force =    -0.36963287   -0.64256633   37.58315772
     atom   13 type  1   force =    -0.44148674   -0.88170717   -2.79024021
     atom   14 type  2   force =     0.04347450    0.05438139  -38.34768044
     atom   15 type  2   force =    -0.16171017    0.04778262   36.58666950
     atom   16 type  1   force =     0.46816415   -3.81533946   -0.34563069
     atom   17 type  2   force =    -0.84362003   -1.42838165  -37.65929945
     atom   18 type  2   force =     0.15435064    0.58394461   38.22271799
     atom   19 type  1   force =    -2.70193497    2.50401155   -0.50082418
     atom   20 type  2   force =    -0.11823590    0.16790891   38.30169072
     atom   21 type  1   force =    -0.08564830   -0.05126969   -1.31010922
     atom   22 type  2   force =    -0.46374822    1.65997820  -38.26829590
     atom   23 type  2   force =     0.06510617   -0.63650810   38.06025293
     atom   24 type  1   force =     0.14466434   -0.77974686   -5.42635307
     atom   25 type  2   force =    -0.56715264   -0.16238135  -38.99764425
     atom   26 type  2   force =     0.21604623   -0.02498625   37.04868365
     atom   27 type  1   force =    -0.37483391   -0.42327590    2.11598528
     atom   28 type  2   force =    -0.49757777   -0.45117257  -37.70474539
     atom   29 type  2   force =     0.08727139    0.43613277   37.14503247
     atom   30 type  1   force =     0.31433123    0.68885959    0.08178517
     atom   31 type  2   force =    -1.42460319   -0.04361143  -37.08540810
     atom   32 type  2   force =     0.41341521    0.03141086   38.35302713
     atom   33 type  1   force =    -0.58469388    0.58393255   -2.15499846
     atom   34 type  2   force =    -0.20747496    1.13667347  -39.01225259
     atom   35 type  2   force =     0.25276440   -0.45342730   37.48736718
     atom   36 type  3   force =     0.05969149    0.13332095   -7.83741762
     The core correction contribution to forces
     atom    1 type  1   force =     0.00000000    0.00000000    0.00000000
     atom    2 type  2   force =     0.00022780    0.00001815    0.02087885
     atom    3 type  2   force =     0.00038903    0.00012185   -0.02081536
     atom    4 type  1   force =     0.00000000    0.00000000    0.00000000
     atom    5 type  2   force =    -0.00113079    0.00163873    0.01910725
     atom    6 type  2   force =     0.00002745   -0.00102937   -0.02089023
     atom    7 type  1   force =     0.00000000    0.00000000    0.00000000
     atom    8 type  2   force =    -0.00300382    0.01214848    0.01105362
     atom    9 type  2   force =    -0.00013413    0.00098915   -0.02105070
     atom   10 type  1   force =     0.00000000    0.00000000    0.00000000
     atom   11 type  2   force =    -0.00055759   -0.00060013    0.02052931
     atom   12 type  2   force =     0.00118205    0.00135206   -0.02075848
     atom   13 type  1   force =     0.00000000    0.00000000    0.00000000
     atom   14 type  2   force =    -0.00056390   -0.00008528    0.02073062
     atom   15 type  2   force =     0.00062143    0.00035707   -0.02057692
     atom   16 type  1   force =     0.00000000    0.00000000    0.00000000
     atom   17 type  2   force =     0.00010060    0.00146253    0.02020923
     atom   18 type  2   force =     0.00005660   -0.00058072   -0.02102113
     atom   19 type  1   force =     0.00000000    0.00000000    0.00000000
     atom   20 type  2   force =    -0.00005889    0.00068772   -0.02116127
     atom   21 type  1   force =     0.00000000    0.00000000    0.00000000
     atom   22 type  2   force =     0.00020201   -0.00062416    0.02048227
     atom   23 type  2   force =    -0.00043939    0.00114099   -0.02078975
     atom   24 type  1   force =     0.00000000    0.00000000    0.00000000
     atom   25 type  2   force =    -0.00000211   -0.00038998    0.02071694
     atom   26 type  2   force =    -0.00019106    0.00078084   -0.02086459
     atom   27 type  1   force =     0.00000000    0.00000000    0.00000000
     atom   28 type  2   force =     0.00316861   -0.00098840    0.01711919
     atom   29 type  2   force =    -0.00031300   -0.00048861   -0.02073197
     atom   30 type  1   force =     0.00000000    0.00000000    0.00000000
     atom   31 type  2   force =     0.00081500    0.00016990    0.02046963
     atom   32 type  2   force =     0.00027378    0.00075354   -0.02100002
     atom   33 type  1   force =     0.00000000    0.00000000    0.00000000
     atom   34 type  2   force =     0.00055353    0.00092853    0.02109872
     atom   35 type  2   force =    -0.00011688    0.00109988   -0.02105699
     atom   36 type  3   force =     0.00000000    0.00000000    0.00000000
     The Hubbard contrib.    to forces
     atom    1 type  1   force =     0.00000000    0.00000000    0.00000000
     atom    2 type  2   force =     0.00000000    0.00000000    0.00000000
     atom    3 type  2   force =     0.00000000    0.00000000    0.00000000
     atom    4 type  1   force =     0.00000000    0.00000000    0.00000000
     atom    5 type  2   force =     0.00000000    0.00000000    0.00000000
     atom    6 type  2   force =     0.00000000    0.00000000    0.00000000
     atom    7 type  1   force =     0.00000000    0.00000000    0.00000000
     atom    8 type  2   force =     0.00000000    0.00000000    0.00000000
     atom    9 type  2   force =     0.00000000    0.00000000    0.00000000
     atom   10 type  1   force =     0.00000000    0.00000000    0.00000000
     atom   11 type  2   force =     0.00000000    0.00000000    0.00000000
     atom   12 type  2   force =     0.00000000    0.00000000    0.00000000
     atom   13 type  1   force =     0.00000000    0.00000000    0.00000000
     atom   14 type  2   force =     0.00000000    0.00000000    0.00000000
     atom   15 type  2   force =     0.00000000    0.00000000    0.00000000
     atom   16 type  1   force =     0.00000000    0.00000000    0.00000000
     atom   17 type  2   force =     0.00000000    0.00000000    0.00000000
     atom   18 type  2   force =     0.00000000    0.00000000    0.00000000
     atom   19 type  1   force =     0.00000000    0.00000000    0.00000000
     atom   20 type  2   force =     0.00000000    0.00000000    0.00000000
     atom   21 type  1   force =     0.00000000    0.00000000    0.00000000
     atom   22 type  2   force =     0.00000000    0.00000000    0.00000000
     atom   23 type  2   force =     0.00000000    0.00000000    0.00000000
     atom   24 type  1   force =     0.00000000    0.00000000    0.00000000
     atom   25 type  2   force =     0.00000000    0.00000000    0.00000000
     atom   26 type  2   force =     0.00000000    0.00000000    0.00000000
     atom   27 type  1   force =     0.00000000    0.00000000    0.00000000
     atom   28 type  2   force =     0.00000000    0.00000000    0.00000000
     atom   29 type  2   force =     0.00000000    0.00000000    0.00000000
     atom   30 type  1   force =     0.00000000    0.00000000    0.00000000
     atom   31 type  2   force =     0.00000000    0.00000000    0.00000000
     atom   32 type  2   force =     0.00000000    0.00000000    0.00000000
     atom   33 type  1   force =     0.00000000    0.00000000    0.00000000
     atom   34 type  2   force =     0.00000000    0.00000000    0.00000000
     atom   35 type  2   force =     0.00000000    0.00000000    0.00000000
     atom   36 type  3   force =     0.00000000    0.00000000    0.00000000
     The SCF correction term to forces
     atom    1 type  1   force =     0.00039537    0.00043361    0.00032454
     atom    2 type  2   force =    -0.00015644    0.00018045    0.00017150
     atom    3 type  2   force =     0.00009860    0.00002273    0.00015036
     atom    4 type  1   force =     0.00005954    0.00011795    0.00014623
     atom    5 type  2   force =     0.00000394    0.00016478    0.00033093
     atom    6 type  2   force =     0.00013213    0.00024861    0.00013071
     atom    7 type  1   force =    -0.00018904   -0.00037308    0.00007825
     atom    8 type  2   force =     0.00000757   -0.00005507    0.00040215
     atom    9 type  2   force =    -0.00008132   -0.00006375    0.00001288
     atom   10 type  1   force =     0.00005438   -0.00012092   -0.00020704
     atom   11 type  2   force =    -0.00007838   -0.00014391    0.00031713
     atom   12 type  2   force =     0.00009302   -0.00014952    0.00006962
     atom   13 type  1   force =    -0.00032224    0.00040616    0.00006695
     atom   14 type  2   force =     0.00008339    0.00000467    0.00028922
     atom   15 type  2   force =    -0.00005355   -0.00005058    0.00007236
     atom   16 type  1   force =    -0.00004707    0.00043506    0.00021297
     atom   17 type  2   force =    -0.00008729    0.00018881    0.00031836
     atom   18 type  2   force =    -0.00007389    0.00009960    0.00009001
     atom   19 type  1   force =     0.00001211   -0.00015842    0.00012473
     atom   20 type  2   force =     0.00006289   -0.00001920    0.00020829
     atom   21 type  1   force =    -0.00001166   -0.00049872    0.00015845
     atom   22 type  2   force =    -0.00000147   -0.00019067    0.00014323
     atom   23 type  2   force =    -0.00012073   -0.00016831    0.00018540
     atom   24 type  1   force =    -0.00021847    0.00070268   -0.00005083
     atom   25 type  2   force =     0.00011363    0.00009840    0.00035167
     atom   26 type  2   force =    -0.00005750    0.00001126   -0.00004452
     atom   27 type  1   force =     0.00005773   -0.00000265    0.00017670
     atom   28 type  2   force =     0.00006808    0.00017000    0.00030985
     atom   29 type  2   force =    -0.00009186    0.00005094    0.00014699
     atom   30 type  1   force =     0.00031798   -0.00007696    0.00008240
     atom   31 type  2   force =    -0.00002317   -0.00003266    0.00028319
     atom   32 type  2   force =    -0.00000493    0.00006975    0.00012185
     atom   33 type  1   force =     0.00002794   -0.00064764   -0.00013239
     atom   34 type  2   force =     0.00010606   -0.00036072    0.00029804
     atom   35 type  2   force =     0.00001739   -0.00009753    0.00002382
     atom   36 type  3   force =     0.00000387    0.00001050    0.00008879

     Total force =     0.099311     Total SCF correction =     0.002119
     Energy error            =      1.5E-02 Ry
     Gradient error          =      4.5E-02 Ry/Bohr

     number of scf cycles    =   2
     number of bfgs steps    =   1

     energy             old  =   -2205.5126836917 Ry
     energy             new  =   -2205.5273488934 Ry

     CASE: energy            _new < energy            _old

     new trust radius        =       0.0689098995 bohr
     new conv_thr            =       0.0000000447 Ry


ATOMIC_POSITIONS (angstrom)
Mo            6.5863869726        1.7677479594        2.8288439496
S             8.1617899325        0.8243720760        4.4326279779
S             8.1798801907        0.8216616617        1.2703165525
Mo            8.0876163195        4.4774477135        2.6821025978
S             6.4941561714        3.7117129404        4.3445583040
S             6.5554322290        3.5236712140        1.1197224521
Mo            6.4871600601        7.2032659503        2.6652973520
S             8.0924035964        6.3165983649        4.3054983298
S             8.0954409898        6.3102625029        1.0936949122
Mo            8.1496296115        9.9068733381        2.8231368329
S             6.5006597859        8.9431357969        4.3739357844
S             6.6129246500        9.0495612325        1.1426356358
Mo            3.4266711216        1.7525337448        2.7705791739
S             4.9835906534        0.8167975996        4.3624033618
S             5.0451949917        0.8486295319        1.2166809308
Mo            4.9947989013        4.5214522699        2.6293040645
S             3.4357860031        3.6733385308        4.2787356518
S             3.4307481762        3.5408968959        1.0748210599
Mo            3.4564827633        7.2215312329        2.6255129224
S             4.9874966401        6.3205037302        1.0378350850
Mo            5.0036882858        9.9070630695        2.7436311253
S             3.4692906636        8.9413480538        4.3253229393
S             3.4086633303        9.0676744991        1.1053132376
Mo            0.2845587151        1.7413543350        2.8289787605
S             1.8681075080        0.8125955100        4.4029169666
S             1.8490852162        0.8529579812        1.2047977381
Mo            1.8535759662        4.4947061592        2.6725733605
S             0.2766229644        3.6528532628        4.3443416350
S             0.2347625622        3.5271916796        1.1647450687
Mo            0.2717419644        7.2173490298        2.7086995476
S             1.9085595992        6.3160050782        4.2380249616
S             1.8499203704        6.3131564763        1.0537454837
Mo            1.8572222078        9.9349884462        2.7667047059
S             0.2988798651        9.0470132667        4.3990076630
S             0.2683007730        9.0528519638        1.1655616721
H             8.4111261489        4.9071322016        5.0881397798



     Writing config-only to output data dir ./MoS2-V-O.save/
     NEW-OLD atomic charge density approx. for the potential

     negative rho (up, down):  1.462E-04 0.000E+00

     total cpu time spent up to now is      167.6 secs

     Self-consistent Calculation

     iteration #  1     ecut=    80.00 Ry     beta= 0.70
     Davidson diagonalization with overlap
     ethr =  1.00E-06,  avg # of iterations =  8.0

     negative rho (up, down):  1.093E-04 0.000E+00

     total cpu time spent up to now is      181.4 secs

     total energy              =   -2205.53910128 Ry
     estimated scf accuracy    <       0.00141045 Ry

     iteration #  2     ecut=    80.00 Ry     beta= 0.70
     Davidson diagonalization with overlap
     ethr =  4.59E-07,  avg # of iterations =  3.0

     negative rho (up, down):  1.027E-04 0.000E+00

     total cpu time spent up to now is      192.5 secs

     total energy              =   -2205.53917109 Ry
     estimated scf accuracy    <       0.00033881 Ry

     iteration #  3     ecut=    80.00 Ry     beta= 0.70
     Davidson diagonalization with overlap
     ethr =  1.10E-07,  avg # of iterations =  6.0

     negative rho (up, down):  9.162E-05 0.000E+00

     total cpu time spent up to now is      207.0 secs

     total energy              =   -2205.53919387 Ry
     estimated scf accuracy    <       0.00009129 Ry

     iteration #  4     ecut=    80.00 Ry     beta= 0.70
     Davidson diagonalization with overlap
     ethr =  2.97E-08,  avg # of iterations =  3.0

     negative rho (up, down):  9.061E-05 0.000E+00

     total cpu time spent up to now is      227.5 secs

     total energy              =   -2205.53920979 Ry
     estimated scf accuracy    <       0.00000433 Ry

     iteration #  5     ecut=    80.00 Ry     beta= 0.70
     Davidson diagonalization with overlap
     ethr =  1.41E-09,  avg # of iterations =  6.0

     negative rho (up, down):  9.205E-05 0.000E+00

     total cpu time spent up to now is      242.6 secs

     total energy              =   -2205.53921289 Ry
     estimated scf accuracy    <       0.00000254 Ry

     iteration #  6     ecut=    80.00 Ry     beta= 0.70
     Davidson diagonalization with overlap
     ethr =  8.27E-10,  avg # of iterations =  2.0

     negative rho (up, down):  9.677E-05 0.000E+00

     total cpu time spent up to now is      256.0 secs

     total energy              =   -2205.53921295 Ry
     estimated scf accuracy    <       0.00000056 Ry

     iteration #  7     ecut=    80.00 Ry     beta= 0.70
     Davidson diagonalization with overlap
     ethr =  1.84E-10,  avg # of iterations =  6.0

     negative rho (up, down):  9.976E-05 0.000E+00

     total cpu time spent up to now is      268.4 secs

     total energy              =   -2205.53921305 Ry
     estimated scf accuracy    <       0.00000021 Ry

     iteration #  8     ecut=    80.00 Ry     beta= 0.70
     Davidson diagonalization with overlap
     ethr =  6.90E-11,  avg # of iterations =  2.0

     negative rho (up, down):  1.094E-04 0.000E+00

     total cpu time spent up to now is      281.3 secs

     total energy              =   -2205.53921298 Ry
     estimated scf accuracy    <       0.00000009 Ry

     iteration #  9     ecut=    80.00 Ry     beta= 0.70
     Davidson diagonalization with overlap
     ethr =  2.96E-11,  avg # of iterations =  2.0

     negative rho (up, down):  1.383E-04 0.000E+00

     total cpu time spent up to now is      283.3 secs

     End of self-consistent calculation

          k = 0.0000 0.0000 0.0000 (105382 PWs)   bands (ev):

   -62.9134 -62.8751 -62.8570 -62.8434 -62.8307 -62.8191 -62.8150 -62.7980
   -62.7860 -62.7151 -62.6549 -62.6128 -37.2198 -37.1697 -37.1424 -37.1129
   -37.1083 -37.1022 -37.0880 -37.0708 -37.0620 -37.0553 -37.0459 -37.0392
   -37.0293 -37.0200 -37.0092 -37.0026 -36.9986 -36.9940 -36.9872 -36.9787
   -36.9670 -36.9396 -36.9215 -36.9093 -36.8942 -36.8771 -36.8636 -36.8465
   -36.8396 -36.8175 -36.8096 -36.7921 -36.7896 -36.7626 -36.6659 -36.6099
   -16.0625 -15.4541 -15.1741 -14.9970 -14.9161 -14.8310 -14.6195 -14.5127
   -14.4547 -14.4227 -14.3818 -14.3228 -14.2943 -14.2608 -14.1688 -14.1555
   -14.0992 -14.0936 -14.0086 -13.9057 -13.8264 -13.8050 -13.7976  -8.6131
    -7.5857  -7.4007  -7.3290  -7.2302  -7.2192  -7.1704  -7.1327  -7.0997
    -6.8159  -6.7847  -6.7510  -6.6589  -6.5779  -6.5334  -6.4107  -6.3785
    -6.2463  -6.2263  -6.0483  -5.9824  -5.9186  -5.8831  -5.8424  -5.7367
    -5.7273  -5.7008  -5.6665  -5.6603  -5.6121  -5.5757  -5.5318  -5.4542
    -5.4212  -5.3678  -5.1720  -5.1162  -5.0556  -5.0263  -4.9328  -4.9271
    -4.9217  -4.8499  -4.6679  -4.5183  -4.3217  -4.3005  -4.2516  -4.2423
    -4.2062  -4.0264  -4.0092  -3.8961  -3.8163  -3.7718  -3.7265  -3.7130
    -3.6609  -3.5637  -3.5231  -3.5004  -3.4849  -3.4648  -3.4300  -3.3985
    -3.3497  -3.2158  -3.1500  -2.8772  -2.8432  -2.7733  -2.7533  -2.7261
    -2.7113  -2.6856  -2.6575  -2.5909  -2.5518  -2.2515  -2.0516  -1.9780
    -1.9761  -0.8484  -0.7014  -0.5516  -0.1525  -0.1332  -0.1160  -0.0677
     0.1004   0.1377   0.2163   0.2981   0.3024   0.3364   0.3950   0.4385
     0.4453   0.5209   0.5524   0.5977   0.6368   0.6775   0.7250   0.7567
     0.7990   0.8367   0.8482   0.8952   0.9675   1.0158   1.0476   1.2167
     1.4051

     the Fermi energy is    -0.8605 ev

!    total energy              =   -2205.53921289 Ry
     estimated scf accuracy    <       0.00000002 Ry
     smearing contrib. (-TS)   =      -0.00706963 Ry
     internal energy E=F+TS    =   -2205.53214326 Ry

     The total energy is F=E-TS. E is the sum of the following terms:
     one-electron contribution =  -18049.56823879 Ry
     hartree contribution      =    9011.69021955 Ry
     xc contribution           =    -385.27078384 Ry
     ewald contribution        =    7217.61665981 Ry

     convergence has been achieved in   9 iterations

     negative rho (up, down):  1.383E-04 0.000E+00

     Forces acting on atoms (cartesian axes, Ry/au):

     atom    1 type  1   force =    -0.00449497   -0.00395977   -0.00385809
     atom    2 type  2   force =    -0.00447972    0.00417431   -0.00266641
     atom    3 type  2   force =    -0.00874533    0.00426659   -0.01097378
     atom    4 type  1   force =     0.00144863   -0.00674109    0.00113473
     atom    5 type  2   force =     0.00081487   -0.00827733   -0.00533015
     atom    6 type  2   force =    -0.00238620    0.00068986   -0.00574211
     atom    7 type  1   force =    -0.00039589   -0.00706151    0.00629405
     atom    8 type  2   force =     0.00534117   -0.02309298    0.03518920
     atom    9 type  2   force =     0.00891553    0.00389016    0.00402627
     atom   10 type  1   force =    -0.00184665    0.00393870   -0.00017299
     atom   11 type  2   force =     0.00259980   -0.00159797   -0.00861055
     atom   12 type  2   force =    -0.00648476   -0.00243623   -0.00100488
     atom   13 type  1   force =     0.00195449    0.00012647   -0.00013237
     atom   14 type  2   force =     0.00344472   -0.00005789    0.00468874
     atom   15 type  2   force =    -0.00582569    0.00122331   -0.00514425
     atom   16 type  1   force =     0.00942195    0.00136304   -0.00136842
     atom   17 type  2   force =     0.00692227    0.00232863   -0.00168889
     atom   18 type  2   force =    -0.00446195   -0.00148352    0.00966753
     atom   19 type  1   force =     0.00214862    0.00210596    0.00029251
     atom   20 type  2   force =     0.00173467   -0.00272051   -0.00383042
     atom   21 type  1   force =    -0.00225267    0.00251230    0.00237165
     atom   22 type  2   force =     0.00071783   -0.00107612    0.00064295
     atom   23 type  2   force =     0.00059725    0.00129868    0.00071643
     atom   24 type  1   force =    -0.00326658   -0.00050941   -0.00121022
     atom   25 type  2   force =     0.00670450    0.00982609   -0.00406079
     atom   26 type  2   force =    -0.00377171   -0.00148762   -0.00350688
     atom   27 type  1   force =    -0.00289909    0.00083814    0.00843290
     atom   28 type  2   force =     0.00036994   -0.00865545   -0.00569596
     atom   29 type  2   force =     0.00383506   -0.00073942   -0.00858270
     atom   30 type  1   force =    -0.00064277   -0.00755569    0.01118047
     atom   31 type  2   force =     0.00531258    0.00161829    0.00739930
     atom   32 type  2   force =    -0.00831543    0.00092347    0.00645020
     atom   33 type  1   force =     0.00129547    0.00076587    0.00457221
     atom   34 type  2   force =    -0.00060093   -0.01909624   -0.01345317
     atom   35 type  2   force =    -0.00384988    0.00417032    0.00626945
     atom   36 type  3   force =     0.00114086    0.05048857   -0.02229556
     The non-local contrib.  to forces
     atom    1 type  1   force =    -0.00022274    0.02376385   -0.01180269
     atom    2 type  2   force =    -0.00463421   -0.00790152   -0.27056283
     atom    3 type  2   force =    -0.00701328   -0.00855861    0.26269289
     atom    4 type  1   force =    -0.00842616    0.00319404   -0.01085955
     atom    5 type  2   force =     0.00892661   -0.03654996   -0.23607776
     atom    6 type  2   force =    -0.00147166    0.00179743    0.26086417
     atom    7 type  1   force =    -0.03339338   -0.01598080   -0.01816087
     atom    8 type  2   force =     0.05763792   -0.22140792   -0.10331106
     atom    9 type  2   force =     0.00519009   -0.01958631    0.27477697
     atom   10 type  1   force =     0.00223573    0.00646217   -0.00043870
     atom   11 type  2   force =     0.00882569    0.00754963   -0.25935777
     atom   12 type  2   force =    -0.01611340   -0.01808713    0.26215032
     atom   13 type  1   force =     0.00267795    0.02321771   -0.00807773
     atom   14 type  2   force =     0.00787609   -0.00784783   -0.26637113
     atom   15 type  2   force =    -0.00823055   -0.00618190    0.26240927
     atom   16 type  1   force =    -0.00291440    0.03868664   -0.01843658
     atom   17 type  2   force =     0.00120865   -0.02625259   -0.25175757
     atom   18 type  2   force =    -0.00065361    0.00318616    0.27255640
     atom   19 type  1   force =     0.02364848   -0.00626032   -0.00678457
     atom   20 type  2   force =     0.00112515   -0.01562454    0.26255057
     atom   21 type  1   force =    -0.00285556    0.02039659    0.00235633
     atom   22 type  2   force =    -0.00576959    0.00566850   -0.25803888
     atom   23 type  2   force =     0.00563781   -0.01386647    0.26115628
     atom   24 type  1   force =     0.00357841    0.01090360   -0.01452291
     atom   25 type  2   force =     0.00278584   -0.00064037   -0.26647825
     atom   26 type  2   force =     0.00215463   -0.01454587    0.26462783
     atom   27 type  1   force =    -0.00106170    0.00716504    0.00682478
     atom   28 type  2   force =    -0.04124125    0.00724282   -0.21785957
     atom   29 type  2   force =     0.00288121   -0.00100328    0.26531859
     atom   30 type  1   force =     0.00687827    0.01671063    0.00005966
     atom   31 type  2   force =    -0.01195161   -0.00146093   -0.25725640
     atom   32 type  2   force =    -0.00732149   -0.01300738    0.27338376
     atom   33 type  1   force =     0.00185272    0.00693786    0.00394700
     atom   34 type  2   force =    -0.00605396   -0.01976702   -0.27446917
     atom   35 type  2   force =     0.00086881   -0.01509560    0.26777091
     atom   36 type  3   force =    -0.00134031    0.01853807   -0.01646954
     The ionic contribution  to forces
     atom    1 type  1   force =    -0.26280344    0.27352533    5.83408373
     atom    2 type  2   force =    -0.32186330    0.03882799   39.40913077
     atom    3 type  2   force =    -0.13641361   -0.10451775  -36.34237635
     atom    4 type  1   force =     0.24083684    0.82727239   -1.66713489
     atom    5 type  2   force =    -1.31071695    1.26406050   38.54378056
     atom    6 type  2   force =     0.05826799   -0.76325548  -38.17918123
     atom    7 type  1   force =    -2.35564946   -2.25334896    2.51612842
     atom    8 type  2   force =    -1.30265252    1.04434810   37.20712390
     atom    9 type  2   force =     0.38877366    0.17766223  -37.93957040
     atom   10 type  1   force =    -0.71693415   -0.46925544    5.18486148
     atom   11 type  2   force =    -0.53154860   -1.59051979   38.97457048
     atom   12 type  2   force =     0.35292834    0.58926154  -37.78739076
     atom   13 type  1   force =     0.37378505    0.84984491    2.73563642
     atom   14 type  2   force =    -0.10468497   -0.03885779   38.67236026
     atom   15 type  2   force =     0.16996796   -0.02493356  -36.89376048
     atom   16 type  1   force =    -0.69273868    3.70939239    0.33148742
[...]
     atom   27 type  1   force =    -0.00063485    0.00545810    0.00545287
     atom   28 type  2   force =    -0.00380847   -0.00803140   -0.24713248
     atom   29 type  2   force =    -0.00402939   -0.01339313    0.27066608
     atom   30 type  1   force =     0.00752826    0.02235272   -0.00668962
     atom   31 type  2   force =    -0.01588538    0.00025613   -0.25786032
     atom   32 type  2   force =     0.00724764   -0.01402730    0.26775372
     atom   33 type  1   force =     0.00196242    0.00794716    0.00388419
     atom   34 type  2   force =    -0.00636175   -0.01013069   -0.26715364
     atom   35 type  2   force =     0.00305334   -0.01388960    0.26770692
     atom   36 type  3   force =    -0.01418883    0.04925318   -0.03098353
     The ionic contribution  to forces
     atom    1 type  1   force =    -0.09858591    0.47594199    1.85019549
     atom    2 type  2   force =    -0.15930070    0.19086652   38.80230333
     atom    3 type  2   force =     0.15997015   -0.32365767  -37.41911410
     atom    4 type  1   force =     0.23100126    1.89751590    0.01441732
     atom    5 type  2   force =    -1.10440530    1.14739936   38.20424483
     atom    6 type  2   force =     0.28860850   -0.29834876  -38.77397080
     atom    7 type  1   force =    -1.17732566   -2.99395472    4.99107125
     atom    8 type  2   force =    -1.70117265    0.66118942   38.01536628
     atom    9 type  2   force =     0.37047213    0.42147009  -36.53973731
     atom   10 type  1   force =    -0.30781318   -0.74180950    3.55197319
     atom   11 type  2   force =    -0.34870610   -1.19231060   38.81945262
     atom   12 type  2   force =     0.57902175    0.13003564  -37.80779662
     atom   13 type  1   force =    -0.07386951    1.06668054    1.19428863
     atom   14 type  2   force =    -0.05448931    0.20093656   38.49974045
     atom   15 type  2   force =     0.03890124   -0.13068584  -37.94877998
     atom   16 type  1   force =    -1.01150023    3.70071968   -1.65997698
     atom   17 type  2   force =     0.93294342    1.33991462   37.59105150
     atom   18 type  2   force =    -0.37355464   -0.03600932  -38.09978550
     atom   19 type  1   force =     2.05002374   -3.04380011    2.76482275
     atom   20 type  2   force =    -0.10198654   -0.00856198  -38.72830667
     atom   21 type  1   force =     0.07100157   -0.02216643    0.54810880
     atom   22 type  2   force =     0.33008885   -1.34886192   38.78387978
     atom   23 type  2   force =    -0.34793674    0.18268134  -38.08835011
     atom   24 type  1   force =     0.07642184    0.46882897    2.06017670
     atom   25 type  2   force =     0.25540249    0.26958757   38.79045775
     atom   26 type  2   force =    -0.16799944   -0.12027990  -37.70179269
     atom   27 type  1   force =     0.57877699    0.56612330    0.72816700
     atom   28 type  2   force =     0.20819010    0.31905797   37.80128633
     atom   29 type  2   force =     0.17610984    0.08483755  -37.67408321
     atom   30 type  1   force =    -0.73300844   -1.11039183    4.09796812
     atom   31 type  2   force =     1.55340012   -0.12210341   38.28644694
     atom   32 type  2   force =    -0.36218730    0.07399976  -37.55176781
     atom   33 type  1   force =     0.15199110   -0.45541829    2.83541878
     atom   34 type  2   force =     0.05980313   -0.25985798   38.92778687
     atom   35 type  2   force =    -0.16244072   -0.12870963  -37.10155768
     atom   36 type  3   force =     0.17415418   -0.86085891    7.93639473
     The local contribution  to forces
     atom    1 type  1   force =     0.10288988   -0.49942641   -1.84429743
     atom    2 type  2   force =     0.15939345   -0.17715237  -38.55707518
     atom    3 type  2   force =    -0.15839907    0.33567284   37.17301141
     atom    4 type  1   force =    -0.22298890   -1.88967377    0.00240750
     atom    5 type  2   force =     1.09879012   -1.12043042  -37.98129558
     atom    6 type  2   force =    -0.28853440    0.30407007   38.53154114
     atom    7 type  1   force =     1.21890716    3.02068862   -4.96816132
     atom    8 type  2   force =     1.64543398   -0.38677924  -37.91346053
     atom    9 type  2   force =    -0.36638406   -0.40093536   36.28783716
     atom   10 type  1   force =     0.30640942    0.73055559   -3.55896934
     atom   11 type  2   force =     0.34072974    1.18669906  -38.58538017
     atom   12 type  2   force =    -0.56616030   -0.12464016   37.56455664
     atom   13 type  1   force =     0.07193013   -1.09381251   -1.18923372
     atom   14 type  2   force =     0.05165534   -0.18906522  -38.25510469
     atom   15 type  2   force =    -0.03819107    0.13744382   37.70874536
     atom   16 type  1   force =     1.01120513   -3.73566693    1.67184529
     atom   17 type  2   force =    -0.92336342   -1.31653518  -37.35722769
     atom   18 type  2   force =     0.36625113    0.03729750   37.85289594
     atom   19 type  1   force =    -2.07617351    3.05479657   -2.74497495
     atom   20 type  2   force =     0.10525970    0.02093773   38.48721542
     atom   21 type  1   force =    -0.06722076   -0.00088545   -0.55095616
     atom   22 type  2   force =    -0.32270398    1.35128496  -38.54382541
     atom   23 type  2   force =     0.34040508   -0.17436596   37.84753532
     atom   24 type  1   force =    -0.07714495   -0.48013435   -2.05411978
     atom   25 type  2   force =    -0.25228997   -0.25629732  -38.54767916
     atom   26 type  2   force =     0.16624328    0.13101356   37.45490144
     atom   27 type  1   force =    -0.57817422   -0.57154551   -0.73363109
     atom   28 type  2   force =    -0.20569926   -0.31004206  -37.57311716
     atom   29 type  2   force =    -0.17235968   -0.07257953   37.42395335
     atom   30 type  1   force =     0.72554608    1.08725220   -4.09060317
     atom   31 type  2   force =    -1.53850272    0.12266353  -38.04975209
     atom   32 type  2   force =     0.35516270   -0.06066352   37.30508477
     atom   33 type  1   force =    -0.15428629    0.44731620   -2.83928547
     atom   34 type  2   force =    -0.05398199    0.26980252  -38.68050614
     atom   35 type  2   force =     0.15933816    0.14156569   36.85451647
     atom   36 type  3   force =    -0.16118041    0.81232343   -7.90288833
     The core correction contribution to forces
     atom    1 type  1   force =     0.00000000    0.00000000    0.00000000
     atom    2 type  2   force =    -0.00006181    0.00064901    0.02079114
     atom    3 type  2   force =     0.00013471    0.00044082   -0.02081493
     atom    4 type  1   force =     0.00000000    0.00000000    0.00000000
     atom    5 type  2   force =    -0.00095049    0.00106190    0.01965188
     atom    6 type  2   force =     0.00031154   -0.00032773   -0.02095964
     atom    7 type  1   force =     0.00000000    0.00000000    0.00000000
     atom    8 type  2   force =    -0.00454355    0.01881265    0.00866863
     atom    9 type  2   force =     0.00029616    0.00158398   -0.02095001
     atom   10 type  1   force =     0.00000000    0.00000000    0.00000000
     atom   11 type  2   force =    -0.00040901   -0.00022955    0.02033640
     atom   12 type  2   force =     0.00096742    0.00049917   -0.02078245
     atom   13 type  1   force =     0.00000000    0.00000000    0.00000000
     atom   14 type  2   force =    -0.00017923    0.00033549    0.02083796
     atom   15 type  2   force =     0.00006643    0.00024341   -0.02063302
     atom   16 type  1   force =     0.00000000    0.00000000    0.00000000
     atom   17 type  2   force =     0.00094788    0.00124525    0.02018665
     atom   18 type  2   force =    -0.00063728   -0.00017022   -0.02074508
     atom   19 type  1   force =     0.00000000    0.00000000    0.00000000
     atom   20 type  2   force =     0.00009144    0.00068395   -0.02115408
     atom   21 type  1   force =     0.00000000    0.00000000    0.00000000
     atom   22 type  2   force =     0.00025264   -0.00006693    0.02061145
     atom   23 type  2   force =    -0.00068734    0.00067565   -0.02071726
     atom   24 type  1   force =     0.00000000    0.00000000    0.00000000
     atom   25 type  2   force =     0.00031697    0.00071734    0.02072102
     atom   26 type  2   force =    -0.00018871    0.00041201   -0.02092357
     atom   27 type  1   force =     0.00000000    0.00000000    0.00000000
     atom   28 type  2   force =     0.00046171    0.00008835    0.01947229
     atom   29 type  2   force =     0.00034447    0.00049835   -0.02091734
     atom   30 type  1   force =     0.00000000    0.00000000    0.00000000
     atom   31 type  2   force =     0.00120374    0.00014644    0.02037621
     atom   32 type  2   force =    -0.00048449    0.00087304   -0.02085080
     atom   33 type  1   force =     0.00000000    0.00000000    0.00000000
     atom   34 type  2   force =     0.00040853    0.00065591    0.02089788
     atom   35 type  2   force =    -0.00017291    0.00065285   -0.02099181
     atom   36 type  3   force =     0.00000000    0.00000000    0.00000000
     The Hubbard contrib.    to forces
     atom    1 type  1   force =     0.00000000    0.00000000    0.00000000
     atom    2 type  2   force =     0.00000000    0.00000000    0.00000000
     atom    3 type  2   force =     0.00000000    0.00000000    0.00000000
     atom    4 type  1   force =     0.00000000    0.00000000    0.00000000
     atom    5 type  2   force =     0.00000000    0.00000000    0.00000000
     atom    6 type  2   force =     0.00000000    0.00000000    0.00000000
     atom    7 type  1   force =     0.00000000    0.00000000    0.00000000
     atom    8 type  2   force =     0.00000000    0.00000000    0.00000000
     atom    9 type  2   force =     0.00000000    0.00000000    0.00000000
     atom   10 type  1   force =     0.00000000    0.00000000    0.00000000
     atom   11 type  2   force =     0.00000000    0.00000000    0.00000000
     atom   12 type  2   force =     0.00000000    0.00000000    0.00000000
     atom   13 type  1   force =     0.00000000    0.00000000    0.00000000
     atom   14 type  2   force =     0.00000000    0.00000000    0.00000000
     atom   15 type  2   force =     0.00000000    0.00000000    0.00000000
     atom   16 type  1   force =     0.00000000    0.00000000    0.00000000
     atom   17 type  2   force =     0.00000000    0.00000000    0.00000000
     atom   18 type  2   force =     0.00000000    0.00000000    0.00000000
     atom   19 type  1   force =     0.00000000    0.00000000    0.00000000
     atom   20 type  2   force =     0.00000000    0.00000000    0.00000000
     atom   21 type  1   force =     0.00000000    0.00000000    0.00000000
     atom   22 type  2   force =     0.00000000    0.00000000    0.00000000
     atom   23 type  2   force =     0.00000000    0.00000000    0.00000000
     atom   24 type  1   force =     0.00000000    0.00000000    0.00000000
     atom   25 type  2   force =     0.00000000    0.00000000    0.00000000
     atom   26 type  2   force =     0.00000000    0.00000000    0.00000000
     atom   27 type  1   force =     0.00000000    0.00000000    0.00000000
     atom   28 type  2   force =     0.00000000    0.00000000    0.00000000
     atom   29 type  2   force =     0.00000000    0.00000000    0.00000000
     atom   30 type  1   force =     0.00000000    0.00000000    0.00000000
     atom   31 type  2   force =     0.00000000    0.00000000    0.00000000
     atom   32 type  2   force =     0.00000000    0.00000000    0.00000000
     atom   33 type  1   force =     0.00000000    0.00000000    0.00000000
     atom   34 type  2   force =     0.00000000    0.00000000    0.00000000
     atom   35 type  2   force =     0.00000000    0.00000000    0.00000000
     atom   36 type  3   force =     0.00000000    0.00000000    0.00000000
     The SCF correction term to forces
     atom    1 type  1   force =     0.00001339    0.00000757    0.00007331
     atom    2 type  2   force =     0.00000009    0.00000116    0.00004303
     atom    3 type  2   force =     0.00000037   -0.00000512    0.00000818
     atom    4 type  1   force =     0.00000011    0.00002976    0.00007380
     atom    5 type  2   force =    -0.00000199    0.00000849    0.00004483
     atom    6 type  2   force =    -0.00000017    0.00000615    0.00000669
     atom    7 type  1   force =     0.00000822   -0.00000990    0.00007054
     atom    8 type  2   force =     0.00001012    0.00000384    0.00003803
     atom    9 type  2   force =     0.00000714    0.00000489    0.00000696
     atom   10 type  1   force =     0.00000421   -0.00001096    0.00006107
     atom   11 type  2   force =     0.00000200   -0.00000976    0.00004124
     atom   12 type  2   force =     0.00000210   -0.00001215    0.00000540
     atom   13 type  1   force =     0.00000235    0.00000523    0.00007020
     atom   14 type  2   force =    -0.00000357    0.00000359    0.00004220
     atom   15 type  2   force =    -0.00000046    0.00000338    0.00001129
     atom   16 type  1   force =    -0.00000642    0.00001658    0.00007169
     atom   17 type  2   force =     0.00000174    0.00001105    0.00004403
     atom   18 type  2   force =     0.00000193    0.00001089    0.00000720
     atom   19 type  1   force =    -0.00000456   -0.00000348    0.00006261
     atom   20 type  2   force =    -0.00000662    0.00000175    0.00000211
     atom   21 type  1   force =    -0.00000313   -0.00001858    0.00006684
     atom   22 type  2   force =    -0.00000274   -0.00000951    0.00003701
     atom   23 type  2   force =    -0.00000120   -0.00001477    0.00000748
     atom   24 type  1   force =     0.00000442    0.00001747    0.00007021
     atom   25 type  2   force =     0.00000173    0.00000439    0.00004012
     atom   26 type  2   force =    -0.00000333   -0.00000272    0.00001057
     atom   27 type  1   force =    -0.00000972    0.00001647    0.00006893
     atom   28 type  2   force =     0.00000104    0.00000605    0.00003965
     atom   29 type  2   force =     0.00000341    0.00000675    0.00000804
     atom   30 type  1   force =    -0.00000309   -0.00001635    0.00006996
     atom   31 type  2   force =    -0.00000613    0.00000349    0.00003591
     atom   32 type  2   force =    -0.00000338    0.00000443    0.00000893
     atom   33 type  1   force =    -0.00000314   -0.00002724    0.00006049
     atom   34 type  2   force =    -0.00000162   -0.00001400    0.00003914
     atom   35 type  2   force =     0.00000109   -0.00001096    0.00000973
     atom   36 type  3   force =    -0.00000022    0.00000385    0.00000549

     Total force =     0.007108     Total SCF correction =     0.000284
     Energy error            =      9.5E-05 Ry
     Gradient error          =      2.5E-03 Ry/Bohr

     bfgs converged in  20 scf cycles and  19 bfgs steps
     (criteria: energy <  1.0E-04 Ry, force <  1.0E-02 Ry/Bohr)

     End of BFGS Geometry Optimization

     Final energy             =   -2205.5809574256 Ry

     File ./MoS2-V-O.bfgs deleted, as requested
Begin final coordinates

ATOMIC_POSITIONS (angstrom)
Mo            6.5679415836        1.7324575506        2.7433853696
S             8.1318977306        0.8277784983        4.3668375698
S             8.1501110619        0.7992067639        1.1828962617
Mo            8.1131036712        4.4578262195        2.6986444888
S             6.5269281113        3.6339839832        4.3001713964
S             6.6048141903        3.5228745267        1.0730211519
Mo            6.4385662528        7.1930366503        2.7167429793
S             8.0794359475        6.4268873263        4.4643276801
S             8.1177163940        6.3272173961        1.1887605053
Mo            8.1310190218        9.9004500305        2.7911690766
S             6.4815071628        8.9772080522        4.3544197019
S             6.5724051051        9.0021106882        1.1433372738
Mo            3.4258837612        1.7411465720        2.7310969894
S             4.9864394334        0.8240407913        4.3275923050
S             4.9978028252        0.8246157437        1.1390144641
Mo            5.0497653415        4.4897019251        2.5931364941
S             3.5046725715        3.6558163934        4.2619101462
S             3.4131657449        3.5485625231        1.0926692936
Mo            3.4866315904        7.2008127086        2.6810736091
S             4.9969883605        6.3050570725        1.0410935777
Mo            4.9845384634        9.9144228144        2.7268802024
S             3.4731353147        8.9611132137        4.3408935463
S             3.3896171476        9.0218356579        1.1278129373
Mo            0.2664217504        1.7227687603        2.7621994904
S             1.8653341249        0.8500357757        4.3589713866
S             1.8354306348        0.8204693404        1.1633159863
Mo            1.8628369536        4.4844369473        2.7183323182
S             0.2801505167        3.5789106280        4.3097434548
S             0.2617063016        3.5482850594        1.1413098382
Mo            0.2875664198        7.1924507711        2.7937739554
S             1.9498183204        6.2867674454        4.3254357622
S             1.8336978405        6.3162695075        1.1387063238
Mo            1.8523456125        9.9288463559        2.7742079214
S             0.2880240789        9.0363090207        4.3804338923
S             0.2618139379        9.0125996373        1.2054899885
H             8.4091226217        5.2719229487        5.1319402381
End final coordinates



     Writing all to output data dir ./MoS2-V-O.save/
 
     init_run     :      3.07s CPU      3.35s WALL (       1 calls)
     electrons    :   1652.99s CPU   1831.19s WALL (      20 calls)
     update_pot   :     26.64s CPU     27.89s WALL (      19 calls)
     forces       :     26.10s CPU     29.52s WALL (      20 calls)

     Called by init_run:
     wfcinit      :      0.39s CPU      0.44s WALL (       1 calls)
     potinit      :      2.02s CPU      2.14s WALL (       1 calls)
     hinit0       :      0.15s CPU      0.19s WALL (       1 calls)

     Called by electrons:
     c_bands      :    204.67s CPU    207.78s WALL (     165 calls)
     sum_band     :     47.45s CPU     58.02s WALL (     165 calls)
     v_of_rho     :     67.48s CPU     80.58s WALL (     173 calls)
     newd         :     21.98s CPU     31.64s WALL (     173 calls)
     mix_rho      :   1320.34s CPU   1461.64s WALL (     165 calls)

     Called by c_bands:
     init_us_2    :      3.53s CPU      3.78s WALL (     331 calls)
     init_us_2:cp :      3.53s CPU      3.78s WALL (     331 calls)
     regterg      :    192.56s CPU    195.40s WALL (     165 calls)

     Called by *egterg:
     rdiaghg      :     15.15s CPU     15.34s WALL (     861 calls)
     h_psi        :    111.10s CPU    112.12s WALL (     893 calls)
     s_psi        :     13.77s CPU     13.82s WALL (     893 calls)
     g_psi        :      0.72s CPU      0.73s WALL (     727 calls)

     Called by h_psi:
     h_psi:calbec :     15.73s CPU     15.81s WALL (     893 calls)
     vloc_psi     :     80.25s CPU     81.07s WALL (     893 calls)
     add_vuspsi   :     13.48s CPU     13.58s WALL (     893 calls)

     General routines
     calbec       :     22.49s CPU     22.61s WALL (    1138 calls)
     fft          :     43.96s CPU     51.76s WALL (   11724 calls)
     ffts         :    591.31s CPU    727.71s WALL (  321715 calls)
     fftw         :     68.53s CPU     69.14s WALL (  102017 calls)
     interpolate  :      1.25s CPU      1.47s WALL (     173 calls)
 
     Parallel routines
 
     PWSCF        :  28m32.26s CPU  31m37.64s WALL

 
   This run was terminated on:   3:49:48   4Nov2023            

=------------------------------------------------------------------------------=
   JOB DONE.
=------------------------------------------------------------------------------=
