
     Program PWSCF v.7.2 starts on  3Nov2023 at 22:45: 4 

     This program is part of the open-source Quantum ESPRESSO suite
     for quantum simulation of materials; please cite
         "P. Giannozzi et al., J. Phys.:Condens. Matter 21 395502 (2009);
         "P. Giannozzi et al., J. Phys.:Condens. Matter 29 465901 (2017);
         "P. Giannozzi et al., J. Chem. Phys. 152 154105 (2020);
          URL http://www.quantum-espresso.org", 
     in publications or presentations arising from this work. More details at
     http://www.quantum-espresso.org/quote

     Parallel version (MPI & OpenMP), running on      48 processor cores
     Number of MPI processes:                48
     Threads/MPI process:                     1

     MPI processes distributed on     1 nodes
     92112 MiB available memory on the printing compute node when the environment starts
 
     Waiting for input...
     Reading input from standard input
Warning: card &CELL ignored
Warning: card CELL_DYNAMICS = 'BFGS', ignored
Warning: card CELL_DOFREE = '2DXY' ignored
Warning: card / ignored

     Current dimensions of program PWSCF are:
     Max number of different atomic species (ntypx) = 10
     Max number of k-points (npk) =  40000
     Max angular momentum in pseudopotentials (lmaxx) =  4

     IMPORTANT: XC functional enforced from input :
     Exchange-correlation= RVV10
                           (   1   4  13   4  26   0   0)
     Any further DFT definition will be discarded
     Please, verify this is what you really want


     gamma-point specific algorithms are used
     signal trapping enabled: kill the code with -SIGUSR1 to stop cleanly the simulation 
 
     R & G space division:  proc/nbgrp/npool/nimage =      48
     Subspace diagonalization in iterative solution of the eigenvalue problem:
     one sub-group per band group will be used
     scalapack distributed-memory algorithm (size of sub-group:  2*  2 procs)

 
     Parallelization info
     --------------------
     sticks:   dense  smooth     PW     G-vecs:    dense   smooth      PW
     Min         243     194     47                49060    35090    4376
     Max         246     196     50                49086    35128    4410
     Sum       11735    9389   2349              2355467  1685513  210763
 
     Using Slab Decomposition
 


     bravais-lattice index     =            0
     lattice parameter (alat)  =      17.8707  a.u.
     unit-cell volume          =   17436.2743 (a.u.)^3
     number of atoms/cell      =           36
     number of atomic types    =            3
     number of electrons       =       307.00
     number of Kohn-Sham states=          185
     kinetic-energy cutoff     =      80.0000  Ry
     charge density cutoff     =     400.0000  Ry
     scf convergence threshold =      1.0E-06
     mixing beta               =       0.7000
     number of iterations used =            8  local-TF  mixing
     energy convergence thresh.=      1.0E-04
     force convergence thresh. =      1.0E-02
     Exchange-correlation= RVV10
                           (   1   4  13   4  26   0   0)
     nstep                     =          200


     celldm(1)=  17.870686  celldm(2)=   0.000000  celldm(3)=   0.000000
     celldm(4)=   0.000000  celldm(5)=   0.000000  celldm(6)=   0.000000

     crystal axes: (cart. coord. in units of alat)
               a(1) = (   1.000000   0.000000   0.000000 )  
               a(2) = (   0.000000   1.155671   0.000000 )  
               a(3) = (   0.000000   0.000000   2.643601 )  

     reciprocal axes: (cart. coord. in units 2 pi/alat)
               b(1) = (  1.000000  0.000000  0.000000 )  
               b(2) = (  0.000000  0.865298  0.000000 )  
               b(3) = (  0.000000  0.000000  0.378272 )  


     PseudoPot. # 1 for Mo read from file:
     ../pseudo/Mo_ONCV_PBE-1.0.oncvpsp.upf
     MD5 check sum: 1b5d28e075c9ccadda658a603575cd1f
     Pseudo is Norm-conserving, Zval = 14.0
     Generated using ONCVPSP code by D. R. Hamann
     Using radial grid of 1526 points,  6 beta functions with: 
                l(1) =   0
                l(2) =   0
                l(3) =   1
                l(4) =   1
                l(5) =   2
                l(6) =   2

     PseudoPot. # 2 for S  read from file:
     ../pseudo/s_pbe_v1.4.uspp.F.UPF
     MD5 check sum: 88d86576ff6df21479756cfb9bdac1df
     Pseudo is Ultrasoft + core correction, Zval =  6.0
     Generated by new atomic code, or converted to UPF format
     Using radial grid of  907 points,  6 beta functions with: 
                l(1) =   0
                l(2) =   0
                l(3) =   1
                l(4) =   1
                l(5) =   2
                l(6) =   2
     Q(r) pseudized with  8 coefficients,  rinner =    1.300   1.300   1.300
                                                       1.300   1.300

     PseudoPot. # 3 for H  read from file:
     ../pseudo/H_ONCV_PBE-1.0.oncvpsp.upf
     MD5 check sum: 1790becc920ee074925cf490c71280fe
     Pseudo is Norm-conserving, Zval =  1.0
     Generated using ONCVPSP code by D. R. Hamann
     Using radial grid of 1166 points,  2 beta functions with: 
                l(1) =   0
                l(2) =   0

     atomic species   valence    mass     pseudopotential
        Mo            14.00    95.94000     Mo( 1.00)
        S              6.00    32.06500     S ( 1.00)
        H              1.00     1.00794     H ( 1.00)

     No symmetry found



   Cartesian axes

     site n.     atom                  positions (alat units)
         1           Mo  tau(   1) = (   0.6952221   0.1890506   0.2985846  )
         2           S   tau(   2) = (   0.8646417   0.0856217   0.4689279  )
         3           S   tau(   3) = (   0.8663890   0.0857843   0.1351291  )
         4           Mo  tau(   4) = (   0.8560186   0.4753274   0.2873942  )
         5           S   tau(   5) = (   0.6873294   0.3936244   0.4596353  )
         6           S   tau(   6) = (   0.6929804   0.3713468   0.1185692  )
         7           Mo  tau(   7) = (   0.6862796   0.7633098   0.2825370  )
         8           S   tau(   8) = (   0.8545980   0.6708292   0.4486168  )
         9           S   tau(   9) = (   0.8545123   0.6666874   0.1146125  )
        10           Mo  tau(  10) = (   0.8629403   1.0471007   0.3006803  )
        11           S   tau(  11) = (   0.6868280   0.9456650   0.4634891  )
        12           S   tau(  12) = (   0.6998113   0.9568511   0.1205389  )
        13           Mo  tau(  13) = (   0.3618216   0.1847309   0.2935964  )
        14           S   tau(  14) = (   0.5260962   0.0863870   0.4600448  )
        15           S   tau(  15) = (   0.5348379   0.0894875   0.1297123  )
        16           Mo  tau(  16) = (   0.5265817   0.4772436   0.2784130  )
        17           S   tau(  17) = (   0.3624753   0.3882513   0.4525556  )
        18           S   tau(  18) = (   0.3635411   0.3752055   0.1119148  )
        19           Mo  tau(  19) = (   0.3652268   0.7630864   0.2781795  )
        20           S   tau(  20) = (   0.5269494   0.6690381   0.1096838  )
        21           Mo  tau(  21) = (   0.5300192   1.0470394   0.2900995  )
        22           S   tau(  22) = (   0.3670346   0.9457522   0.4574073  )
        23           S   tau(  23) = (   0.3604225   0.9585725   0.1159032  )
        24           Mo  tau(  24) = (   0.0313099   0.1847895   0.3013130  )
        25           S   tau(  25) = (   0.1956761   0.0838230   0.4650863  )
        26           S   tau(  26) = (   0.1967693   0.0903508   0.1278874  )
        27           Mo  tau(  27) = (   0.1967578   0.4753919   0.2813011  )
        28           S   tau(  28) = (   0.0287851   0.3864324   0.4586755  )
        29           S   tau(  29) = (   0.0244514   0.3729871   0.1239344  )
        30           Mo  tau(  30) = (   0.0286728   0.7631204   0.2856894  )
        31           S   tau(  31) = (   0.2011512   0.6675435   0.4465001  )
        32           S   tau(  32) = (   0.1969214   0.6672839   0.1104564  )
        33           Mo  tau(  33) = (   0.1950294   1.0511147   0.2932237  )
        34           S   tau(  34) = (   0.0312912   0.9612169   0.4667423  )
        35           S   tau(  35) = (   0.0292670   0.9563028   0.1216485  )
        36           H   tau(  36) = (   0.2222222   0.2568157   0.5650415  )

     number of k points=     1  Gaussian smearing, width (Ry)=  0.0100
                       cart. coord. in units 2pi/alat
        k(    1) = (   0.0000000   0.0000000   0.0000000), wk =   2.0000000

     Dense  grid:  1177734 G-vectors     FFT dimensions: ( 120, 135, 320)

     Smooth grid:   842757 G-vectors     FFT dimensions: ( 108, 120, 270)

     Estimated max dynamical RAM per process >     146.59 MB

     Estimated total dynamical RAM >       6.87 GB

     Initial potential from superposition of free atoms

     starting charge     306.9873, renormalised to     307.0000

     negative rho (up, down):  1.410E-04 0.000E+00


---------------------------------------------------------------------------------
Carrying out rVV10 run using the following parameters:
Nqs =      20    Nr_points =    1024   r_max =   100.000
b_value =  6.30000    beta =  0.00901
     q_mesh =  0.00010000  0.00030000  0.00058939  0.00100810
               0.00161396  0.00249058  0.00375900  0.00559430
               0.00824984  0.01209221  0.01765183  0.02569619
               0.03733578  0.05417739  0.07854596  0.11380545
               0.16482331  0.23864234  0.34545298  0.50000000

Gradients computed in Reciprocal space

---------------------------------------------------------------------------------


     Starting wfcs are  213 randomized atomic wfcs

     total cpu time spent up to now is        2.7 secs

     Self-consistent Calculation

     iteration #  1     ecut=    80.00 Ry     beta= 0.70
     Davidson diagonalization with overlap
     ethr =  1.00E-02,  avg # of iterations =  2.0

     Threshold (ethr) on eigenvalues was too large:
     Diagonalizing with lowered threshold

     Davidson diagonalization with overlap
     ethr =  3.42E-04,  avg # of iterations =  4.0

     negative rho (up, down):  2.096E-08 0.000E+00

     total cpu time spent up to now is       16.1 secs

     total energy              =   -2205.58285799 Ry
     estimated scf accuracy    <       1.34140063 Ry

     iteration #  2     ecut=    80.00 Ry     beta= 0.70
     Davidson diagonalization with overlap
     ethr =  4.37E-04,  avg # of iterations =  2.0

     total cpu time spent up to now is       18.4 secs

     total energy              =   -2205.41379287 Ry
     estimated scf accuracy    <       0.54646867 Ry

     iteration #  3     ecut=    80.00 Ry     beta= 0.70
     Davidson diagonalization with overlap
     ethr =  1.78E-04,  avg # of iterations =  2.0

     total cpu time spent up to now is       20.8 secs

     total energy              =   -2205.51208445 Ry
     estimated scf accuracy    <       0.05376902 Ry

     iteration #  4     ecut=    80.00 Ry     beta= 0.70
     Davidson diagonalization with overlap
     c_bands:  1 eigenvalues not converged
     ethr =  1.75E-05,  avg # of iterations = 20.0

     total cpu time spent up to now is       24.2 secs

     total energy              =   -2205.51313695 Ry
     estimated scf accuracy    <       0.02594782 Ry

     iteration #  5     ecut=    80.00 Ry     beta= 0.70
     Davidson diagonalization with overlap
     ethr =  8.45E-06,  avg # of iterations =  7.0

     total cpu time spent up to now is       26.6 secs

     total energy              =   -2205.51371064 Ry
     estimated scf accuracy    <       0.01874185 Ry

     iteration #  6     ecut=    80.00 Ry     beta= 0.70
     Davidson diagonalization with overlap
     ethr =  6.10E-06,  avg # of iterations =  2.0

     total cpu time spent up to now is       28.8 secs

     total energy              =   -2205.51251713 Ry
     estimated scf accuracy    <       0.01259687 Ry

     iteration #  7     ecut=    80.00 Ry     beta= 0.70
     Davidson diagonalization with overlap
     ethr =  4.10E-06,  avg # of iterations =  1.0

     negative rho (up, down):  2.627E-05 0.000E+00

     total cpu time spent up to now is       32.9 secs

     total energy              =   -2205.51062008 Ry
     estimated scf accuracy    <       0.00737622 Ry

     iteration #  8     ecut=    80.00 Ry     beta= 0.70
     Davidson diagonalization with overlap
     ethr =  2.40E-06,  avg # of iterations =  2.0

     negative rho (up, down):  1.062E-02 0.000E+00

     total cpu time spent up to now is       37.4 secs

     total energy              =   -2205.51047360 Ry
     estimated scf accuracy    <       0.00322676 Ry

     iteration #  9     ecut=    80.00 Ry     beta= 0.70
     Davidson diagonalization with overlap
     ethr =  1.05E-06,  avg # of iterations =  2.0

     negative rho (up, down):  2.965E-02 0.000E+00

     total cpu time spent up to now is       41.6 secs

     total energy              =   -2205.51047522 Ry
     estimated scf accuracy    <       0.00182878 Ry

     iteration # 10     ecut=    80.00 Ry     beta= 0.70
     Davidson diagonalization with overlap
     ethr =  5.96E-07,  avg # of iterations =  2.0

     negative rho (up, down):  2.770E-02 0.000E+00

     total cpu time spent up to now is       46.1 secs

     total energy              =   -2205.51059445 Ry
     estimated scf accuracy    <       0.00058148 Ry

     iteration # 11     ecut=    80.00 Ry     beta= 0.70
     Davidson diagonalization with overlap
     ethr =  1.89E-07,  avg # of iterations =  2.0

     negative rho (up, down):  8.637E-03 0.000E+00

     total cpu time spent up to now is       52.7 secs

     total energy              =   -2205.51062765 Ry
     estimated scf accuracy    <       0.00013871 Ry

     iteration # 12     ecut=    80.00 Ry     beta= 0.70
     Davidson diagonalization with overlap
     ethr =  4.52E-08,  avg # of iterations =  5.0

     negative rho (up, down):  2.946E-03 0.000E+00

     total cpu time spent up to now is       59.2 secs

     total energy              =   -2205.51067870 Ry
     estimated scf accuracy    <       0.00001361 Ry

     iteration # 13     ecut=    80.00 Ry     beta= 0.70
     Davidson diagonalization with overlap
     ethr =  4.43E-09,  avg # of iterations = 17.0

     negative rho (up, down):  5.359E-04 0.000E+00

     total cpu time spent up to now is       68.3 secs

     total energy              =   -2205.51068611 Ry
     estimated scf accuracy    <       0.00000202 Ry

     iteration # 14     ecut=    80.00 Ry     beta= 0.70
     Davidson diagonalization with overlap
     ethr =  6.58E-10,  avg # of iterations =  4.0

     negative rho (up, down):  1.376E-04 0.000E+00

     total cpu time spent up to now is       70.5 secs

     End of self-consistent calculation

          k = 0.0000 0.0000 0.0000 (105382 PWs)   bands (ev):

   -62.9083 -62.8933 -62.8788 -62.8756 -62.8607 -62.8524 -62.8315 -62.8133
   -62.8123 -62.7956 -62.7913 -62.7811 -37.2578 -37.1895 -37.1758 -37.1549
   -37.1494 -37.1331 -37.1047 -37.0949 -37.0899 -37.0809 -37.0790 -37.0580
   -37.0547 -37.0506 -37.0424 -37.0342 -37.0304 -37.0246 -37.0114 -36.9953
   -36.9896 -36.9850 -36.9709 -36.9648 -36.9573 -36.9467 -36.9388 -36.9236
   -36.9189 -36.9009 -36.8901 -36.8653 -36.8610 -36.8294 -36.7669 -36.7440
   -16.0273 -15.2350 -15.1846 -15.0571 -14.9410 -14.8392 -14.5837 -14.5771
   -14.4780 -14.4351 -14.4072 -14.3876 -14.3487 -14.3125 -14.1880 -14.1692
   -14.1510 -14.1287 -14.0483 -13.9386 -13.8674 -13.8411 -13.8200  -7.9209
    -7.6117  -7.4455  -7.3260  -7.3005  -7.2681  -7.2054  -7.1772  -6.9463
    -6.8503  -6.8099  -6.7851  -6.7084  -6.5584  -6.5300  -6.4899  -6.4506
    -6.3306  -6.2579  -6.0610  -5.9937  -5.9402  -5.8930  -5.8488  -5.8087
    -5.7869  -5.7331  -5.7083  -5.6798  -5.6323  -5.5564  -5.5547  -5.4998
    -5.4705  -5.3904  -5.2492  -5.1559  -5.0774  -5.0185  -5.0067  -4.9995
    -4.9439  -4.8466  -4.6753  -4.5382  -4.3798  -4.3528  -4.3030  -4.2691
    -4.2157  -4.0794  -4.0377  -3.8480  -3.8314  -3.8219  -3.7581  -3.7227
    -3.6874  -3.6080  -3.5691  -3.5325  -3.5102  -3.4825  -3.4678  -3.4062
    -3.3838  -3.2452  -3.1585  -2.9279  -2.9068  -2.8298  -2.8121  -2.7583
    -2.7374  -2.6821  -2.6632  -2.6499  -2.6005  -2.3078  -2.1374  -2.0176
    -1.9383  -1.1590  -0.8333  -0.7059  -0.2014  -0.1540  -0.1344  -0.0708
    -0.0024   0.1164   0.2008   0.2096   0.2481   0.2837   0.3458   0.3987
     0.4364   0.4976   0.5330   0.5715   0.5791   0.6510   0.6957   0.7222
     0.7532   0.7642   0.8033   0.8712   0.8927   0.9347   0.9996   1.2656
     1.3527

     the Fermi energy is    -1.1591 ev

!    total energy              =   -2205.51068841 Ry
     estimated scf accuracy    <       0.00000027 Ry
     smearing contrib. (-TS)   =      -0.00566024 Ry
     internal energy E=F+TS    =   -2205.50502817 Ry

     The total energy is F=E-TS. E is the sum of the following terms:
     one-electron contribution =  -18046.92491449 Ry
     hartree contribution      =    9009.99420772 Ry
     xc contribution           =    -385.20180985 Ry
     ewald contribution        =    7216.62748845 Ry

     convergence has been achieved in  14 iterations

     negative rho (up, down):  1.376E-04 0.000E+00

     Forces acting on atoms (cartesian axes, Ry/au):

     atom    1 type  1   force =     0.01299060   -0.02353591    0.00400154
     atom    2 type  2   force =    -0.01582283    0.01672393    0.00134527
     atom    3 type  2   force =    -0.01382286    0.00793363   -0.00337077
     atom    4 type  1   force =     0.00197890    0.00657479   -0.00516991
     atom    5 type  2   force =    -0.00110540   -0.00558121   -0.00722682
     atom    6 type  2   force =     0.00026087    0.00857824   -0.00133600
     atom    7 type  1   force =     0.00718410   -0.00961022   -0.01038896
     atom    8 type  2   force =     0.00177012   -0.00378132    0.01832677
     atom    9 type  2   force =     0.01146137    0.00492946    0.01185504
     atom   10 type  1   force =    -0.01064024    0.01138354   -0.02690601
     atom   11 type  2   force =     0.00472829   -0.00209716   -0.00747528
     atom   12 type  2   force =    -0.00136848    0.00043525    0.00734520
     atom   13 type  1   force =     0.01146421    0.00420717   -0.02172938
     atom   14 type  2   force =     0.00749213   -0.00016134    0.01275981
     atom   15 type  2   force =    -0.01069424    0.00279519   -0.00831878
     atom   16 type  1   force =     0.00536639    0.01706823   -0.00108765
     atom   17 type  2   force =    -0.01654918   -0.02133042    0.01468000
     atom   18 type  2   force =    -0.00281562   -0.00699351    0.01218088
     atom   19 type  1   force =     0.00608121   -0.01480871   -0.00595223
     atom   20 type  2   force =     0.00414866   -0.00515723    0.00156091
     atom   21 type  1   force =    -0.00612214    0.00608689    0.00056509
     atom   22 type  2   force =    -0.00282416   -0.00202194   -0.00281449
     atom   23 type  2   force =    -0.00281849    0.00208485    0.01058038
     atom   24 type  1   force =    -0.01071591   -0.00340397   -0.02589945
     atom   25 type  2   force =     0.01991845    0.07897730    0.04518894
     atom   26 type  2   force =    -0.01119366   -0.00217065   -0.00448852
     atom   27 type  1   force =     0.00023048   -0.00092634    0.00806820
     atom   28 type  2   force =     0.00931631   -0.00770972   -0.00076733
     atom   29 type  2   force =     0.00274798   -0.00075319   -0.00323898
     atom   30 type  1   force =    -0.00426593    0.00811048   -0.00538807
     atom   31 type  2   force =     0.00062096    0.00070264    0.01640747
     atom   32 type  2   force =    -0.00907126    0.00918046    0.00717102
     atom   33 type  1   force =     0.01459614   -0.02288210   -0.03334657
     atom   34 type  2   force =     0.00247603   -0.04419699   -0.00910654
     atom   35 type  2   force =    -0.00590303    0.00737540    0.01631983
     atom   36 type  3   force =     0.00090025   -0.01602552   -0.00434459
     The non-local contrib.  to forces
     atom    1 type  1   force =     0.00005646    0.03195709   -0.01223791
     atom    2 type  2   force =    -0.01002281    0.00479710   -0.26991125
     atom    3 type  2   force =    -0.01720923   -0.00271245    0.26973574
     atom    4 type  1   force =     0.00310316    0.00335377    0.00571352
     atom    5 type  2   force =     0.00843975   -0.03438672   -0.24641350
     atom    6 type  2   force =    -0.00482712    0.01423387    0.26415192
     atom    7 type  1   force =    -0.02137988    0.00196879   -0.01542004
     atom    8 type  2   force =     0.00358181   -0.00301360   -0.25263910
     atom    9 type  2   force =     0.00763077   -0.00854852    0.27849479
     atom   10 type  1   force =     0.00592806   -0.00078041   -0.00033529
     atom   11 type  2   force =     0.01362587    0.00582621   -0.25909863
     atom   12 type  2   force =    -0.01227403   -0.01654071    0.26327991
     atom   13 type  1   force =    -0.00296070    0.01451937    0.00148840
     atom   14 type  2   force =     0.00826431   -0.00771177   -0.25952779
     atom   15 type  2   force =    -0.01232133   -0.00510453    0.26032132
     atom   16 type  1   force =    -0.00939887    0.02926558   -0.03206422
     atom   17 type  2   force =    -0.05406978   -0.06112428   -0.17157044
     atom   18 type  2   force =    -0.00450995   -0.00467821    0.27380553
     atom   19 type  1   force =     0.01227032    0.00181744   -0.01670257
     atom   20 type  2   force =    -0.00080637   -0.02261286    0.26689486
     atom   21 type  1   force =     0.00286198    0.02325746    0.00693581
     atom   22 type  2   force =    -0.00487795    0.00220909   -0.25752788
     atom   23 type  2   force =     0.00427153   -0.01577416    0.26917540
     atom   24 type  1   force =     0.00824409    0.01284437   -0.00692161
     atom   25 type  2   force =     0.03275557    0.14954054   -0.13637893
     atom   26 type  2   force =    -0.00256722   -0.01196547    0.26555204
     atom   27 type  1   force =     0.00048483    0.00783069    0.01233220
     atom   28 type  2   force =     0.01157509   -0.03132017   -0.25398985
     atom   29 type  2   force =     0.00775234    0.00096267    0.26385351
     atom   30 type  1   force =     0.00025896    0.01825606    0.00895123
     atom   31 type  2   force =    -0.00684940    0.00190773   -0.25284785
     atom   32 type  2   force =    -0.00272318   -0.00923001    0.27503610
     atom   33 type  1   force =    -0.00934341    0.01290774   -0.00208808
     atom   34 type  2   force =    -0.00416018   -0.04001156   -0.27107935
     atom   35 type  2   force =    -0.00054857   -0.01138198    0.27130360
     atom   36 type  3   force =     0.00050449   -0.00548709   -0.00780805
     The ionic contribution  to forces
     atom    1 type  1   force =     0.42480786    0.18218439    5.60638971
     atom    2 type  2   force =    -0.79102913    0.31343660   39.25005794
     atom    3 type  2   force =    -0.19018307   -0.01058264  -36.11295156
     atom    4 type  1   force =    -0.02538702    0.70902902    0.57989912
     atom    5 type  2   force =    -0.93468384    1.54710519   38.72923572
     atom    6 type  2   force =     0.35137837   -0.48589836  -38.04501422
     atom    7 type  1   force =    -2.60466630   -2.73941835    2.58355274
     atom    8 type  2   force =    -1.01870256    0.08512804   37.38833257
     atom    9 type  2   force =     0.33117146   -0.01494484  -38.00023986
     atom   10 type  1   force =    -1.16843285   -0.42780316    5.64155438
     atom   11 type  2   force =    -0.55496563   -1.63658476   39.14621573
     atom   12 type  2   force =     0.44433754    0.67973146  -37.84355542
     atom   13 type  1   force =     0.82900724    0.79138769    2.20792490
     atom   14 type  2   force =     0.24081071   -0.13219237   38.46158398
     atom   15 type  2   force =     0.18909829   -0.09203533  -36.83986092
     atom   16 type  1   force =     0.13160490    4.10408274    0.35274605
     atom   17 type  2   force =     1.26531761    1.93493544   37.58050143
     atom   18 type  2   force =    -0.13067676   -0.61590541  -38.64475557
     atom   19 type  1   force =     2.76064506   -2.37405891    0.62652642
     atom   20 type  2   force =     0.24251759   -0.17443514  -38.47828718
     atom   21 type  1   force =     0.12360816   -0.07506451    1.12632612
     atom   22 type  2   force =     0.49147061   -1.78959518   38.42265392
     atom   23 type  2   force =    -0.07616429    0.64353857  -38.29557019
     atom   24 type  1   force =    -0.93397946    0.97762946    5.33656973
     atom   25 type  2   force =     0.53926399   -0.49478500   38.83949151
     atom   26 type  2   force =    -0.29544543    0.01572322  -37.42481585
     atom   27 type  1   force =    -0.01647060    0.77276993   -2.66273250
     atom   28 type  2   force =    -0.34863405    1.28615361   37.99714346
     atom   29 type  2   force =    -0.30416867   -0.39964866  -37.33653797
     atom   30 type  1   force =    -0.39201391   -0.83539481   -0.05233852
     atom   31 type  2   force =     1.21790909    0.08770784   37.29764829
     atom   32 type  2   force =    -0.48329681    0.02747933  -38.65116594
     atom   33 type  1   force =     0.77317039   -1.10171077    1.92741660
     atom   34 type  2   force =     0.19637692   -1.51801185   39.34805788
     atom   35 type  2   force =    -0.31338310    0.45726778  -37.81744123
     atom   36 type  3   force =     0.02978769    0.30277972    7.75543874
     The local contribution  to forces
     atom    1 type  1   force =    -0.41208224   -0.23742216   -5.59027300
     atom    2 type  2   force =     0.78504288   -0.30120873  -38.99972517
     atom    3 type  2   force =     0.19274698    0.02124831   35.86087565
     atom    4 type  1   force =     0.02430822   -0.70584638   -0.59096184
     atom    5 type  2   force =     0.92578647   -1.52022435  -38.51048647
     atom    6 type  2   force =    -0.34682565    0.48157697   37.80065332
     atom    7 type  1   force =     2.63338386    2.72793652   -2.57892090
     atom    8 type  2   force =     1.01710089   -0.08643808  -37.13794365
     atom    9 type  2   force =    -0.32715847    0.02784346   37.75474184
     atom   10 type  1   force =     1.15193251    0.43986657   -5.66815108
     atom   11 type  2   force =     0.54668588    1.62928975  -38.91543749
     atom   12 type  2   force =    -0.43462212   -0.66419542   37.60857908
     atom   13 type  1   force =    -0.81453944   -0.80154345   -2.23123436
     atom   14 type  2   force =    -0.24122466    0.13988090  -38.21005161
     atom   15 type  2   force =    -0.18816562    0.09963874   36.59199112
     atom   16 type  1   force =    -0.11701112   -4.11672893   -0.32215107
     atom   17 type  2   force =    -1.23063656   -1.89841821  -37.41091573
     atom   18 type  2   force =     0.13237560    0.61412572   38.40437395
     atom   19 type  1   force =    -2.76708483    2.35746118   -0.61616664
     atom   20 type  2   force =    -0.23779210    0.19095768   38.23423233
     atom   21 type  1   force =    -0.13273661    0.05788457   -1.13280224
     atom   22 type  2   force =    -0.48955370    1.78587040  -38.18870887
     atom   23 type  2   force =     0.06950440   -0.62706285   38.05812197
     atom   24 type  1   force =     0.91514268   -0.99376199   -5.35549334
     atom   25 type  2   force =    -0.55070116    0.43248193  -38.67227617
     atom   26 type  2   force =     0.28703850   -0.00660289   37.17593478
     atom   27 type  1   force =     0.01635311   -0.78149371    2.65828702
     atom   28 type  2   force =     0.34690163   -1.26467897  -37.76416745
     atom   29 type  2   force =     0.29979000    0.39858408   37.09022004
     atom   30 type  1   force =     0.38758088    0.82507151    0.03778458
     atom   31 type  2   force =    -1.21086266   -0.08901648  -37.04921375
     atom   32 type  2   force =     0.47713872   -0.00965323   38.40454710
     atom   33 type  1   force =    -0.74913176    1.06587263   -1.95878973
     atom   34 type  2   force =    -0.19019583    1.51264519  -39.10734075
     atom   35 type  2   force =     0.30825645   -0.43960356   37.58370928
     atom   36 type  3   force =    -0.02939488   -0.31331990   -7.75200165
     The core correction contribution to forces
     atom    1 type  1   force =     0.00000000    0.00000000    0.00000000
     atom    2 type  2   force =     0.00023049   -0.00026892    0.02072595
     atom    3 type  2   force =     0.00080590    0.00002357   -0.02087445
     atom    4 type  1   force =     0.00000000    0.00000000    0.00000000
     atom    5 type  2   force =    -0.00066854    0.00188282    0.02007343
     atom    6 type  2   force =     0.00043719   -0.00123090   -0.02092544
     atom    7 type  1   force =     0.00000000    0.00000000    0.00000000
     atom    8 type  2   force =    -0.00010436    0.00048128    0.02031754
     atom    9 type  2   force =    -0.00015586    0.00052206   -0.02106578
     atom   10 type  1   force =     0.00000000    0.00000000    0.00000000
     atom   11 type  2   force =    -0.00062592   -0.00056745    0.02061351
     atom   12 type  2   force =     0.00113793    0.00137368   -0.02084133
     atom   13 type  1   force =     0.00000000    0.00000000    0.00000000
     atom   14 type  2   force =    -0.00041149   -0.00011033    0.02048354
     atom   15 type  2   force =     0.00065039    0.00034883   -0.02054419
     atom   16 type  1   force =     0.00000000    0.00000000    0.00000000
     atom   17 type  2   force =     0.00285780    0.00325878    0.01630170
     atom   18 type  2   force =     0.00007344   -0.00041956   -0.02102933
     atom   19 type  1   force =     0.00000000    0.00000000    0.00000000
     atom   20 type  2   force =     0.00016198    0.00084251   -0.02124127
     atom   21 type  1   force =     0.00000000    0.00000000    0.00000000
     atom   22 type  2   force =     0.00008872   -0.00043140    0.02046986
     atom   23 type  2   force =    -0.00045821    0.00130483   -0.02095299
     atom   24 type  1   force =     0.00000000    0.00000000    0.00000000
     atom   25 type  2   force =    -0.00139027   -0.00827976    0.01410213
     atom   26 type  2   force =    -0.00015442    0.00066311   -0.02095104
     atom   27 type  1   force =     0.00000000    0.00000000    0.00000000
     atom   28 type  2   force =    -0.00051329    0.00213510    0.01998050
     atom   29 type  2   force =    -0.00060945   -0.00053238   -0.02059257
     atom   30 type  1   force =     0.00000000    0.00000000    0.00000000
     atom   31 type  2   force =     0.00038270    0.00004415    0.02049399
     atom   32 type  2   force =    -0.00014907    0.00053975   -0.02110252
     atom   33 type  1   force =     0.00000000    0.00000000    0.00000000
     atom   34 type  2   force =     0.00050400    0.00122732    0.02100884
     atom   35 type  2   force =    -0.00014736    0.00101044   -0.02109083
     atom   36 type  3   force =     0.00000000    0.00000000    0.00000000
     The Hubbard contrib.    to forces
     atom    1 type  1   force =     0.00000000    0.00000000    0.00000000
     atom    2 type  2   force =     0.00000000    0.00000000    0.00000000
     atom    3 type  2   force =     0.00000000    0.00000000    0.00000000
     atom    4 type  1   force =     0.00000000    0.00000000    0.00000000
     atom    5 type  2   force =     0.00000000    0.00000000    0.00000000
     atom    6 type  2   force =     0.00000000    0.00000000    0.00000000
     atom    7 type  1   force =     0.00000000    0.00000000    0.00000000
     atom    8 type  2   force =     0.00000000    0.00000000    0.00000000
     atom    9 type  2   force =     0.00000000    0.00000000    0.00000000
     atom   10 type  1   force =     0.00000000    0.00000000    0.00000000
     atom   11 type  2   force =     0.00000000    0.00000000    0.00000000
     atom   12 type  2   force =     0.00000000    0.00000000    0.00000000
     atom   13 type  1   force =     0.00000000    0.00000000    0.00000000
     atom   14 type  2   force =     0.00000000    0.00000000    0.00000000
     atom   15 type  2   force =     0.00000000    0.00000000    0.00000000
     atom   16 type  1   force =     0.00000000    0.00000000    0.00000000
     atom   17 type  2   force =     0.00000000    0.00000000    0.00000000
     atom   18 type  2   force =     0.00000000    0.00000000    0.00000000
     atom   19 type  1   force =     0.00000000    0.00000000    0.00000000
     atom   20 type  2   force =     0.00000000    0.00000000    0.00000000
     atom   21 type  1   force =     0.00000000    0.00000000    0.00000000
     atom   22 type  2   force =     0.00000000    0.00000000    0.00000000
     atom   23 type  2   force =     0.00000000    0.00000000    0.00000000
     atom   24 type  1   force =     0.00000000    0.00000000    0.00000000
     atom   25 type  2   force =     0.00000000    0.00000000    0.00000000
     atom   26 type  2   force =     0.00000000    0.00000000    0.00000000
     atom   27 type  1   force =     0.00000000    0.00000000    0.00000000
     atom   28 type  2   force =     0.00000000    0.00000000    0.00000000
     atom   29 type  2   force =     0.00000000    0.00000000    0.00000000
     atom   30 type  1   force =     0.00000000    0.00000000    0.00000000
     atom   31 type  2   force =     0.00000000    0.00000000    0.00000000
     atom   32 type  2   force =     0.00000000    0.00000000    0.00000000
     atom   33 type  1   force =     0.00000000    0.00000000    0.00000000
     atom   34 type  2   force =     0.00000000    0.00000000    0.00000000
     atom   35 type  2   force =     0.00000000    0.00000000    0.00000000
     atom   36 type  3   force =     0.00000000    0.00000000    0.00000000
     The SCF correction term to forces
     atom    1 type  1   force =     0.00020804   -0.00025906    0.00011952
     atom    2 type  2   force =    -0.00004475   -0.00003595    0.00019458
     atom    3 type  2   force =     0.00001608   -0.00004699   -0.00015936
     atom    4 type  1   force =    -0.00004594    0.00003455    0.00017608
     atom    5 type  2   force =     0.00002029    0.00003802    0.00036078
     atom    6 type  2   force =     0.00009761   -0.00010717   -0.00020480
     atom    7 type  1   force =    -0.00015407   -0.00010102    0.00039603
     atom    8 type  2   force =    -0.00010614    0.00005720    0.00025618
     atom    9 type  2   force =    -0.00002701    0.00005348   -0.00007917
     atom   10 type  1   force =    -0.00006843    0.00009671    0.00002276
     atom   11 type  2   force =     0.00000760   -0.00006475    0.00022838
     atom   12 type  2   force =     0.00005172    0.00006240   -0.00012027
     atom   13 type  1   force =    -0.00004336   -0.00016028    0.00008846
     atom   14 type  2   force =     0.00005279   -0.00003161    0.00026848
     atom   15 type  2   force =     0.00004356   -0.00005635   -0.00022932
     atom   16 type  1   force =     0.00017099    0.00044501    0.00037837
     atom   17 type  2   force =    -0.00001872    0.00001402    0.00035981
     atom   18 type  2   force =    -0.00007843   -0.00011988   -0.00021692
     atom   19 type  1   force =     0.00025018   -0.00003225    0.00038735
     atom   20 type  2   force =     0.00006709    0.00008675   -0.00004104
     atom   21 type  1   force =     0.00014385    0.00000553    0.00010219
     atom   22 type  2   force =     0.00004768   -0.00007868    0.00029526
     atom   23 type  2   force =     0.00002760    0.00007463   -0.00019702
     atom   24 type  1   force =    -0.00012371   -0.00011965   -0.00005744
     atom   25 type  2   force =    -0.00001015    0.00001576    0.00024719
     atom   26 type  2   force =    -0.00006557    0.00000755   -0.00021167
     atom   27 type  1   force =    -0.00013734   -0.00003708    0.00017827
     atom   28 type  2   force =    -0.00001353   -0.00000314    0.00026279
     atom   29 type  2   force =    -0.00001672   -0.00012273   -0.00018521
     atom   30 type  1   force =    -0.00009234    0.00017388    0.00021142
     atom   31 type  2   force =     0.00004076    0.00005557    0.00032358
     atom   32 type  2   force =    -0.00004139    0.00004079   -0.00014695
     atom   33 type  1   force =    -0.00009955    0.00004446    0.00011142
     atom   34 type  2   force =    -0.00004935   -0.00004993    0.00024362
     atom   35 type  2   force =    -0.00008092    0.00007889   -0.00016422
     atom   36 type  3   force =     0.00000247   -0.00000208    0.00002315

     Total force =     0.147700     Total SCF correction =     0.001610

     BFGS Geometry Optimization
     Energy error            =      0.0E+00 Ry
     Gradient error          =      7.9E-02 Ry/Bohr

     number of scf cycles    =   1
     number of bfgs steps    =   0

     energy             new  =   -2205.5106884104 Ry

     new trust radius        =       0.0931461185 bohr
     new conv_thr            =       0.0000010000 Ry


ATOMIC_POSITIONS (angstrom)
Mo            6.5814227373        1.7753515635        2.8257605557
S             8.1683362558        0.8185539468        4.4352502380
S             8.1859183414        0.8154400435        1.2760996941
Mo            8.0962097519        4.4985361736        2.7150825966
S             6.4993243046        3.7194580401        4.3428363804
S             6.5534878437        3.5162769622        1.1205732475
Mo            6.4937833558        7.2133517764        2.6663868853
S             8.0826644370        6.3418700017        4.2521596697
S             8.0869827437        6.3073108760        1.0901364174
Mo            8.1549884753        9.9082043219        2.8292237136
S             6.4976697000        8.9418170466        4.3791497841
S             6.6172230289        9.0489415370        1.1437942129
Mo            3.4277262627        1.7491821873        2.7649724695
S             4.9791301556        0.8168558341        4.3572852929
S             5.0521746042        0.8477412596        1.2222563513
Mo            4.9825964503        4.5222101225        2.6323089878
S             3.4190842117        3.6603121136        4.2874779023
S             3.4364306198        3.5445278911        1.0647975238
Mo            3.4570797753        7.2084881086        2.6275270783
S             4.9854295696        6.3242031981        1.0380797287
Mo            5.0090242252        9.9048210931        2.7436999937
S             3.4694636350        8.9426813045        4.3241019462
S             3.4069376840        9.0660932380        1.1016671968
Mo            0.2904198694        1.7457082258        2.8357393104
S             1.8610026051        0.8344869940        4.4221223982
S             1.8548766039        0.8532772602        1.2070256292
Mo            1.8608132732        4.4951765653        2.6644668882
S             0.2771438291        3.6503190156        4.3371780469
S             0.2326853773        3.5268506550        1.1703038883
Mo            0.2688947177        7.2209379744        2.6988451836
S             1.9025668467        6.3131706538        4.2311265811
S             1.8574379113        6.3152019038        1.0483540217
Mo            1.8520706067        9.9280304661        2.7553000048
S             0.2972231604        9.0666097872        4.4090504906
S             0.2736476517        9.0474286087        1.1590368611
H             2.1019786130        2.4201641052        5.3411627011



     Writing config-only to output data dir ./MoS2-V-O.save/
     NEW-OLD atomic charge density approx. for the potential

     negative rho (up, down):  1.472E-04 0.000E+00

     total cpu time spent up to now is       73.8 secs

     Self-consistent Calculation

     iteration #  1     ecut=    80.00 Ry     beta= 0.70
     Davidson diagonalization with overlap
     ethr =  1.00E-06,  avg # of iterations = 10.0

     negative rho (up, down):  1.046E-04 0.000E+00

     total cpu time spent up to now is       86.8 secs

     total energy              =   -2205.52874022 Ry
     estimated scf accuracy    <       0.00202095 Ry

     iteration #  2     ecut=    80.00 Ry     beta= 0.70
     Davidson diagonalization with overlap
     ethr =  6.58E-07,  avg # of iterations =  2.0

     negative rho (up, down):  9.469E-05 0.000E+00

     total cpu time spent up to now is      104.2 secs

     total energy              =   -2205.52876829 Ry
     estimated scf accuracy    <       0.00041160 Ry

     iteration #  3     ecut=    80.00 Ry     beta= 0.70
     Davidson diagonalization with overlap
     ethr =  1.34E-07,  avg # of iterations =  5.0

     negative rho (up, down):  9.263E-05 0.000E+00

     total cpu time spent up to now is      118.9 secs

     total energy              =   -2205.52880618 Ry
     estimated scf accuracy    <       0.00008138 Ry

     iteration #  4     ecut=    80.00 Ry     beta= 0.70
     Davidson diagonalization with overlap
     ethr =  2.65E-08,  avg # of iterations =  9.0

     negative rho (up, down):  8.942E-05 0.000E+00

     total cpu time spent up to now is      136.1 secs

     total energy              =   -2205.52882382 Ry
     estimated scf accuracy    <       0.00001026 Ry

     iteration #  5     ecut=    80.00 Ry     beta= 0.70
     Davidson diagonalization with overlap
     ethr =  3.34E-09,  avg # of iterations =  5.0

     negative rho (up, down):  8.436E-05 0.000E+00

     total cpu time spent up to now is      145.7 secs

     total energy              =   -2205.52882485 Ry
     estimated scf accuracy    <       0.00000287 Ry

     iteration #  6     ecut=    80.00 Ry     beta= 0.70
     Davidson diagonalization with overlap
     ethr =  9.34E-10,  avg # of iterations =  4.0

     negative rho (up, down):  8.415E-05 0.000E+00

     total cpu time spent up to now is      160.0 secs

     total energy              =   -2205.52882550 Ry
     estimated scf accuracy    <       0.00000184 Ry

     iteration #  7     ecut=    80.00 Ry     beta= 0.70
     Davidson diagonalization with overlap
     ethr =  5.98E-10,  avg # of iterations =  2.0

     negative rho (up, down):  1.380E-04 0.000E+00

     total cpu time spent up to now is      161.8 secs

     End of self-consistent calculation

          k = 0.0000 0.0000 0.0000 (105382 PWs)   bands (ev):

   -62.9025 -62.8930 -62.8768 -62.8745 -62.8550 -62.8462 -62.8247 -62.8114
   -62.8017 -62.7889 -62.7815 -62.7718 -37.2519 -37.1818 -37.1710 -37.1505
   -37.1431 -37.1250 -37.0990 -37.0906 -37.0830 -37.0768 -37.0714 -37.0553
   -37.0501 -37.0460 -37.0389 -37.0284 -37.0236 -37.0172 -36.9997 -36.9918
   -36.9853 -36.9801 -36.9635 -36.9575 -36.9514 -36.9380 -36.9330 -36.9171
   -36.9133 -36.8967 -36.8813 -36.8608 -36.8503 -36.8256 -36.7621 -36.7372
   -16.0205 -15.2364 -15.1712 -15.0488 -14.9315 -14.8379 -14.5806 -14.5565
   -14.4671 -14.4333 -14.4106 -14.3821 -14.3449 -14.3082 -14.1816 -14.1656
   -14.1462 -14.1298 -14.0468 -13.9172 -13.8703 -13.8492 -13.8137  -7.9526
    -7.6093  -7.4446  -7.3076  -7.2928  -7.2496  -7.2041  -7.1794  -6.9586
    -6.8438  -6.8059  -6.7785  -6.6823  -6.5475  -6.5318  -6.4824  -6.4455
    -6.3259  -6.2495  -6.0668  -5.9773  -5.9217  -5.8733  -5.8441  -5.8055
    -5.7829  -5.7307  -5.7107  -5.6752  -5.6348  -5.5600  -5.5476  -5.4935
    -5.4464  -5.3659  -5.2305  -5.1382  -5.0640  -5.0139  -5.0081  -4.9963
    -4.9524  -4.8497  -4.6698  -4.5377  -4.3761  -4.3389  -4.2930  -4.2621
    -4.2264  -4.0892  -4.0416  -3.8408  -3.8353  -3.8210  -3.7538  -3.7203
    -3.6828  -3.5872  -3.5761  -3.5367  -3.5060  -3.4833  -3.4631  -3.3998
    -3.3804  -3.2498  -3.1619  -2.9222  -2.8964  -2.8291  -2.7930  -2.7553
    -2.7207  -2.6892  -2.6742  -2.6488  -2.5915  -2.2995  -2.1445  -2.0183
    -1.9530  -1.1521  -0.8168  -0.6977  -0.1885  -0.1542  -0.1274  -0.0598
     0.0177   0.1215   0.2054   0.2373   0.2678   0.2825   0.3608   0.4192
     0.4431   0.5049   0.5334   0.5779   0.5930   0.6548   0.7061   0.7246
     0.7432   0.7585   0.8169   0.8832   0.9013   0.9586   1.0044   1.2845
     1.3659

     the Fermi energy is    -1.1521 ev

!    total energy              =   -2205.52882488 Ry
     estimated scf accuracy    <       0.00000092 Ry
     smearing contrib. (-TS)   =      -0.00565496 Ry
     internal energy E=F+TS    =   -2205.52316992 Ry

     The total energy is F=E-TS. E is the sum of the following terms:
     one-electron contribution =  -18045.11843496 Ry
     hartree contribution      =    9009.14360806 Ry
     xc contribution           =    -385.19907345 Ry
     ewald contribution        =    7215.65073043 Ry

     convergence has been achieved in   7 iterations

     negative rho (up, down):  1.380E-04 0.000E+00

     Forces acting on atoms (cartesian axes, Ry/au):

     atom    1 type  1   force =     0.00328396   -0.01138494    0.00030293
     atom    2 type  2   force =    -0.00978755    0.01062053   -0.00176600
     atom    3 type  2   force =    -0.01274373    0.00628384   -0.01042721
     atom    4 type  1   force =     0.00436720    0.00318433    0.00035398
     atom    5 type  2   force =     0.00013199   -0.00505246   -0.00747330
     atom    6 type  2   force =     0.00015633    0.00620091    0.00048437
     atom    7 type  1   force =     0.00650716   -0.00680357   -0.00257046
     atom    8 type  2   force =     0.00152811   -0.00341946    0.01289185
     atom    9 type  2   force =     0.01078720    0.00447738    0.00614888
     atom   10 type  1   force =    -0.00343928    0.00825684   -0.00821036
     atom   11 type  2   force =     0.00424736   -0.00165350   -0.00978573
     atom   12 type  2   force =    -0.00344646    0.00044050    0.00212173
     atom   13 type  1   force =     0.00623568    0.00392427   -0.00781473
     atom   14 type  2   force =     0.00537978   -0.00015735    0.00741824
     atom   15 type  2   force =    -0.00563474    0.00118782   -0.00883351
     atom   16 type  1   force =    -0.00017791    0.00891110    0.00414532
     atom   17 type  2   force =    -0.00822614   -0.01560875    0.00817321
     atom   18 type  2   force =    -0.00135138   -0.00317300    0.00872571
     atom   19 type  1   force =     0.00483970   -0.01074822   -0.00000667
     atom   20 type  2   force =     0.00445883   -0.00401741   -0.00345965
     atom   21 type  1   force =    -0.00517865    0.00305567    0.00375458
     atom   22 type  2   force =    -0.00265992   -0.00232615   -0.00483464
     atom   23 type  2   force =     0.00001526   -0.00143086    0.00395606
     atom   24 type  1   force =    -0.00549671   -0.00127811   -0.00842776
     atom   25 type  2   force =     0.01572896    0.06716649    0.03155859
     atom   26 type  2   force =    -0.00757952   -0.00335807   -0.00674043
     atom   27 type  1   force =    -0.00063468   -0.00069508    0.00747074
     atom   28 type  2   force =     0.00379666   -0.00565570   -0.00491710
     atom   29 type  2   force =     0.00256804    0.00124288   -0.00483254
     atom   30 type  1   force =    -0.00341411    0.00105391    0.00309341
     atom   31 type  2   force =     0.00049031    0.00012817    0.01077328
     atom   32 type  2   force =    -0.00744789    0.00639141    0.00532189
     atom   33 type  1   force =     0.00747608   -0.00743867   -0.00964798
     atom   34 type  2   force =     0.00140627   -0.03097909   -0.01557198
     atom   35 type  2   force =    -0.00571811    0.00659022    0.00673808
     atom   36 type  3   force =    -0.00046808   -0.02393587   -0.00811278
     The non-local contrib.  to forces
     atom    1 type  1   force =     0.00176077    0.02874966   -0.01253134
     atom    2 type  2   force =    -0.00630516    0.00082956   -0.26949248
     atom    3 type  2   force =    -0.01531400   -0.00502107    0.26373428
     atom    4 type  1   force =     0.00286577    0.00565122    0.00484338
     atom    5 type  2   force =     0.00897928   -0.03451854   -0.24833326
     atom    6 type  2   force =    -0.00484002    0.01192857    0.26657274
     atom    7 type  1   force =    -0.02154630    0.00200352   -0.01679094
     atom    8 type  2   force =     0.00363572   -0.00284247   -0.25575373
     atom    9 type  2   force =     0.00623917   -0.00888234    0.27492862
     atom   10 type  1   force =     0.00462103   -0.00055510   -0.00160018
     atom   11 type  2   force =     0.01211953    0.00598736   -0.26118989
     atom   12 type  2   force =    -0.01305616   -0.01678291    0.26095463
     atom   13 type  1   force =    -0.00199596    0.01474538    0.00136596
     atom   14 type  2   force =     0.00661414   -0.00713946   -0.26167100
     atom   15 type  2   force =    -0.00821724   -0.00669011    0.25912393
     atom   16 type  1   force =    -0.00879917    0.03225031   -0.03474627
     atom   17 type  2   force =    -0.04742948   -0.05032018   -0.17898536
     atom   18 type  2   force =    -0.00301697   -0.00247592    0.27274443
     atom   19 type  1   force =     0.01363431    0.00290549   -0.01825797
     atom   20 type  2   force =    -0.00019383   -0.02068853    0.26352209
     atom   21 type  1   force =     0.00156272    0.02375892    0.00490678
     atom   22 type  2   force =    -0.00268098    0.00030907   -0.25866942
     atom   23 type  2   force =     0.00603253   -0.01895354    0.26558085
     atom   24 type  1   force =     0.00709685    0.01278583   -0.00738015
     atom   25 type  2   force =     0.03153034    0.16227665   -0.13555540
     atom   26 type  2   force =     0.00045734   -0.01280567    0.26610984
     atom   27 type  1   force =     0.00057025    0.00717373    0.01009622
     atom   28 type  2   force =     0.00698671   -0.02734795   -0.25853292
     atom   29 type  2   force =     0.00688486    0.00073866    0.26462687
     atom   30 type  1   force =     0.00008798    0.01954057    0.00773373
     atom   31 type  2   force =    -0.00692486    0.00093202   -0.25644276
     atom   32 type  2   force =    -0.00097081   -0.01077093    0.27393625
     atom   33 type  1   force =    -0.00796556    0.01018747   -0.00478295
     atom   34 type  2   force =    -0.00629017   -0.03052551   -0.27548397
     atom   35 type  2   force =    -0.00024492   -0.01179046    0.26597276
     atom   36 type  3   force =     0.00022172   -0.00772690   -0.00901441
     The ionic contribution  to forces
     atom    1 type  1   force =     0.17607585    0.51763157    5.74673834
     atom    2 type  2   force =    -0.57310732    0.17727109   39.32986785
     atom    3 type  2   force =    -0.16647631    0.01251671  -36.22404338
     atom    4 type  1   force =    -0.00604176    0.57354064    0.60415989
     atom    5 type  2   force =    -0.94697851    1.51903007   38.64568095
     atom    6 type  2   force =     0.31259213   -0.55106839  -37.96283274
     atom    7 type  1   force =    -2.63079142   -2.54948282    2.50112657
     atom    8 type  2   force =    -1.02301876    0.09515331   37.52711317
     atom    9 type  2   force =     0.34316857   -0.04013935  -37.99186684
     atom   10 type  1   force =    -0.86921930   -0.44655378    5.40231462
     atom   11 type  2   force =    -0.52572495   -1.64261039   39.09823120
     atom   12 type  2   force =     0.35785521    0.63798472  -37.80834808
     atom   13 type  1   force =     0.69972055    0.63084565    1.80043892
     atom   14 type  2   force =     0.13846726   -0.11914028   38.53790561
     atom   15 type  2   force =     0.22965873   -0.07198677  -36.88993169
     atom   16 type  1   force =     0.05110611    3.79892699    0.54937266
     atom   17 type  2   force =     1.36457331    1.93838455   37.60119313
     atom   18 type  2   force =    -0.12111476   -0.53956645  -38.55885299
     atom   19 type  1   force =     2.73351037   -2.29160260    0.64661715
     atom   20 type  2   force =     0.21846585   -0.14994236  -38.54858918
     atom   21 type  1   force =     0.08100211   -0.15794741    1.35541388
     atom   22 type  2   force =     0.43659728   -1.73593937   38.42989928
     atom   23 type  2   force =     0.02329524    0.57641963  -38.28048724
     atom   24 type  1   force =    -0.64731988    0.71143231    4.95631613
     atom   25 type  2   force =     0.41288841   -0.82947251   38.81437338
     atom   26 type  2   force =    -0.27476655    0.02404764  -37.33513637
     atom   27 type  1   force =     0.00300568    0.80630230   -2.39659039
     atom   28 type  2   force =    -0.41070801    1.23685621   37.96763942
     atom   29 type  2   force =    -0.27280565   -0.33694496  -37.34109057
     atom   30 type  1   force =    -0.32665081   -0.94196903   -0.00308792
     atom   31 type  2   force =     1.21323208    0.12192432   37.37508000
     atom   32 type  2   force =    -0.47044874   -0.03457598  -38.60156492
     atom   33 type  1   force =     0.56062742   -0.50969428    1.78176817
     atom   34 type  2   force =     0.21125198   -1.21842733   39.24966038
     atom   35 type  2   force =    -0.32983312    0.45479401  -37.75622619
     atom   36 type  3   force =     0.02791172    0.33400235    7.77773782
     The local contribution  to forces
     atom    1 type  1   force =    -0.17454261   -0.55784045   -5.73517289
     atom    2 type  2   force =     0.56922292   -0.16728307  -39.08342257
     atom    3 type  2   force =     0.16833238   -0.00139620   35.97026380
     atom    4 type  1   force =     0.00756318   -0.57586843   -0.60980731
     atom    5 type  2   force =     0.93885309   -1.49137221  -38.42533940
     atom    6 type  2   force =    -0.30795988    0.54653558   37.71735957
     atom    7 type  1   force =     2.65885611    2.54078982   -2.48799960
     atom    8 type  2   force =     1.02098961   -0.09612921  -37.27935826
     atom    9 type  2   force =    -0.33856467    0.05307526   37.74379411
     atom   10 type  1   force =     0.86099872    0.45508037   -5.41036236
     atom   11 type  2   force =     0.51834983    1.63547296  -38.86795153
     atom   12 type  2   force =    -0.34930140   -0.62214111   37.56995816
     atom   13 type  1   force =    -0.69131573   -0.64151308   -1.81113214
     atom   14 type  2   force =    -0.13915792    0.12616953  -38.28988428
     atom   15 type  2   force =    -0.22763772    0.07940503   36.64214246
     atom   16 type  1   force =    -0.04245927   -3.82214491   -0.51158296
     atom   17 type  2   force =    -1.32800650   -1.90637881  -37.43099859
     atom   18 type  2   force =     0.12275683    0.53924676   38.31551586
     atom   19 type  1   force =    -2.74229948    2.27809861   -0.62946442
     atom   20 type  2   force =    -0.21389834    0.16590657   38.30246917
     atom   21 type  1   force =    -0.08760608    0.13700726   -1.35783928
     atom   22 type  2   force =    -0.43645526    1.73352456  -38.19704766
     atom   23 type  2   force =    -0.02893574   -0.56026899   38.03941891
     atom   24 type  1   force =     0.63443368   -0.72523021   -4.95908093
     atom   25 type  2   force =    -0.42716867    0.74395816  -38.66114775
     atom   26 type  2   force =     0.26699781   -0.01538286   37.08276213
     atom   27 type  1   force =    -0.00426509   -0.81404572    2.39276798
     atom   28 type  2   force =     0.40784287   -1.21693818  -37.73468303
     atom   29 type  2   force =     0.26900943    0.33786759   37.09193592
     atom   30 type  1   force =     0.32310262    0.92355606   -0.00269090
     atom   31 type  2   force =    -1.20618949   -0.12280465  -37.12890125
     atom   32 type  2   force =     0.46419841    0.05126841   38.35369997
     atom   33 type  1   force =    -0.54514975    0.49153303   -1.78845106
     atom   34 type  2   force =    -0.20418140    1.21667736  -39.01134193
     atom   35 type  2   force =     0.32457430   -0.43744203   37.51758455
     atom   36 type  3   force =    -0.02858329   -0.35016659   -7.77691131
     The core correction contribution to forces
     atom    1 type  1   force =     0.00000000    0.00000000    0.00000000
     atom    2 type  2   force =     0.00018382   -0.00018598    0.02075254
     atom    3 type  2   force =     0.00070514    0.00014506   -0.02074845
     atom    4 type  1   force =     0.00000000    0.00000000    0.00000000
     atom    5 type  2   force =    -0.00070292    0.00185796    0.02010443
     atom    6 type  2   force =     0.00040737   -0.00118510   -0.02096203
     atom    7 type  1   force =     0.00000000    0.00000000    0.00000000
     atom    8 type  2   force =    -0.00010003    0.00047904    0.02042293
     atom    9 type  2   force =    -0.00006532    0.00051651   -0.02100936
     atom   10 type  1   force =     0.00000000    0.00000000    0.00000000
     atom   11 type  2   force =    -0.00051067   -0.00059964    0.02066390
     atom   12 type  2   force =     0.00109150    0.00135345   -0.02075979
     atom   13 type  1   force =     0.00000000    0.00000000    0.00000000
     atom   14 type  2   force =    -0.00041180   -0.00010013    0.02056179
     atom   15 type  2   force =     0.00053602    0.00042071   -0.02052305
     atom   16 type  1   force =     0.00000000    0.00000000    0.00000000
     atom   17 type  2   force =     0.00263932    0.00274462    0.01651848
     atom   18 type  2   force =     0.00000550   -0.00043822   -0.02101546
     atom   19 type  1   force =     0.00000000    0.00000000    0.00000000
     atom   20 type  2   force =     0.00013015    0.00078572   -0.02117251
     atom   21 type  1   force =     0.00000000    0.00000000    0.00000000
     atom   22 type  2   force =    -0.00004684   -0.00036222    0.02052114
     atom   23 type  2   force =    -0.00042616    0.00138078   -0.02088840
     atom   24 type  1   force =     0.00000000    0.00000000    0.00000000
     atom   25 type  2   force =    -0.00141768   -0.00945658    0.01344061
     atom   26 type  2   force =    -0.00028258    0.00071122   -0.02095967
     atom   27 type  1   force =     0.00000000    0.00000000    0.00000000
     atom   28 type  2   force =    -0.00035352    0.00190201    0.02014565
     atom   29 type  2   force =    -0.00054176   -0.00045517   -0.02063601
     atom   30 type  1   force =     0.00000000    0.00000000    0.00000000
     atom   31 type  2   force =     0.00036038    0.00014936    0.02057340
     atom   32 type  2   force =    -0.00025341    0.00055990   -0.02106121
     atom   33 type  1   force =     0.00000000    0.00000000    0.00000000
     atom   34 type  2   force =     0.00057979    0.00095551    0.02113463
     atom   35 type  2   force =    -0.00020519    0.00101093   -0.02095094
     atom   36 type  3   force =     0.00000000    0.00000000    0.00000000
     The Hubbard contrib.    to forces
     atom    1 type  1   force =     0.00000000    0.00000000    0.00000000
     atom    2 type  2   force =     0.00000000    0.00000000    0.00000000
     atom    3 type  2   force =     0.00000000    0.00000000    0.00000000
     atom    4 type  1   force =     0.00000000    0.00000000    0.00000000
     atom    5 type  2   force =     0.00000000    0.00000000    0.00000000
     atom    6 type  2   force =     0.00000000    0.00000000    0.00000000
     atom    7 type  1   force =     0.00000000    0.00000000    0.00000000
     atom    8 type  2   force =     0.00000000    0.00000000    0.00000000
     atom    9 type  2   force =     0.00000000    0.00000000    0.00000000
     atom   10 type  1   force =     0.00000000    0.00000000    0.00000000
     atom   11 type  2   force =     0.00000000    0.00000000    0.00000000
     atom   12 type  2   force =     0.00000000    0.00000000    0.00000000
     atom   13 type  1   force =     0.00000000    0.00000000    0.00000000
     atom   14 type  2   force =     0.00000000    0.00000000    0.00000000
     atom   15 type  2   force =     0.00000000    0.00000000    0.00000000
     atom   16 type  1   force =     0.00000000    0.00000000    0.00000000
     atom   17 type  2   force =     0.00000000    0.00000000    0.00000000
     atom   18 type  2   force =     0.00000000    0.00000000    0.00000000
     atom   19 type  1   force =     0.00000000    0.00000000    0.00000000
     atom   20 type  2   force =     0.00000000    0.00000000    0.00000000
     atom   21 type  1   force =     0.00000000    0.00000000    0.00000000
     atom   22 type  2   force =     0.00000000    0.00000000    0.00000000
     atom   23 type  2   force =     0.00000000    0.00000000    0.00000000
     atom   24 type  1   force =     0.00000000    0.00000000    0.00000000
     atom   25 type  2   force =     0.00000000    0.00000000    0.00000000
     atom   26 type  2   force =     0.00000000    0.00000000    0.00000000
     atom   27 type  1   force =     0.00000000    0.00000000    0.00000000
     atom   28 type  2   force =     0.00000000    0.00000000    0.00000000
     atom   29 type  2   force =     0.00000000    0.00000000    0.00000000
     atom   30 type  1   force =     0.00000000    0.00000000    0.00000000
     atom   31 type  2   force =     0.00000000    0.00000000    0.00000000
     atom   32 type  2   force =     0.00000000    0.00000000    0.00000000
     atom   33 type  1   force =     0.00000000    0.00000000    0.00000000
     atom   34 type  2   force =     0.00000000    0.00000000    0.00000000
     atom   35 type  2   force =     0.00000000    0.00000000    0.00000000
     atom   36 type  3   force =     0.00000000    0.00000000    0.00000000
     The SCF correction term to forces
     atom    1 type  1   force =    -0.00000893    0.00007234    0.00123907
     atom    2 type  2   force =     0.00021931   -0.00001300    0.00049892
     atom    3 type  2   force =     0.00001019    0.00003740    0.00033680
     atom    4 type  1   force =    -0.00001888   -0.00014103    0.00112827
     atom    5 type  2   force =    -0.00001783   -0.00005167    0.00038423
     atom    6 type  2   force =    -0.00004215   -0.00001168    0.00031709
     atom    7 type  1   force =    -0.00001011   -0.00011602    0.00106377
     atom    8 type  2   force =     0.00002268   -0.00008206    0.00043801
     atom    9 type  2   force =     0.00001056   -0.00009464    0.00027260
     atom   10 type  1   force =     0.00016138    0.00028342    0.00140782
     atom   11 type  2   force =     0.00001473    0.00009428    0.00043086
     atom   12 type  2   force =    -0.00003449    0.00002442    0.00028708
     atom   13 type  1   force =    -0.00017206   -0.00015561    0.00148278
     atom   14 type  2   force =    -0.00013079    0.00005107    0.00047638
     atom   15 type  2   force =     0.00002659    0.00003702    0.00032511
     atom   16 type  1   force =    -0.00002446   -0.00012322    0.00107215
     atom   17 type  2   force =    -0.00000168   -0.00004086    0.00041580
     atom   18 type  2   force =     0.00001915    0.00005889    0.00030413
     atom   19 type  1   force =    -0.00000438   -0.00015164    0.00106883
     atom   20 type  2   force =    -0.00004389   -0.00008075    0.00028104
     atom   21 type  1   force =    -0.00013629    0.00023497    0.00124344
     atom   22 type  2   force =    -0.00007300    0.00013988    0.00043228
     atom   23 type  2   force =     0.00005051   -0.00001068    0.00030220
     atom   24 type  1   force =     0.00029377   -0.00026797    0.00168745
     atom   25 type  2   force =    -0.00010233   -0.00014115    0.00041800
     atom   26 type  2   force =     0.00001557    0.00006965    0.00045390
     atom   27 type  1   force =     0.00005560   -0.00012733    0.00116719
     atom   28 type  2   force =     0.00002972   -0.00012973    0.00048404
     atom   29 type  2   force =     0.00002227    0.00003483    0.00030151
     atom   30 type  1   force =     0.00004723   -0.00007562    0.00110876
     atom   31 type  2   force =     0.00001330   -0.00007483    0.00043414
     atom   32 type  2   force =     0.00002777   -0.00009192    0.00028206
     atom   33 type  1   force =    -0.00003491    0.00053318    0.00178811
     atom   34 type  2   force =     0.00004719    0.00033896    0.00042916
     atom   35 type  2   force =    -0.00000807    0.00001585    0.00032816
     atom   36 type  3   force =    -0.00001712   -0.00004666    0.00004537

     Total force =     0.106157     Total SCF correction =     0.005008
     Energy error            =      1.8E-02 Ry
     Gradient error          =      6.7E-02 Ry/Bohr

     number of scf cycles    =   2
     number of bfgs steps    =   1

     energy             old  =   -2205.5106884104 Ry
     energy             new  =   -2205.5288248768 Ry

     CASE: energy            _new < energy            _old

     new trust radius        =       0.1024607303 bohr
     new conv_thr            =       0.0000000672 Ry


ATOMIC_POSITIONS (angstrom)
Mo            6.5848509913        1.7660581284        2.8264147068
S             8.1608784593        0.8265927428        4.4344109205
S             8.1770252099        0.8199599117        1.2697801869
Mo            8.0989248995        4.5011345359        2.7146601281
S             6.4992659075        3.7159200465        4.3377271793
S             6.5536079447        3.5208275052        1.1206868803
Mo            6.4983395155        7.2083350684        2.6636768673
S             8.0837443929        6.3394750378        4.2616797246
S             8.0944816799        6.3104441818        1.0950524562
Mo            8.1517554620        9.9142589314        2.8213243115
S             6.5006483096        8.9406265623        4.3726992726
S             6.6151036075        9.0492438096        1.1458828550
Mo            3.4326444169        1.7519147609        2.7579214373
S             4.9830841179        0.8167471557        4.3630302415
S             5.0476900562        0.8487518065        1.2162441581
Mo            4.9831424499        4.5293210144        2.6345286502
S             3.4124243196        3.6488892520        4.2938824545
S             3.4353248584        3.5418854784        1.0712141407
Mo            3.4605573839        7.2006077730        2.6268057853
S             4.9884582309        6.3213032802        1.0363059497
Mo            5.0053494633        9.9072876779        2.7458972999
S             3.4676147781        8.9411184304        4.3210209896
S             3.4066065828        9.0655331268        1.1051860559
Mo            0.2860109850        1.7445730871        2.8278379582
S             1.8723234286        0.8820968381        4.4454662938
S             1.8492289829        0.8511112651        1.2026621217
Mo            1.8604811360        4.4946707260        2.6696760589
S             0.2804199128        3.6461823507        4.3342971039
S             0.2344729449        3.5274646877        1.1671729566
Mo            0.2664443718        7.2225133123        2.6999499289
S             1.9029197509        6.3133280349        4.2392138485
S             1.8521207838        6.3199330752        1.0522364492
Mo            1.8580697131        9.9210537439        2.7458089616
S             0.2983191192        9.0437140951        4.3991220060
S             0.2696933794        9.0520549339        1.1648252386
H             2.1018216885        2.4046584869        5.3360382938



     Writing config-only to output data dir ./MoS2-V-O.save/
     NEW-OLD atomic charge density approx. for the potential

     negative rho (up, down):  1.486E-04 0.000E+00

     total cpu time spent up to now is      165.1 secs

     Self-consistent Calculation

     iteration #  1     ecut=    80.00 Ry     beta= 0.70
     Davidson diagonalization with overlap
     ethr =  1.00E-06,  avg # of iterations = 10.0

     negative rho (up, down):  8.695E-05 0.000E+00

     total cpu time spent up to now is      177.4 secs

     total energy              =   -2205.54222665 Ry
     estimated scf accuracy    <       0.00124673 Ry

     iteration #  2     ecut=    80.00 Ry     beta= 0.70
     Davidson diagonalization with overlap
     ethr =  4.06E-07,  avg # of iterations =  2.0

     negative rho (up, down):  5.995E-05 0.000E+00

     total cpu time spent up to now is      190.9 secs

     total energy              =   -2205.54224217 Ry
     estimated scf accuracy    <       0.00025710 Ry

     iteration #  3     ecut=    80.00 Ry     beta= 0.70
     Davidson diagonalization with overlap
     ethr =  8.37E-08,  avg # of iterations =  5.0

     negative rho (up, down):  4.978E-05 0.000E+00

     total cpu time spent up to now is      203.3 secs

     total energy              =   -2205.54227067 Ry
     estimated scf accuracy    <       0.00004293 Ry

     iteration #  4     ecut=    80.00 Ry     beta= 0.70
     Davidson diagonalization with overlap
     ethr =  1.40E-08,  avg # of iterations =  5.0

     negative rho (up, down):  4.886E-05 0.000E+00

     total cpu time spent up to now is      220.0 secs

     total energy              =   -2205.54228138 Ry
     estimated scf accuracy    <       0.00000640 Ry

     iteration #  5     ecut=    80.00 Ry     beta= 0.70
     Davidson diagonalization with overlap
     ethr =  2.09E-09,  avg # of iterations =  5.0

     negative rho (up, down):  5.107E-05 0.000E+00

     total cpu time spent up to now is      234.9 secs

     total energy              =   -2205.54228184 Ry
     estimated scf accuracy    <       0.00000198 Ry

     iteration #  6     ecut=    80.00 Ry     beta= 0.70
     Davidson diagonalization with overlap
     ethr =  6.45E-10,  avg # of iterations =  3.0

     negative rho (up, down):  5.607E-05 0.000E+00

     total cpu time spent up to now is      247.9 secs

     total energy              =   -2205.54228215 Ry
     estimated scf accuracy    <       0.00000063 Ry

     iteration #  7     ecut=    80.00 Ry     beta= 0.70
     Davidson diagonalization with overlap
     ethr =  2.06E-10,  avg # of iterations =  5.0

     negative rho (up, down):  7.559E-05 0.000E+00

     total cpu time spent up to now is      256.5 secs

     total energy              =   -2205.54228207 Ry
     estimated scf accuracy    <       0.00000027 Ry

     iteration #  8     ecut=    80.00 Ry     beta= 0.70
     Davidson diagonalization with overlap
     ethr =  8.69E-11,  avg # of iterations =  4.0

     negative rho (up, down):  1.382E-04 0.000E+00

     total cpu time spent up to now is      258.5 secs

     End of self-consistent calculation

          k = 0.0000 0.0000 0.0000 (105382 PWs)   bands (ev):

   -62.8951 -62.8895 -62.8728 -62.8694 -62.8499 -62.8355 -62.8145 -62.8060
   -62.7875 -62.7821 -62.7648 -62.7590 -37.2434 -37.1720 -37.1637 -37.1443
   -37.1371 -37.1144 -37.0918 -37.0848 -37.0727 -37.0711 -37.0600 -37.0502
   -37.0464 -37.0370 -37.0333 -37.0181 -37.0142 -37.0072 -36.9912 -36.9823
   -36.9801 -36.9667 -36.9523 -36.9476 -36.9419 -36.9284 -36.9217 -36.9078
   -36.9043 -36.8903 -36.8701 -36.8528 -36.8366 -36.8160 -36.7529 -36.7263
   -16.0154 -15.2481 -15.1576 -15.0458 -14.9202 -14.8327 -14.5894 -14.5305
   -14.4547 -14.4293 -14.4109 -14.3759 -14.3363 -14.3002 -14.1794 -14.1544
   -14.1410 -14.1199 -14.0410 -13.9077 -13.8641 -13.8478 -13.8042  -8.0104
    -7.6072  -7.4431  -7.2925  -7.2873  -7.2239  -7.1979  -7.1720  -6.9668
    -6.8353  -6.8025  -6.7693  -6.6557  -6.5416  -6.5274  -6.4702  -6.4432
    -6.3216  -6.2396  -6.0798  -5.9649  -5.9069  -5.8572  -5.8416  -5.7969
    -5.7756  -5.7235  -5.7011  -5.6600  -5.6325  -5.5610  -5.5395  -5.4854
    -5.4239  -5.3483  -5.2246  -5.1154  -5.0492  -5.0236  -4.9956  -4.9836
    -4.9539  -4.8467  -4.6575  -4.5318  -4.3806  -4.3276  -4.2857  -4.2528
    -4.2300  -4.0858  -4.0376  -3.8449  -3.8397  -3.8091  -3.7558  -3.7094
    -3.6698  -3.5767  -3.5608  -3.5389  -3.5034  -3.4819  -3.4553  -3.3881
    -3.3701  -3.2526  -3.1625  -2.9137  -2.8853  -2.8259  -2.7823  -2.7440
    -2.7114  -2.6833  -2.6794  -2.6381  -2.5778  -2.2915  -2.1435  -2.0132
    -1.9582  -1.1377  -0.7972  -0.6867  -0.1767  -0.1545  -0.1195  -0.0467
     0.0442   0.1246   0.2085   0.2543   0.2827   0.2907   0.3642   0.4405
     0.4578   0.5124   0.5367   0.5855   0.6094   0.6633   0.7126   0.7307
     0.7432   0.7663   0.8356   0.8891   0.9195   0.9732   1.0091   1.3061
     1.3785

     the Fermi energy is    -1.1377 ev

!    total energy              =   -2205.54228191 Ry
     estimated scf accuracy    <       0.00000006 Ry
     smearing contrib. (-TS)   =      -0.00565274 Ry
     internal energy E=F+TS    =   -2205.53662918 Ry

     The total energy is F=E-TS. E is the sum of the following terms:
     one-electron contribution =  -18043.19044902 Ry
     hartree contribution      =    9008.25694659 Ry
     xc contribution           =    -385.20315572 Ry
     ewald contribution        =    7214.60002898 Ry

     convergence has been achieved in   8 iterations

     negative rho (up, down):  1.382E-04 0.000E+00

     Forces acting on atoms (cartesian axes, Ry/au):

     atom    1 type  1   force =    -0.00316307   -0.00245381   -0.00367200
     atom    2 type  2   force =    -0.00510415    0.00580596   -0.00244313
     atom    3 type  2   force =    -0.01025891    0.00457743   -0.01229382
     atom    4 type  1   force =     0.00508316    0.00065520    0.00217930
     atom    5 type  2   force =     0.00094786   -0.00437895   -0.00616142
     atom    6 type  2   force =    -0.00007916    0.00490037    0.00244451
     atom    7 type  1   force =     0.00533029   -0.00443421    0.00075502
     atom    8 type  2   force =     0.00100187   -0.00347339    0.00944961
     atom    9 type  2   force =     0.00943336    0.00345868    0.00259786
     atom   10 type  1   force =     0.00000572    0.00582439    0.00026311
     atom   11 type  2   force =     0.00374182   -0.00118955   -0.00922328
     atom   12 type  2   force =    -0.00435322    0.00039487    0.00025251
     atom   13 type  1   force =     0.00169623    0.00278297   -0.00023524
     atom   14 type  2   force =     0.00364620   -0.00027198    0.00382612
     atom   15 type  2   force =    -0.00248050   -0.00043493   -0.00746345
     atom   16 type  1   force =    -0.00341711    0.00308074    0.00601513
     atom   17 type  2   force =    -0.00036873   -0.00802868    0.00321628
     atom   18 type  2   force =    -0.00044646    0.00001927    0.00609881
     atom   19 type  1   force =     0.00349618   -0.00712200    0.00221910
     atom   20 type  2   force =     0.00442037   -0.00312738   -0.00489713
     atom   21 type  1   force =    -0.00365288    0.00102960    0.00293012
     atom   22 type  2   force =    -0.00247649   -0.00227004   -0.00420395
     atom   23 type  2   force =     0.00144403   -0.00383838    0.00087497
     atom   24 type  1   force =    -0.00217183    0.00067298   -0.00031924
     atom   25 type  2   force =     0.01169506    0.05777933    0.02553289
     atom   26 type  2   force =    -0.00416389   -0.00343806   -0.00529303
     atom   27 type  1   force =    -0.00100954   -0.00041037    0.00489321
     atom   28 type  2   force =    -0.00100600   -0.00284660   -0.00611209
     atom   29 type  2   force =     0.00251947    0.00215827   -0.00444761
     atom   30 type  1   force =    -0.00206355   -0.00291998    0.00542009
     atom   31 type  2   force =     0.00076330   -0.00102001    0.00723169
     atom   32 type  2   force =    -0.00538303    0.00373679    0.00490950
     atom   33 type  1   force =     0.00238388    0.00096258    0.00072263
     atom   34 type  2   force =     0.00089299   -0.01861578   -0.01547776
     atom   35 type  2   force =    -0.00456743    0.00510926    0.00179249
     atom   36 type  3   force =    -0.00233584   -0.03267461   -0.01138179
     The non-local contrib.  to forces
     atom    1 type  1   force =     0.00282314    0.02650758   -0.01208587
     atom    2 type  2   force =    -0.00339623   -0.00245499   -0.26796341
     atom    3 type  2   force =    -0.01285766   -0.00683243    0.26100379
     atom    4 type  1   force =     0.00288779    0.00759613    0.00437937
     atom    5 type  2   force =     0.00916741   -0.03408634   -0.24917922
     atom    6 type  2   force =    -0.00483894    0.01052460    0.26867991
     atom    7 type  1   force =    -0.02150422    0.00235494   -0.01729315
     atom    8 type  2   force =     0.00374615   -0.00307750   -0.25731793
     atom    9 type  2   force =     0.00423267   -0.00963855    0.27232834
     atom   10 type  1   force =     0.00383627   -0.00049142   -0.00177629
     atom   11 type  2   force =     0.01098379    0.00625499   -0.26128399
     atom   12 type  2   force =    -0.01294102   -0.01697421    0.26053979
     atom   13 type  1   force =    -0.00153781    0.01477176    0.00170110
     atom   14 type  2   force =     0.00487989   -0.00683611   -0.26262132
     atom   15 type  2   force =    -0.00534078   -0.00823005    0.25885199
     atom   16 type  1   force =    -0.00809190    0.03471016   -0.03668998
     atom   17 type  2   force =    -0.03957244   -0.03790344   -0.18645314
     atom   18 type  2   force =    -0.00214835   -0.00079496    0.27171164
     atom   19 type  1   force =     0.01475265    0.00406930   -0.01930933
     atom   20 type  2   force =     0.00014415   -0.01897308    0.26200077
     atom   21 type  1   force =     0.00055293    0.02374216    0.00373133
     atom   22 type  2   force =    -0.00100255   -0.00095892   -0.25795300
     atom   23 type  2   force =     0.00667833   -0.02134568    0.26397347
     atom   24 type  1   force =     0.00655836    0.01262889   -0.00712673
     atom   25 type  2   force =     0.03064321    0.18128027   -0.12525474
     atom   26 type  2   force =     0.00337677   -0.01217114    0.26813254
     atom   27 type  1   force =     0.00052910    0.00664770    0.00850425
     atom   28 type  2   force =     0.00287618   -0.02285494   -0.26143178
     atom   29 type  2   force =     0.00606320   -0.00013664    0.26613517
     atom   30 type  1   force =    -0.00028729    0.02056874    0.00729451
     atom   31 type  2   force =    -0.00685992   -0.00041446   -0.25848369
     atom   32 type  2   force =     0.00126810   -0.01230774    0.27340612
     atom   33 type  1   force =    -0.00737009    0.00912310   -0.00625434
     atom   34 type  2   force =    -0.00744605   -0.02162672   -0.27547013
     atom   35 type  2   force =     0.00099286   -0.01300479    0.26372241
     atom   36 type  3   force =    -0.00028392   -0.01102627   -0.01069297
     The ionic contribution  to forces
     atom    1 type  1   force =     0.01513670    0.73796773    5.74072740
     atom    2 type  2   force =    -0.41409588    0.06680643   39.37507660
     atom    3 type  2   force =    -0.12185827    0.01697037  -36.34987664
     atom    4 type  1   force =    -0.05184853    0.46549022    0.61748272
     atom    5 type  2   force =    -0.95008779    1.49695092   38.55361082
     atom    6 type  2   force =     0.28288561   -0.57792419  -37.89132054
     atom    7 type  1   force =    -2.68600170   -2.37897309    2.42136232
     atom    8 type  2   force =    -1.04861301    0.10446620   37.66438115
     atom    9 type  2   force =     0.33754325   -0.05464379  -37.99610765
     atom   10 type  1   force =    -0.65850134   -0.44847258    5.26619986
     atom   11 type  2   force =    -0.51158693   -1.64152084   39.02224676
     atom   12 type  2   force =     0.29874594    0.60473599  -37.76512472
     atom   13 type  1   force =     0.60292125    0.42125651    1.44127367
     atom   14 type  2   force =     0.07278450   -0.12986607   38.59537071
     atom   15 type  2   force =     0.24278986   -0.07772303  -36.95886472
     atom   16 type  1   force =     0.03545685    3.61001487    0.76204382
     atom   17 type  2   force =     1.44581371    1.96837853   37.63073719
     atom   18 type  2   force =    -0.11591166   -0.47631857  -38.49539004
     atom   19 type  1   force =     2.71431867   -2.17725474    0.66119505
     atom   20 type  2   force =     0.20277800   -0.12164048  -38.62382359
[...]
     atom   27 type  1   force =    -0.00192434    0.00815927    0.00536701
     atom   28 type  2   force =     0.00581884   -0.01628786   -0.26326818
     atom   29 type  2   force =    -0.00463457   -0.00481423    0.27011338
     atom   30 type  1   force =    -0.00069865    0.02189439    0.00574249
     atom   31 type  2   force =    -0.00733690   -0.00060414   -0.26280030
     atom   32 type  2   force =     0.00653041   -0.01287543    0.26787815
     atom   33 type  1   force =    -0.00720706    0.01043434   -0.00708992
     atom   34 type  2   force =    -0.00906519   -0.01426609   -0.26336041
     atom   35 type  2   force =     0.00621669   -0.01560906    0.26598988
     atom   36 type  3   force =    -0.00269274   -0.03890966   -0.03827293
     The ionic contribution  to forces
     atom    1 type  1   force =    -0.17463504    0.42767246    2.51648419
     atom    2 type  2   force =    -0.31959838   -0.22984296   38.82165990
     atom    3 type  2   force =     0.18968304    0.01150822  -37.18843042
     atom    4 type  1   force =    -0.32865200    0.22818317   -0.21420204
     atom    5 type  2   force =    -0.80634911    1.23663564   38.17375578
     atom    6 type  2   force =     0.17187427   -0.54661721  -38.04617075
     atom    7 type  1   force =    -2.88881017   -1.56685442    1.64382924
     atom    8 type  2   force =    -1.24981593    0.29581681   38.21387428
     atom    9 type  2   force =     0.32077184   -0.00987731  -38.27853733
     atom   10 type  1   force =    -0.31279029   -0.25433384    2.86840977
     atom   11 type  2   force =    -0.50691144   -1.48657733   38.38418443
     atom   12 type  2   force =     0.14502389    0.52736041  -37.83391580
     atom   13 type  1   force =     0.20058701   -0.46023460    3.94282306
     atom   14 type  2   force =     0.13348673   -0.37839043   38.44952918
     atom   15 type  2   force =    -0.08960618   -0.11892036  -37.10879470
     atom   16 type  1   force =     0.24754467    3.37123003    1.39651529
     atom   17 type  2   force =     1.25110173    1.66267663   38.27238953
     atom   18 type  2   force =    -0.16783079   -0.54963544  -38.02935569
     atom   19 type  1   force =     2.92672942   -1.53944795    2.16242580
     atom   20 type  2   force =     0.01285782    0.03889962  -38.76540581
     atom   21 type  1   force =    -0.03409443   -0.11965904    1.42898382
     atom   22 type  2   force =     0.36339208   -1.31539981   38.34701429
     atom   23 type  2   force =     0.02335332    0.46063523  -38.15315628
     atom   24 type  1   force =    -0.03261628   -0.69003433    4.23266192
     atom   25 type  2   force =     0.11265328   -2.20188334   38.66655979
     atom   26 type  2   force =    -0.07870486    0.04277062  -36.66271077
     atom   27 type  1   force =     0.11145808    0.49335993    0.36340552
     atom   28 type  2   force =    -0.42397242    0.94733627   38.05287407
     atom   29 type  2   force =    -0.01977998   -0.36221750  -37.52908224
     atom   30 type  1   force =    -0.00210929   -0.32642985    1.35761930
     atom   31 type  2   force =     1.13550523    0.48759597   38.14132518
     atom   32 type  2   force =    -0.32507465   -0.01894674  -38.05040061
     atom   33 type  1   force =     0.35149957    1.07297547    1.31773008
     atom   34 type  2   force =     0.14715583   -0.33252495   38.51014558
     atom   35 type  2   force =    -0.16928844    0.35664744  -37.71823251
     atom   36 type  3   force =     0.08596188    0.84652347    8.31419496
     The local contribution  to forces
     atom    1 type  1   force =     0.17550662   -0.45282222   -2.51185733
     atom    2 type  2   force =     0.31658152    0.23497335  -38.58061311
     atom    3 type  2   force =    -0.18286393   -0.00229831   36.94230823
     atom    4 type  1   force =     0.32546816   -0.23901243    0.21144572
     atom    5 type  2   force =     0.80421532   -1.21162075  -37.93952349
     atom    6 type  2   force =    -0.17188479    0.54458064   37.79894019
     atom    7 type  1   force =     2.90928161    1.55994100   -1.62872677
     atom    8 type  2   force =     1.24163729   -0.29436851  -37.97294706
     atom    9 type  2   force =    -0.31435675    0.02039443   38.03185598
     atom   10 type  1   force =     0.31110488    0.25229082   -2.87097186
     atom   11 type  2   force =     0.50110897    1.48251689  -38.14838007
     atom   12 type  2   force =    -0.13903066   -0.51329646   37.59221983
     atom   13 type  1   force =    -0.20001566    0.44780188   -3.93445376
     atom   14 type  2   force =    -0.12736793    0.38334248  -38.20734801
     atom   15 type  2   force =     0.08663088    0.12838132   36.86683047
     atom   16 type  1   force =    -0.25098975   -3.41374276   -1.35768707
     atom   17 type  2   force =    -1.23905204   -1.64783134  -38.05611832
     atom   18 type  2   force =     0.16788565    0.55016851   37.78459893
     atom   19 type  1   force =    -2.94402435    1.53528831   -2.13659374
     atom   20 type  2   force =    -0.01310163   -0.02672855   38.52367171
     atom   21 type  1   force =     0.03600410    0.09820387   -1.43254905
     atom   22 type  2   force =    -0.36788003    1.31944397  -38.11615250
     atom   23 type  2   force =    -0.02656727   -0.44391612   37.90987507
     atom   24 type  1   force =     0.02802002    0.67810779   -4.22404384
     atom   25 type  2   force =    -0.13544534    1.93959866  -38.66318623
     atom   26 type  2   force =     0.07573484   -0.03188851   36.40945966
     atom   27 type  1   force =    -0.10995281   -0.50163554   -0.36968108
     atom   28 type  2   force =     0.41893542   -0.93225278  -37.81066059
     atom   29 type  2   force =     0.02241271    0.36709641   37.27948983
     atom   30 type  1   force =     0.00291618    0.30376731   -1.36355475
     atom   31 type  2   force =    -1.12879981   -0.48676193  -37.89933045
     atom   32 type  2   force =     0.31909128    0.03117856   37.80321107
     atom   33 type  1   force =    -0.34410620   -1.08443733   -1.31093150
     atom   34 type  2   force =    -0.13855248    0.34555852  -38.26756946
     atom   35 type  2   force =     0.16436540   -0.34206806   37.47350968
     atom   36 type  3   force =    -0.08423764   -0.80933157   -8.27721668
     The core correction contribution to forces
     atom    1 type  1   force =     0.00000000    0.00000000    0.00000000
     atom    2 type  2   force =    -0.00039591    0.00008039    0.02051841
     atom    3 type  2   force =     0.00051685    0.00052657   -0.02089311
     atom    4 type  1   force =     0.00000000    0.00000000    0.00000000
     atom    5 type  2   force =    -0.00031771    0.00127196    0.02024539
     atom    6 type  2   force =     0.00012944   -0.00054689   -0.02089810
     atom    7 type  1   force =     0.00000000    0.00000000    0.00000000
     atom    8 type  2   force =    -0.00046682    0.00027012    0.02070063
     atom    9 type  2   force =     0.00061864    0.00052915   -0.02094467
     atom   10 type  1   force =     0.00000000    0.00000000    0.00000000
     atom   11 type  2   force =    -0.00014772   -0.00047662    0.02040091
     atom   12 type  2   force =     0.00054505    0.00113572   -0.02066252
     atom   13 type  1   force =     0.00000000    0.00000000    0.00000000
     atom   14 type  2   force =     0.00044684   -0.00024405    0.02051592
     atom   15 type  2   force =    -0.00037430    0.00045777   -0.02064837
     atom   16 type  1   force =     0.00000000    0.00000000    0.00000000
     atom   17 type  2   force =     0.00103061    0.00116152    0.01927331
     atom   18 type  2   force =    -0.00020113   -0.00051247   -0.02082858
     atom   19 type  1   force =     0.00000000    0.00000000    0.00000000
     atom   20 type  2   force =     0.00004798    0.00051500   -0.02115325
     atom   21 type  1   force =     0.00000000    0.00000000    0.00000000
     atom   22 type  2   force =    -0.00049205   -0.00015499    0.02025642
     atom   23 type  2   force =    -0.00018982    0.00098754   -0.02092322
     atom   24 type  1   force =     0.00000000    0.00000000    0.00000000
     atom   25 type  2   force =    -0.00137157   -0.01824893    0.00267638
     atom   26 type  2   force =    -0.00021129    0.00078862   -0.02125117
     atom   27 type  1   force =     0.00000000    0.00000000    0.00000000
     atom   28 type  2   force =    -0.00048128    0.00136528    0.02042921
     atom   29 type  2   force =     0.00025215   -0.00006022   -0.02088873
     atom   30 type  1   force =     0.00000000    0.00000000    0.00000000
     atom   31 type  2   force =     0.00032335    0.00041679    0.02071219
     atom   32 type  2   force =    -0.00064457    0.00061887   -0.02090981
     atom   33 type  1   force =     0.00000000    0.00000000    0.00000000
     atom   34 type  2   force =     0.00049787    0.00059322    0.02070449
     atom   35 type  2   force =    -0.00051052    0.00086091   -0.02087407
     atom   36 type  3   force =     0.00000000    0.00000000    0.00000000
     The Hubbard contrib.    to forces
     atom    1 type  1   force =     0.00000000    0.00000000    0.00000000
     atom    2 type  2   force =     0.00000000    0.00000000    0.00000000
     atom    3 type  2   force =     0.00000000    0.00000000    0.00000000
     atom    4 type  1   force =     0.00000000    0.00000000    0.00000000
     atom    5 type  2   force =     0.00000000    0.00000000    0.00000000
     atom    6 type  2   force =     0.00000000    0.00000000    0.00000000
     atom    7 type  1   force =     0.00000000    0.00000000    0.00000000
     atom    8 type  2   force =     0.00000000    0.00000000    0.00000000
     atom    9 type  2   force =     0.00000000    0.00000000    0.00000000
     atom   10 type  1   force =     0.00000000    0.00000000    0.00000000
     atom   11 type  2   force =     0.00000000    0.00000000    0.00000000
     atom   12 type  2   force =     0.00000000    0.00000000    0.00000000
     atom   13 type  1   force =     0.00000000    0.00000000    0.00000000
     atom   14 type  2   force =     0.00000000    0.00000000    0.00000000
     atom   15 type  2   force =     0.00000000    0.00000000    0.00000000
     atom   16 type  1   force =     0.00000000    0.00000000    0.00000000
     atom   17 type  2   force =     0.00000000    0.00000000    0.00000000
     atom   18 type  2   force =     0.00000000    0.00000000    0.00000000
     atom   19 type  1   force =     0.00000000    0.00000000    0.00000000
     atom   20 type  2   force =     0.00000000    0.00000000    0.00000000
     atom   21 type  1   force =     0.00000000    0.00000000    0.00000000
     atom   22 type  2   force =     0.00000000    0.00000000    0.00000000
     atom   23 type  2   force =     0.00000000    0.00000000    0.00000000
     atom   24 type  1   force =     0.00000000    0.00000000    0.00000000
     atom   25 type  2   force =     0.00000000    0.00000000    0.00000000
     atom   26 type  2   force =     0.00000000    0.00000000    0.00000000
     atom   27 type  1   force =     0.00000000    0.00000000    0.00000000
     atom   28 type  2   force =     0.00000000    0.00000000    0.00000000
     atom   29 type  2   force =     0.00000000    0.00000000    0.00000000
     atom   30 type  1   force =     0.00000000    0.00000000    0.00000000
     atom   31 type  2   force =     0.00000000    0.00000000    0.00000000
     atom   32 type  2   force =     0.00000000    0.00000000    0.00000000
     atom   33 type  1   force =     0.00000000    0.00000000    0.00000000
     atom   34 type  2   force =     0.00000000    0.00000000    0.00000000
     atom   35 type  2   force =     0.00000000    0.00000000    0.00000000
     atom   36 type  3   force =     0.00000000    0.00000000    0.00000000
     The SCF correction term to forces
     atom    1 type  1   force =     0.00000474   -0.00001950    0.00008655
     atom    2 type  2   force =    -0.00000022    0.00001472    0.00003948
     atom    3 type  2   force =     0.00000501    0.00001805    0.00001923
     atom    4 type  1   force =     0.00000188   -0.00004822    0.00007408
     atom    5 type  2   force =    -0.00000010   -0.00001309    0.00003228
     atom    6 type  2   force =     0.00000506   -0.00000693    0.00001129
     atom    7 type  1   force =     0.00000861   -0.00004465    0.00008293
     atom    8 type  2   force =     0.00000344   -0.00001144    0.00003687
     atom    9 type  2   force =    -0.00000737   -0.00001510    0.00001515
     atom   10 type  1   force =     0.00000612    0.00007618    0.00008862
     atom   11 type  2   force =    -0.00000058    0.00002445    0.00004630
     atom   12 type  2   force =     0.00000123    0.00001569    0.00001061
     atom   13 type  1   force =    -0.00000520    0.00001991    0.00008501
     atom   14 type  2   force =     0.00000378    0.00000674    0.00004003
     atom   15 type  2   force =    -0.00000548    0.00001586    0.00001527
     atom   16 type  1   force =    -0.00000793   -0.00003873    0.00007186
     atom   17 type  2   force =     0.00000059   -0.00001600    0.00002453
     atom   18 type  2   force =    -0.00000342   -0.00002366    0.00002006
     atom   19 type  1   force =     0.00000666   -0.00000180    0.00007417
     atom   20 type  2   force =     0.00000439   -0.00001167    0.00001250
     atom   21 type  1   force =    -0.00002497    0.00006018    0.00009808
     atom   22 type  2   force =    -0.00000893    0.00002716    0.00004065
     atom   23 type  2   force =    -0.00000852    0.00002242    0.00000992
     atom   24 type  1   force =    -0.00002375    0.00001236    0.00009097
     atom   25 type  2   force =    -0.00000226    0.00000223    0.00005478
     atom   26 type  2   force =     0.00000410    0.00001455    0.00000736
     atom   27 type  1   force =     0.00000279   -0.00008174    0.00007940
     atom   28 type  2   force =     0.00000038   -0.00001613    0.00003809
     atom   29 type  2   force =     0.00000070   -0.00002561    0.00001607
     atom   30 type  1   force =    -0.00001058    0.00000981    0.00009740
     atom   31 type  2   force =    -0.00000445   -0.00000784    0.00004580
     atom   32 type  2   force =    -0.00000202   -0.00000484    0.00000529
     atom   33 type  1   force =     0.00000120    0.00003317    0.00007374
     atom   34 type  2   force =     0.00000839    0.00001465    0.00004710
     atom   35 type  2   force =     0.00000831    0.00001079    0.00001519
     atom   36 type  3   force =    -0.00000031   -0.00000155    0.00000520

     Total force =     0.006422     Total SCF correction =     0.000371
     Energy error            =      9.5E-05 Ry
     Gradient error          =      1.9E-03 Ry/Bohr

     bfgs converged in  19 scf cycles and  18 bfgs steps
     (criteria: energy <  1.0E-04 Ry, force <  1.0E-02 Ry/Bohr)

     End of BFGS Geometry Optimization

     Final energy             =   -2205.5876923514 Ry

     File ./MoS2-V-O.bfgs deleted, as requested
Begin final coordinates

ATOMIC_POSITIONS (angstrom)
Mo            6.5651210780        1.7661097128        2.7648813995
S             8.1193355570        0.8514718913        4.3801383381
S             8.1548483177        0.8610143372        1.1916569103
Mo            8.1262982591        4.5113601908        2.6997301347
S             6.5296566430        3.6836912967        4.2994541316
S             6.5607675551        3.5654092070        1.1064834849
Mo            6.5417297856        7.1967714018        2.6446826769
S             8.0880582279        6.3208474827        4.2925061888
S             8.1526716558        6.3262814997        1.0849105948
Mo            8.1457146520        9.9503680414        2.7653381860
S             6.5316763376        8.9519367750        4.3147819723
S             6.5909596249        9.0574594924        1.1227151627
Mo            3.4301324210        1.7883712867        2.7987108680
S             5.0104573481        0.8132649500        4.3535347747
S             4.9805065161        0.8525931363        1.1886785192
Mo            5.0013973222        4.5549244905        2.6491653821
S             3.4864270186        3.7097772164        4.3223987259
S             3.4349230693        3.5618168777        1.1148783363
Mo            3.4811947351        7.1752969759        2.6528319087
S             5.0135989227        6.3167857849        1.0283274032
Mo            4.9864851624        9.9059489534        2.7325860289
S             3.4583049402        8.9410454645        4.3099657749
S             3.4059685856        9.0205189094        1.1055888892
Mo            0.2736948770        1.7652587598        2.8153495390
S             1.8670210696        1.0043754873        4.5375632149
S             1.8540297094        0.8596569997        1.2203619680
Mo            1.8718185741        4.5061818104        2.7163962402
S             0.2554234054        3.6534750102        4.3266046547
S             0.2809050640        3.5507244396        1.1576730462
Mo            0.2671348577        7.2222538974        2.7185931245
S             1.9065508101        6.3193143190        4.2903734893
S             1.8543073309        6.3209059554        1.1014620896
Mo            1.8656084149        9.9105543511        2.7180952714
S             0.2825878076        9.0380043024        4.3374408133
S             0.2639540151        9.0591269354        1.1490820055
H             1.9345795634        2.0166932128        5.5073986230
End final coordinates



     Writing all to output data dir ./MoS2-V-O.save/
 
     init_run     :      2.41s CPU      2.58s WALL (       1 calls)
     electrons    :   1749.22s CPU   1911.91s WALL (      19 calls)
     update_pot   :     25.16s CPU     26.15s WALL (      18 calls)
     forces       :     25.69s CPU     27.51s WALL (      19 calls)

     Called by init_run:
     wfcinit      :      0.40s CPU      0.43s WALL (       1 calls)
     potinit      :      1.32s CPU      1.41s WALL (       1 calls)
     hinit0       :      0.18s CPU      0.19s WALL (       1 calls)

     Called by electrons:
     c_bands      :    205.63s CPU    207.82s WALL (     169 calls)
     sum_band     :     55.02s CPU     59.99s WALL (     169 calls)
     v_of_rho     :     68.39s CPU     78.92s WALL (     176 calls)
     newd         :     28.11s CPU     31.59s WALL (     176 calls)
     mix_rho      :   1400.39s CPU   1540.99s WALL (     169 calls)

     Called by c_bands:
     init_us_2    :      3.75s CPU      3.88s WALL (     339 calls)
     init_us_2:cp :      3.74s CPU      3.88s WALL (     339 calls)
     regterg      :    193.29s CPU    195.34s WALL (     169 calls)

     Called by *egterg:
     rdiaghg      :     15.97s CPU     16.11s WALL (     911 calls)
     h_psi        :    113.27s CPU    114.25s WALL (     942 calls)
     s_psi        :     13.94s CPU     13.99s WALL (     942 calls)
     g_psi        :      0.74s CPU      0.75s WALL (     772 calls)

     Called by h_psi:
     h_psi:calbec :     15.00s CPU     15.06s WALL (     942 calls)
     vloc_psi     :     82.83s CPU     83.68s WALL (     942 calls)
     add_vuspsi   :     13.62s CPU     13.69s WALL (     942 calls)

     General routines
     calbec       :     21.55s CPU     21.64s WALL (    1187 calls)
     fft          :     45.45s CPU     53.08s WALL (   11849 calls)
     ffts         :    628.84s CPU    764.62s WALL (  335055 calls)
     fftw         :     73.27s CPU     73.92s WALL (  101721 calls)
     interpolate  :      1.23s CPU      1.44s WALL (     176 calls)
 
     Parallel routines
 
     PWSCF        :  30m 6.31s CPU  32m53.56s WALL

 
   This run was terminated on:  23:17:57   3Nov2023            

=------------------------------------------------------------------------------=
   JOB DONE.
=------------------------------------------------------------------------------=
