
     Program PWSCF v.7.2 starts on  4Nov2023 at  5:26:17 

     This program is part of the open-source Quantum ESPRESSO suite
     for quantum simulation of materials; please cite
         "P. Giannozzi et al., J. Phys.:Condens. Matter 21 395502 (2009);
         "P. Giannozzi et al., J. Phys.:Condens. Matter 29 465901 (2017);
         "P. Giannozzi et al., J. Chem. Phys. 152 154105 (2020);
          URL http://www.quantum-espresso.org", 
     in publications or presentations arising from this work. More details at
     http://www.quantum-espresso.org/quote

     Parallel version (MPI & OpenMP), running on      48 processor cores
     Number of MPI processes:                48
     Threads/MPI process:                     1

     MPI processes distributed on     1 nodes
     64191 MiB available memory on the printing compute node when the environment starts
 
     Waiting for input...
     Reading input from standard input
Warning: card &CELL ignored
Warning: card CELL_DYNAMICS = 'BFGS', ignored
Warning: card CELL_DOFREE = '2DXY' ignored
Warning: card / ignored

     Current dimensions of program PWSCF are:
     Max number of different atomic species (ntypx) = 10
     Max number of k-points (npk) =  40000
     Max angular momentum in pseudopotentials (lmaxx) =  4

     IMPORTANT: XC functional enforced from input :
     Exchange-correlation= RVV10
                           (   1   4  13   4  26   0   0)
     Any further DFT definition will be discarded
     Please, verify this is what you really want


     gamma-point specific algorithms are used
     signal trapping enabled: kill the code with -SIGUSR1 to stop cleanly the simulation 
 
     R & G space division:  proc/nbgrp/npool/nimage =      48
     Subspace diagonalization in iterative solution of the eigenvalue problem:
     one sub-group per band group will be used
     scalapack distributed-memory algorithm (size of sub-group:  2*  2 procs)

 
     Parallelization info
     --------------------
     sticks:   dense  smooth     PW     G-vecs:    dense   smooth      PW
     Min         243     194     47                49060    35090    4376
     Max         246     196     50                49086    35128    4410
     Sum       11735    9389   2349              2355467  1685513  210763
 
     Using Slab Decomposition
 


     bravais-lattice index     =            0
     lattice parameter (alat)  =      17.8707  a.u.
     unit-cell volume          =   17436.2743 (a.u.)^3
     number of atoms/cell      =           36
     number of atomic types    =            3
     number of electrons       =       307.00
     number of Kohn-Sham states=          185
     kinetic-energy cutoff     =      80.0000  Ry
     charge density cutoff     =     400.0000  Ry
     scf convergence threshold =      1.0E-06
     mixing beta               =       0.7000
     number of iterations used =            8  local-TF  mixing
     energy convergence thresh.=      1.0E-04
     force convergence thresh. =      1.0E-02
     Exchange-correlation= RVV10
                           (   1   4  13   4  26   0   0)
     nstep                     =          200


     celldm(1)=  17.870686  celldm(2)=   0.000000  celldm(3)=   0.000000
     celldm(4)=   0.000000  celldm(5)=   0.000000  celldm(6)=   0.000000

     crystal axes: (cart. coord. in units of alat)
               a(1) = (   1.000000   0.000000   0.000000 )  
               a(2) = (   0.000000   1.155671   0.000000 )  
               a(3) = (   0.000000   0.000000   2.643601 )  

     reciprocal axes: (cart. coord. in units 2 pi/alat)
               b(1) = (  1.000000  0.000000  0.000000 )  
               b(2) = (  0.000000  0.865298  0.000000 )  
               b(3) = (  0.000000  0.000000  0.378272 )  


     PseudoPot. # 1 for Mo read from file:
     ../pseudo/Mo_ONCV_PBE-1.0.oncvpsp.upf
     MD5 check sum: 1b5d28e075c9ccadda658a603575cd1f
     Pseudo is Norm-conserving, Zval = 14.0
     Generated using ONCVPSP code by D. R. Hamann
     Using radial grid of 1526 points,  6 beta functions with: 
                l(1) =   0
                l(2) =   0
                l(3) =   1
                l(4) =   1
                l(5) =   2
                l(6) =   2

     PseudoPot. # 2 for S  read from file:
     ../pseudo/s_pbe_v1.4.uspp.F.UPF
     MD5 check sum: 88d86576ff6df21479756cfb9bdac1df
     Pseudo is Ultrasoft + core correction, Zval =  6.0
     Generated by new atomic code, or converted to UPF format
     Using radial grid of  907 points,  6 beta functions with: 
                l(1) =   0
                l(2) =   0
                l(3) =   1
                l(4) =   1
                l(5) =   2
                l(6) =   2
     Q(r) pseudized with  8 coefficients,  rinner =    1.300   1.300   1.300
                                                       1.300   1.300

     PseudoPot. # 3 for H  read from file:
     ../pseudo/H_ONCV_PBE-1.0.oncvpsp.upf
     MD5 check sum: 1790becc920ee074925cf490c71280fe
     Pseudo is Norm-conserving, Zval =  1.0
     Generated using ONCVPSP code by D. R. Hamann
     Using radial grid of 1166 points,  2 beta functions with: 
                l(1) =   0
                l(2) =   0

     atomic species   valence    mass     pseudopotential
        Mo            14.00    95.94000     Mo( 1.00)
        S              6.00    32.06500     S ( 1.00)
        H              1.00     1.00794     H ( 1.00)

     No symmetry found



   Cartesian axes

     site n.     atom                  positions (alat units)
         1           Mo  tau(   1) = (   0.6952221   0.1890506   0.2985846  )
         2           S   tau(   2) = (   0.8646417   0.0856217   0.4689279  )
         3           S   tau(   3) = (   0.8663890   0.0857843   0.1351291  )
         4           Mo  tau(   4) = (   0.8560186   0.4753274   0.2873942  )
         5           S   tau(   5) = (   0.6873294   0.3936244   0.4596353  )
         6           S   tau(   6) = (   0.6929804   0.3713468   0.1185692  )
         7           Mo  tau(   7) = (   0.6862796   0.7633098   0.2825370  )
         8           S   tau(   8) = (   0.8545980   0.6708292   0.4486168  )
         9           S   tau(   9) = (   0.8545123   0.6666874   0.1146125  )
        10           Mo  tau(  10) = (   0.8629403   1.0471007   0.3006803  )
        11           S   tau(  11) = (   0.6868280   0.9456650   0.4634891  )
        12           S   tau(  12) = (   0.6998113   0.9568511   0.1205389  )
        13           Mo  tau(  13) = (   0.3618216   0.1847309   0.2935964  )
        14           S   tau(  14) = (   0.5260962   0.0863870   0.4600448  )
        15           S   tau(  15) = (   0.5348379   0.0894875   0.1297123  )
        16           Mo  tau(  16) = (   0.5265817   0.4772436   0.2784130  )
        17           S   tau(  17) = (   0.3624753   0.3882513   0.4525556  )
        18           S   tau(  18) = (   0.3635411   0.3752055   0.1119148  )
        19           Mo  tau(  19) = (   0.3652268   0.7630864   0.2781795  )
        20           S   tau(  20) = (   0.5269494   0.6690381   0.1096838  )
        21           Mo  tau(  21) = (   0.5300192   1.0470394   0.2900995  )
        22           S   tau(  22) = (   0.3670346   0.9457522   0.4574073  )
        23           S   tau(  23) = (   0.3604225   0.9585725   0.1159032  )
        24           Mo  tau(  24) = (   0.0313099   0.1847895   0.3013130  )
        25           S   tau(  25) = (   0.1956761   0.0838230   0.4650863  )
        26           S   tau(  26) = (   0.1967693   0.0903508   0.1278874  )
        27           Mo  tau(  27) = (   0.1967578   0.4753919   0.2813011  )
        28           S   tau(  28) = (   0.0287851   0.3864324   0.4586755  )
        29           S   tau(  29) = (   0.0244514   0.3729871   0.1239344  )
        30           Mo  tau(  30) = (   0.0286728   0.7631204   0.2856894  )
        31           S   tau(  31) = (   0.2011512   0.6675435   0.4465001  )
        32           S   tau(  32) = (   0.1969214   0.6672839   0.1104564  )
        33           Mo  tau(  33) = (   0.1950294   1.0511147   0.2932237  )
        34           S   tau(  34) = (   0.0312912   0.9612169   0.4667423  )
        35           S   tau(  35) = (   0.0292670   0.9563028   0.1216485  )
        36           H   tau(  36) = (   0.0000000   0.7704471   0.5792558  )

     number of k points=     1  Gaussian smearing, width (Ry)=  0.0100
                       cart. coord. in units 2pi/alat
        k(    1) = (   0.0000000   0.0000000   0.0000000), wk =   2.0000000

     Dense  grid:  1177734 G-vectors     FFT dimensions: ( 120, 135, 320)

     Smooth grid:   842757 G-vectors     FFT dimensions: ( 108, 120, 270)

     Estimated max dynamical RAM per process >     146.59 MB

     Estimated total dynamical RAM >       6.87 GB

     Initial potential from superposition of free atoms

     starting charge     306.9873, renormalised to     307.0000

     negative rho (up, down):  1.404E-04 0.000E+00


---------------------------------------------------------------------------------
Carrying out rVV10 run using the following parameters:
Nqs =      20    Nr_points =    1024   r_max =   100.000
b_value =  6.30000    beta =  0.00901
     q_mesh =  0.00010000  0.00030000  0.00058939  0.00100810
               0.00161396  0.00249058  0.00375900  0.00559430
               0.00824984  0.01209221  0.01765183  0.02569619
               0.03733578  0.05417739  0.07854596  0.11380545
               0.16482331  0.23864234  0.34545298  0.50000000

Gradients computed in Reciprocal space

---------------------------------------------------------------------------------


     Starting wfcs are  213 randomized atomic wfcs

     total cpu time spent up to now is        2.8 secs

     Self-consistent Calculation

     iteration #  1     ecut=    80.00 Ry     beta= 0.70
     Davidson diagonalization with overlap
     ethr =  1.00E-02,  avg # of iterations =  2.0

     Threshold (ethr) on eigenvalues was too large:
     Diagonalizing with lowered threshold

     Davidson diagonalization with overlap
     ethr =  3.68E-04,  avg # of iterations =  4.0

     negative rho (up, down):  2.040E-08 0.000E+00

     total cpu time spent up to now is       21.0 secs

     total energy              =   -2205.54683693 Ry
     estimated scf accuracy    <       1.43110729 Ry

     iteration #  2     ecut=    80.00 Ry     beta= 0.70
     Davidson diagonalization with overlap
     ethr =  4.66E-04,  avg # of iterations =  2.0

     total cpu time spent up to now is       23.5 secs

     total energy              =   -2205.42812437 Ry
     estimated scf accuracy    <       0.55028912 Ry

     iteration #  3     ecut=    80.00 Ry     beta= 0.70
     Davidson diagonalization with overlap
     ethr =  1.79E-04,  avg # of iterations =  2.0

     total cpu time spent up to now is       26.0 secs

     total energy              =   -2205.47756268 Ry
     estimated scf accuracy    <       0.11179431 Ry

     iteration #  4     ecut=    80.00 Ry     beta= 0.70
     Davidson diagonalization with overlap
     ethr =  3.64E-05,  avg # of iterations = 13.0

     total cpu time spent up to now is       29.2 secs

     total energy              =   -2205.49040411 Ry
     estimated scf accuracy    <       0.02686244 Ry

     iteration #  5     ecut=    80.00 Ry     beta= 0.70
     Davidson diagonalization with overlap
     ethr =  8.75E-06,  avg # of iterations =  2.0

     total cpu time spent up to now is       31.6 secs

     total energy              =   -2205.48989566 Ry
     estimated scf accuracy    <       0.01603602 Ry

     iteration #  6     ecut=    80.00 Ry     beta= 0.70
     Davidson diagonalization with overlap
     ethr =  5.22E-06,  avg # of iterations =  2.0

     total cpu time spent up to now is       34.0 secs

     total energy              =   -2205.48887849 Ry
     estimated scf accuracy    <       0.01157309 Ry

     iteration #  7     ecut=    80.00 Ry     beta= 0.70
     Davidson diagonalization with overlap
     ethr =  3.77E-06,  avg # of iterations =  2.0

     negative rho (up, down):  1.068E-04 0.000E+00

     total cpu time spent up to now is       39.2 secs

     total energy              =   -2205.48711562 Ry
     estimated scf accuracy    <       0.00691793 Ry

     iteration #  8     ecut=    80.00 Ry     beta= 0.70
     Davidson diagonalization with overlap
     ethr =  2.25E-06,  avg # of iterations =  2.0

     negative rho (up, down):  9.489E-03 0.000E+00

     total cpu time spent up to now is       43.7 secs

     total energy              =   -2205.48703010 Ry
     estimated scf accuracy    <       0.00321658 Ry

     iteration #  9     ecut=    80.00 Ry     beta= 0.70
     Davidson diagonalization with overlap
     ethr =  1.05E-06,  avg # of iterations =  2.0

     negative rho (up, down):  2.834E-02 0.000E+00

     total cpu time spent up to now is       48.3 secs

     total energy              =   -2205.48697583 Ry
     estimated scf accuracy    <       0.00187539 Ry

     iteration # 10     ecut=    80.00 Ry     beta= 0.70
     Davidson diagonalization with overlap
     ethr =  6.11E-07,  avg # of iterations =  2.0

     negative rho (up, down):  2.819E-02 0.000E+00

     total cpu time spent up to now is       53.7 secs

     total energy              =   -2205.48711440 Ry
     estimated scf accuracy    <       0.00071977 Ry

     iteration # 11     ecut=    80.00 Ry     beta= 0.70
     Davidson diagonalization with overlap
     ethr =  2.34E-07,  avg # of iterations =  2.0

     negative rho (up, down):  8.660E-03 0.000E+00

     total cpu time spent up to now is       60.1 secs

     total energy              =   -2205.48712776 Ry
     estimated scf accuracy    <       0.00016944 Ry

     iteration # 12     ecut=    80.00 Ry     beta= 0.70
     Davidson diagonalization with overlap
     c_bands:  1 eigenvalues not converged
     ethr =  5.52E-08,  avg # of iterations = 20.0

     negative rho (up, down):  4.226E-03 0.000E+00

     total cpu time spent up to now is       68.1 secs

     total energy              =   -2205.48720751 Ry
     estimated scf accuracy    <       0.00005881 Ry

     iteration # 13     ecut=    80.00 Ry     beta= 0.70
     Davidson diagonalization with overlap
     c_bands:  1 eigenvalues not converged
     ethr =  1.92E-08,  avg # of iterations = 20.0

     negative rho (up, down):  9.442E-04 0.000E+00

     total cpu time spent up to now is       77.0 secs

     total energy              =   -2205.48722026 Ry
     estimated scf accuracy    <       0.00000271 Ry

     iteration # 14     ecut=    80.00 Ry     beta= 0.70
     Davidson diagonalization with overlap
     ethr =  8.83E-10,  avg # of iterations =  7.0

     negative rho (up, down):  2.963E-04 0.000E+00

     total cpu time spent up to now is       86.4 secs

     total energy              =   -2205.48722097 Ry
     estimated scf accuracy    <       0.00000183 Ry

     iteration # 15     ecut=    80.00 Ry     beta= 0.70
     Davidson diagonalization with overlap
     ethr =  5.95E-10,  avg # of iterations =  2.0

     negative rho (up, down):  1.369E-04 0.000E+00

     total cpu time spent up to now is       88.7 secs

     End of self-consistent calculation

          k = 0.0000 0.0000 0.0000 (105382 PWs)   bands (ev):

   -62.9166 -62.9075 -62.8955 -62.8788 -62.8603 -62.8561 -62.8464 -62.8394
   -62.8345 -62.8137 -62.7811 -62.7735 -37.2679 -37.1955 -37.1797 -37.1691
   -37.1653 -37.1370 -37.1175 -37.1048 -37.0987 -37.0937 -37.0908 -37.0704
   -37.0674 -37.0650 -37.0498 -37.0454 -37.0389 -37.0323 -37.0256 -37.0160
   -37.0127 -36.9947 -36.9806 -36.9682 -36.9476 -36.9417 -36.9366 -36.9354
   -36.9203 -36.9043 -36.8982 -36.8756 -36.8675 -36.8318 -36.7754 -36.7536
   -16.0211 -15.2265 -15.2048 -15.0081 -14.9697 -14.8492 -14.5576 -14.5438
   -14.5001 -14.4819 -14.4191 -14.3616 -14.3468 -14.3027 -14.1828 -14.1654
   -14.1433 -14.1374 -14.0557 -13.9485 -13.8744 -13.8557 -13.8299  -7.8035
    -7.6188  -7.4180  -7.3393  -7.2878  -7.2304  -7.2215  -7.1480  -7.0550
    -6.8617  -6.8197  -6.7698  -6.7030  -6.6363  -6.5370  -6.4649  -6.4407
    -6.2936  -6.2621  -6.0458  -5.9539  -5.9471  -5.9243  -5.8602  -5.8351
    -5.7859  -5.7419  -5.7028  -5.6873  -5.6423  -5.5858  -5.5569  -5.4997
    -5.4739  -5.4264  -5.2413  -5.1469  -5.0918  -5.0347  -5.0249  -5.0154
    -4.9427  -4.8682  -4.6806  -4.5715  -4.3600  -4.3362  -4.3023  -4.2794
    -4.2286  -4.0669  -4.0436  -3.8628  -3.8510  -3.8174  -3.7550  -3.7223
    -3.6956  -3.6060  -3.5594  -3.5201  -3.5073  -3.4906  -3.4688  -3.4110
    -3.3842  -3.2305  -3.1558  -2.9296  -2.9138  -2.8377  -2.8024  -2.7891
    -2.7375  -2.6885  -2.6690  -2.6556  -2.5985  -2.3217  -2.0451  -2.0117
    -1.9662  -1.1643  -0.8141  -0.7432  -0.2037  -0.1725  -0.1256  -0.0756
     0.0363   0.0940   0.1783   0.2068   0.2375   0.2620   0.3327   0.3882
     0.4332   0.5082   0.5152   0.5397   0.5868   0.6429   0.6895   0.7109
     0.7589   0.7620   0.8326   0.8621   0.9017   0.9359   0.9889   1.0840
     1.3817

     the Fermi energy is    -1.1644 ev

!    total energy              =   -2205.48722194 Ry
     estimated scf accuracy    <       0.00000015 Ry
     smearing contrib. (-TS)   =      -0.00564974 Ry
     internal energy E=F+TS    =   -2205.48157220 Ry

     The total energy is F=E-TS. E is the sum of the following terms:
     one-electron contribution =  -18042.18862428 Ry
     hartree contribution      =    9007.55096641 Ry
     xc contribution           =    -385.17249993 Ry
     ewald contribution        =    7214.32858559 Ry

     convergence has been achieved in  15 iterations

     negative rho (up, down):  1.369E-04 0.000E+00

     Forces acting on atoms (cartesian axes, Ry/au):

     atom    1 type  1   force =     0.01330490   -0.02679423    0.00504210
     atom    2 type  2   force =    -0.01456255    0.01829925    0.00042366
     atom    3 type  2   force =    -0.01230126    0.00969627   -0.00305673
     atom    4 type  1   force =     0.00217209    0.00153168   -0.00771197
     atom    5 type  2   force =    -0.00275099   -0.00604573   -0.00668539
     atom    6 type  2   force =     0.00419453    0.00959418    0.00038001
     atom    7 type  1   force =     0.00289395   -0.01199946   -0.00279218
     atom    8 type  2   force =     0.01756785    0.00645221    0.03969361
     atom    9 type  2   force =     0.01296989    0.00689789    0.01232850
     atom   10 type  1   force =    -0.00924382    0.00875963   -0.02679704
     atom   11 type  2   force =     0.00319194   -0.00067773   -0.01018675
     atom   12 type  2   force =     0.00045006    0.00106065    0.00606607
     atom   13 type  1   force =     0.00585043    0.00420073   -0.00745951
     atom   14 type  2   force =     0.00788260    0.00061962    0.01216373
     atom   15 type  2   force =    -0.01238884    0.00301421   -0.00758518
     atom   16 type  1   force =    -0.00233358    0.01001975    0.00310404
     atom   17 type  2   force =     0.00630709    0.00082594    0.00146838
     atom   18 type  2   force =    -0.00373183   -0.00705714    0.01343082
     atom   19 type  1   force =     0.00813704   -0.01294639   -0.00246894
     atom   20 type  2   force =     0.00306106   -0.00346781    0.00144574
     atom   21 type  1   force =    -0.00701803    0.00742846    0.00089122
     atom   22 type  2   force =    -0.00107557   -0.00122340   -0.00499024
     atom   23 type  2   force =    -0.00210800    0.00159696    0.00993570
     atom   24 type  1   force =    -0.00828954   -0.00465951   -0.02246939
     atom   25 type  2   force =     0.01595766    0.01914028    0.00800439
     atom   26 type  2   force =    -0.01120119   -0.00067144   -0.00407176
     atom   27 type  1   force =    -0.00054099    0.00134353    0.00515794
     atom   28 type  2   force =     0.00125917   -0.00332575   -0.00388838
     atom   29 type  2   force =     0.00246025   -0.00064673   -0.00129089
     atom   30 type  1   force =     0.00151583    0.00857298   -0.03540250
     atom   31 type  2   force =     0.00040920   -0.00089712    0.01932682
     atom   32 type  2   force =    -0.00885460    0.00722551    0.00876094
     atom   33 type  1   force =     0.01674210   -0.00287826   -0.01351553
     atom   34 type  2   force =    -0.00110356   -0.05676573    0.00707048
     atom   35 type  2   force =    -0.00897914    0.00663489    0.01529226
     atom   36 type  3   force =    -0.01984416    0.00714180   -0.00961403
     The non-local contrib.  to forces
     atom    1 type  1   force =    -0.00147760    0.03362396   -0.01263418
     atom    2 type  2   force =    -0.00947598    0.00372770   -0.27057142
     atom    3 type  2   force =    -0.01472142   -0.00271236    0.27095604
     atom    4 type  1   force =     0.00244211    0.00576269   -0.00076190
     atom    5 type  2   force =     0.00285784   -0.03446042   -0.25199718
     atom    6 type  2   force =    -0.00152272    0.01162247    0.26322514
     atom    7 type  1   force =    -0.01369871   -0.00282866   -0.01933467
     atom    8 type  2   force =     0.06548477    0.05893200   -0.14945149
     atom    9 type  2   force =     0.00615342   -0.00869221    0.28073269
     atom   10 type  1   force =     0.00763632   -0.00036070   -0.00045076
     atom   11 type  2   force =     0.01362225    0.00422268   -0.26089920
     atom   12 type  2   force =    -0.00781825   -0.01867554    0.26023081
     atom   13 type  1   force =    -0.00014701    0.01981101   -0.00609864
     atom   14 type  2   force =     0.01120977   -0.01163589   -0.26200831
     atom   15 type  2   force =    -0.01330343   -0.00558839    0.26080777
     atom   16 type  1   force =     0.00247798    0.02780402   -0.02669648
     atom   17 type  2   force =     0.00295204   -0.02947854   -0.24921752
     atom   18 type  2   force =    -0.00419193   -0.00339465    0.27353507
     atom   19 type  1   force =     0.01347314   -0.00139155   -0.01532934
     atom   20 type  2   force =    -0.00013290   -0.01926340    0.26719146
     atom   21 type  1   force =     0.00227595    0.02891493    0.01027974
     atom   22 type  2   force =    -0.00625568    0.00339698   -0.25587892
     atom   23 type  2   force =     0.00629233   -0.01340819    0.26553891
     atom   24 type  1   force =     0.00560125    0.01562899   -0.01104643
     atom   25 type  2   force =     0.01073010    0.00800363   -0.25831010
     atom   26 type  2   force =    -0.00260898   -0.01385028    0.26389783
     atom   27 type  1   force =    -0.00310056    0.00791848    0.00872717
     atom   28 type  2   force =    -0.00373914   -0.02692952   -0.27436725
     atom   29 type  2   force =     0.00511903    0.00457104    0.26315503
     atom   30 type  1   force =     0.00149302    0.01652038    0.01616456
     atom   31 type  2   force =    -0.00619676    0.00733377   -0.23192137
     atom   32 type  2   force =    -0.00122115   -0.01111777    0.27518503
     atom   33 type  1   force =    -0.00797180    0.00624625    0.00355950
     atom   34 type  2   force =    -0.01198270   -0.10667265   -0.20148211
     atom   35 type  2   force =    -0.00217042   -0.01201540    0.27126585
     atom   36 type  3   force =    -0.00321467    0.00144878   -0.00648082
     The ionic contribution  to forces
     atom    1 type  1   force =     0.34400709    0.22788576    5.69744059
     atom    2 type  2   force =    -0.69455302    0.47703124   39.26833969
     atom    3 type  2   force =    -0.17348373    0.03595140  -36.09059030
     atom    4 type  1   force =    -0.01904383    0.34062884    0.48341094
     atom    5 type  2   force =    -1.02037510    1.41741940   38.73440412
     atom    6 type  2   force =     0.33204853   -0.52290369  -38.02697139
     atom    7 type  1   force =    -2.83934092   -2.78062210    2.34787182
     atom    8 type  2   force =    -1.47780345   -0.31521371   36.95337805
     atom    9 type  2   force =     0.31283768   -0.05963303  -38.07897687
     atom   10 type  1   force =    -1.22848054   -0.03661443    5.44375191
     atom   11 type  2   force =    -0.72490134   -1.49026676   39.08098965
     atom   12 type  2   force =     0.41569801    0.72048286  -37.88408211
     atom   13 type  1   force =     0.51520687    0.98722309    2.85978229
     atom   14 type  2   force =     0.05417621    0.02178305   38.51998934
     atom   15 type  2   force =     0.15513312   -0.05260445  -36.79468674
     atom   16 type  1   force =    -0.03883953    3.85536212    0.44736727
     atom   17 type  2   force =     0.85175548    1.43602176   37.92392144
     atom   18 type  2   force =    -0.15043349   -0.66578065  -38.56366938
     atom   19 type  1   force =     2.87946672   -2.44542269    0.49503763
     atom   20 type  2   force =     0.22439881   -0.20800688  -38.49639196
     atom   21 type  1   force =     0.01905650    0.15182680    1.12775402
     atom   22 type  2   force =     0.56711014   -1.63238707   38.39150783
     atom   23 type  2   force =    -0.06625107    0.68958288  -38.31043020
     atom   24 type  1   force =    -0.54130214    1.14410795    5.80808984
     atom   25 type  2   force =     0.69463108    0.34480759   39.25896348
     atom   26 type  2   force =    -0.27709326    0.08155505  -37.33405255
     atom   27 type  1   force =     0.14540570    0.20498391   -2.40243435
     atom   28 type  2   force =     0.06459515    0.83683483   38.16238648
     atom   29 type  2   force =    -0.26323740   -0.46209218  -37.28478645
     atom   30 type  1   force =    -0.25370299   -0.92002097   -0.90610767
     atom   31 type  2   force =     1.61084028   -0.26015872   37.07840691
     atom   32 type  2   force =    -0.44873490   -0.02626933  -38.69697257
     atom   33 type  1   force =     0.93170026   -0.63057595    1.89893123
     atom   34 type  2   force =     0.33869390   -0.81958755   39.00365666
     atom   35 type  2   force =    -0.29449750    0.52278569  -37.88917741
     atom   36 type  3   force =     0.05531269   -0.16811406    7.77394878
     The local contribution  to forces
     atom    1 type  1   force =    -0.32923911   -0.28821106   -5.68017589
     atom    2 type  2   force =     0.68927678   -0.46228556  -39.01826185
     atom    3 type  2   force =     0.17521854   -0.02354775   35.83738557
     atom    4 type  1   force =     0.01872189   -0.34485179   -0.49075833
     atom    5 type  2   force =     1.01520930   -1.39085798  -38.50964230
     atom    6 type  2   force =    -0.32663655    0.52202963   37.78491698
     atom    7 type  1   force =     2.85598780    2.77143952   -2.33167688
     atom    8 type  2   force =     1.43314299    0.26537723  -36.77953069
     atom    9 type  2   force =    -0.30596800    0.07468660   37.83162506
     atom   10 type  1   force =     1.21152788    0.04572027   -5.47038829
     atom   11 type  2   force =     0.71517828    1.48578315  -38.85117680
     atom   12 type  2   force =    -0.40834822   -0.70226821   37.65050467
     atom   13 type  1   force =    -0.50917143   -1.00267881   -2.86154559
     atom   14 type  2   force =    -0.05689962   -0.00959806  -38.26657567
     atom   15 type  2   force =    -0.15493323    0.06087490   36.54671683
     atom   16 type  1   force =     0.03408806   -3.87326043   -0.41799289
     atom   17 type  2   force =    -0.84834988   -1.40724484  -37.69367050
     atom   18 type  2   force =     0.15086349    0.66261619   38.32450208
     atom   19 type  1   force =    -2.88479914    2.43381890   -0.48255207
     atom   20 type  2   force =    -0.22130261    0.22306846   38.25179920
     atom   21 type  1   force =    -0.02824728   -0.17335071   -1.13751526
     atom   22 type  2   force =    -0.56209691    1.62819114  -38.16117061
     atom   23 type  2   force =     0.05839632   -0.67581102   38.07548387
     atom   24 type  1   force =     0.52737469   -1.16435228   -5.81982144
     atom   25 type  2   force =    -0.68928925   -0.33313542  -39.01337206
     atom   26 type  2   force =     0.26866556   -0.06907990   37.08683406
     atom   27 type  1   force =    -0.14283057   -0.21156330    2.39847049
     atom   28 type  2   force =    -0.05986331   -0.81509298  -37.91299492
     atom   29 type  2   force =     0.26109214    0.45760587   37.04077857
     atom   30 type  1   force =     0.25367262    0.91198466    0.85413303
     atom   31 type  2   force =    -1.60467507    0.25218249  -36.84678724
     atom   32 type  2   force =     0.44134225    0.04392244   38.45152400
     atom   33 type  1   force =    -0.90699115    0.62144430   -1.91634154
     atom   34 type  2   force =    -0.32880341    0.86477973  -38.81271633
     atom   35 type  2   force =     0.28775109   -0.50518885   37.65416276
     atom   36 type  3   force =    -0.07194337    0.17380321   -7.77709995
     The core correction contribution to forces
     atom    1 type  1   force =     0.00000000    0.00000000    0.00000000
     atom    2 type  2   force =     0.00020880   -0.00018727    0.02075951
     atom    3 type  2   force =     0.00067278    0.00002481   -0.02092425
     atom    4 type  1   force =     0.00000000    0.00000000    0.00000000
     atom    5 type  2   force =    -0.00046290    0.00187544    0.02032526
     atom    6 type  2   force =     0.00025216   -0.00112119   -0.02088449
     atom    7 type  1   force =     0.00000000    0.00000000    0.00000000
     atom    8 type  2   force =    -0.00328200   -0.00265466    0.01514584
     atom    9 type  2   force =    -0.00006760    0.00052137   -0.02118412
     atom   10 type  1   force =     0.00000000    0.00000000    0.00000000
     atom   11 type  2   force =    -0.00065366   -0.00043404    0.02072501
     atom   12 type  2   force =     0.00093013    0.00148438   -0.02068935
     atom   13 type  1   force =     0.00000000    0.00000000    0.00000000
     atom   14 type  2   force =    -0.00059634    0.00010532    0.02061051
     atom   15 type  2   force =     0.00072312    0.00037887   -0.02055812
     atom   16 type  1   force =     0.00000000    0.00000000    0.00000000
     atom   17 type  2   force =    -0.00003444    0.00152854    0.02022207
     atom   18 type  2   force =     0.00008173   -0.00047385   -0.02102106
     atom   19 type  1   force =     0.00000000    0.00000000    0.00000000
     atom   20 type  2   force =     0.00012239    0.00067689   -0.02127209
     atom   21 type  1   force =     0.00000000    0.00000000    0.00000000
     atom   22 type  2   force =     0.00015275   -0.00044261    0.02040306
     atom   23 type  2   force =    -0.00053774    0.00120175   -0.02078754
     atom   24 type  1   force =     0.00000000    0.00000000    0.00000000
     atom   25 type  2   force =    -0.00013919   -0.00049930    0.02058266
     atom   26 type  2   force =    -0.00015469    0.00075096   -0.02087468
     atom   27 type  1   force =     0.00000000    0.00000000    0.00000000
     atom   28 type  2   force =     0.00026933    0.00186510    0.02094238
     atom   29 type  2   force =    -0.00051179   -0.00071224   -0.02056898
     atom   30 type  1   force =     0.00000000    0.00000000    0.00000000
     atom   31 type  2   force =     0.00042770   -0.00029084    0.01948431
     atom   32 type  2   force =    -0.00024481    0.00065447   -0.02111016
     atom   33 type  1   force =     0.00000000    0.00000000    0.00000000
     atom   34 type  2   force =     0.00095002    0.00473495    0.01751589
     atom   35 type  2   force =    -0.00009035    0.00101661   -0.02109943
     atom   36 type  3   force =     0.00000000    0.00000000    0.00000000
     The Hubbard contrib.    to forces
     atom    1 type  1   force =     0.00000000    0.00000000    0.00000000
     atom    2 type  2   force =     0.00000000    0.00000000    0.00000000
     atom    3 type  2   force =     0.00000000    0.00000000    0.00000000
     atom    4 type  1   force =     0.00000000    0.00000000    0.00000000
     atom    5 type  2   force =     0.00000000    0.00000000    0.00000000
     atom    6 type  2   force =     0.00000000    0.00000000    0.00000000
     atom    7 type  1   force =     0.00000000    0.00000000    0.00000000
     atom    8 type  2   force =     0.00000000    0.00000000    0.00000000
     atom    9 type  2   force =     0.00000000    0.00000000    0.00000000
     atom   10 type  1   force =     0.00000000    0.00000000    0.00000000
     atom   11 type  2   force =     0.00000000    0.00000000    0.00000000
     atom   12 type  2   force =     0.00000000    0.00000000    0.00000000
     atom   13 type  1   force =     0.00000000    0.00000000    0.00000000
     atom   14 type  2   force =     0.00000000    0.00000000    0.00000000
     atom   15 type  2   force =     0.00000000    0.00000000    0.00000000
     atom   16 type  1   force =     0.00000000    0.00000000    0.00000000
     atom   17 type  2   force =     0.00000000    0.00000000    0.00000000
     atom   18 type  2   force =     0.00000000    0.00000000    0.00000000
     atom   19 type  1   force =     0.00000000    0.00000000    0.00000000
     atom   20 type  2   force =     0.00000000    0.00000000    0.00000000
     atom   21 type  1   force =     0.00000000    0.00000000    0.00000000
     atom   22 type  2   force =     0.00000000    0.00000000    0.00000000
     atom   23 type  2   force =     0.00000000    0.00000000    0.00000000
     atom   24 type  1   force =     0.00000000    0.00000000    0.00000000
     atom   25 type  2   force =     0.00000000    0.00000000    0.00000000
     atom   26 type  2   force =     0.00000000    0.00000000    0.00000000
     atom   27 type  1   force =     0.00000000    0.00000000    0.00000000
     atom   28 type  2   force =     0.00000000    0.00000000    0.00000000
     atom   29 type  2   force =     0.00000000    0.00000000    0.00000000
     atom   30 type  1   force =     0.00000000    0.00000000    0.00000000
     atom   31 type  2   force =     0.00000000    0.00000000    0.00000000
     atom   32 type  2   force =     0.00000000    0.00000000    0.00000000
     atom   33 type  1   force =     0.00000000    0.00000000    0.00000000
     atom   34 type  2   force =     0.00000000    0.00000000    0.00000000
     atom   35 type  2   force =     0.00000000    0.00000000    0.00000000
     atom   36 type  3   force =     0.00000000    0.00000000    0.00000000
     The SCF correction term to forces
     atom    1 type  1   force =     0.00001445   -0.00009577    0.00040532
     atom    2 type  2   force =    -0.00001921    0.00001026    0.00015149
     atom    3 type  2   force =     0.00001249   -0.00002272    0.00010994
     atom    4 type  1   force =     0.00005185   -0.00001095    0.00039108
     atom    5 type  2   force =     0.00001979   -0.00002505    0.00021845
     atom    6 type  2   force =     0.00005303   -0.00003591    0.00008750
     atom    7 type  1   force =    -0.00005429    0.00000890    0.00034129
     atom    8 type  2   force =     0.00002546    0.00000847    0.00014564
     atom    9 type  2   force =     0.00001430    0.00001228    0.00012548
     atom   10 type  1   force =     0.00007244    0.00001161    0.00028385
     atom   11 type  2   force =    -0.00005367    0.00001436    0.00016833
     atom   12 type  2   force =    -0.00001169    0.00003428    0.00009580
     atom   13 type  1   force =    -0.00003808   -0.00015745    0.00039618
     atom   14 type  2   force =    -0.00000749   -0.00003769    0.00014161
     atom   15 type  2   force =    -0.00000851   -0.00004960    0.00012884
     atom   16 type  1   force =    -0.00006016    0.00011116    0.00041989
     atom   17 type  2   force =    -0.00001619   -0.00000387    0.00020664
     atom   18 type  2   force =    -0.00005171   -0.00002706    0.00007785
     atom   19 type  1   force =    -0.00000377    0.00004606    0.00036860
     atom   20 type  2   force =    -0.00002470    0.00005424    0.00011286
     atom   21 type  1   force =    -0.00010328    0.00003455    0.00036646
     atom   22 type  2   force =     0.00001405    0.00001528    0.00014214
     atom   23 type  2   force =    -0.00000791    0.00002865    0.00012441
     atom   24 type  1   force =     0.00003658   -0.00004706    0.00030238
     atom   25 type  2   force =     0.00002485   -0.00003910    0.00013416
     atom   26 type  2   force =    -0.00000989   -0.00005015    0.00011733
     atom   27 type  1   force =    -0.00001563    0.00000156    0.00038837
     atom   28 type  2   force =    -0.00000294   -0.00000606    0.00013867
     atom   29 type  2   force =    -0.00000181   -0.00002211    0.00012469
     atom   30 type  1   force =     0.00005309    0.00008603    0.00040132
     atom   31 type  2   force =     0.00001299    0.00003330    0.00013795
     atom   32 type  2   force =     0.00000393    0.00003281    0.00012839
     atom   33 type  1   force =     0.00000472    0.00000425    0.00032901
     atom   34 type  2   force =     0.00003855   -0.00002310    0.00009011
     atom   35 type  2   force =     0.00002796    0.00003395    0.00013423
     atom   36 type  3   force =     0.00000111    0.00000098    0.00001171

     Total force =     0.122291     Total SCF correction =     0.001478

     BFGS Geometry Optimization
     Energy error            =      0.0E+00 Ry
     Gradient error          =      5.7E-02 Ry/Bohr

     number of scf cycles    =   1
     number of bfgs steps    =   0

     energy             new  =   -2205.4872219398 Ry

     new trust radius        =       0.0572150115 bohr
     new conv_thr            =       0.0000010000 Ry


ATOMIC_POSITIONS (angstrom)
Mo            6.5815890596        1.7736273346        2.8263111954
S             8.1690031674        0.8193875706        4.4347625452
S             8.1867235372        0.8163727882        1.2762658748
Mo            8.0963119878        4.4958674763        2.7137373968
S             6.4984534958        3.7192122245        4.3431228929
S             6.5555694482        3.5168145769        1.1214813180
Mo            6.4915131105        7.2120874451        2.6704069247
S             8.0910242320        6.3472853558        4.2634665168
S             8.0877810162        6.3083525240        1.0903869595
Mo            8.1557274288        9.9068158118        2.8292813801
S             6.4968566985        8.9425681767        4.3777149368
S             6.6181853609        9.0492724836        1.1431173261
Mo            3.4247555768        1.7491787797        2.7725237616
S             4.9793367844        0.8172690986        4.3569698604
S             5.0512778635        0.8478571587        1.2226445585
Mo            4.9785218058        4.5184802243        2.6345271381
S             3.4311792299        3.6720367545        4.2804866129
S             3.4359457806        3.5444942198        1.0654589639
Mo            3.4581676736        7.2094736027        2.6293703569
S             4.9848540384        6.3250972003        1.0380187839
Mo            5.0085501390        9.9055310219        2.7438725727
S             3.4703889475        8.9431038748        4.3229505926
S             3.4073136599        9.0658350605        1.1013260476
Mo            0.2917038524        1.7450438249        2.8375544182
S             1.8589066425        0.8028226085        4.4024451795
S             1.8548726207        0.8540706079        1.2072461715
Mo            1.8604050309        4.4963777287        2.6629268427
S             0.2728801723        3.6526389132        4.3355264588
S             0.2325331179        3.5269069937        1.1713347753
Mo            0.2719542913        7.2211827209        2.6829622307
S             1.9024547891        6.3123241016        4.2326714342
S             1.8575525618        6.3141673861        1.0491953726
Mo            1.8532062020        9.9386160428        2.7657941425
S             0.2953289219        9.0599586968        4.4176110009
S             0.2720198420        9.0470367453        1.1584930956
H            -0.0105010751        7.2897126091        5.4727958981



     Writing config-only to output data dir ./MoS2-V-O.save/
     NEW-OLD atomic charge density approx. for the potential

     negative rho (up, down):  1.434E-04 0.000E+00

     total cpu time spent up to now is       92.2 secs

     Self-consistent Calculation

     iteration #  1     ecut=    80.00 Ry     beta= 0.70
     Davidson diagonalization with overlap
     ethr =  1.00E-06,  avg # of iterations =  8.0

     negative rho (up, down):  1.017E-04 0.000E+00

     total cpu time spent up to now is      105.0 secs

     total energy              =   -2205.49932851 Ry
     estimated scf accuracy    <       0.00105744 Ry

     iteration #  2     ecut=    80.00 Ry     beta= 0.70
     Davidson diagonalization with overlap
     ethr =  3.44E-07,  avg # of iterations =  2.0

     negative rho (up, down):  8.721E-05 0.000E+00

     total cpu time spent up to now is      123.0 secs

     total energy              =   -2205.49935200 Ry
     estimated scf accuracy    <       0.00022261 Ry

     iteration #  3     ecut=    80.00 Ry     beta= 0.70
     Davidson diagonalization with overlap
     ethr =  7.25E-08,  avg # of iterations =  6.0

     negative rho (up, down):  8.397E-05 0.000E+00

     total cpu time spent up to now is      137.4 secs

     total energy              =   -2205.49938465 Ry
     estimated scf accuracy    <       0.00002119 Ry

     iteration #  4     ecut=    80.00 Ry     beta= 0.70
     Davidson diagonalization with overlap
     ethr =  6.90E-09,  avg # of iterations =  5.0

     negative rho (up, down):  8.297E-05 0.000E+00

     total cpu time spent up to now is      157.5 secs

     total energy              =   -2205.49939248 Ry
     estimated scf accuracy    <       0.00000400 Ry

     iteration #  5     ecut=    80.00 Ry     beta= 0.70
     Davidson diagonalization with overlap
     ethr =  1.30E-09,  avg # of iterations =  2.0

     negative rho (up, down):  1.372E-04 0.000E+00

     total cpu time spent up to now is      159.7 secs

     End of self-consistent calculation

          k = 0.0000 0.0000 0.0000 (105382 PWs)   bands (ev):

   -62.9131 -62.9059 -62.8953 -62.8751 -62.8556 -62.8503 -62.8430 -62.8364
   -62.8318 -62.8103 -62.7752 -62.7718 -37.2631 -37.1917 -37.1734 -37.1648
   -37.1590 -37.1342 -37.1135 -37.1012 -37.0929 -37.0906 -37.0890 -37.0687
   -37.0631 -37.0624 -37.0436 -37.0411 -37.0348 -37.0281 -37.0209 -37.0132
   -37.0097 -36.9915 -36.9763 -36.9641 -36.9438 -36.9398 -36.9351 -36.9331
   -36.9149 -36.9023 -36.8939 -36.8716 -36.8631 -36.8295 -36.7755 -36.7497
   -16.0166 -15.2262 -15.1979 -14.9996 -14.9558 -14.8540 -14.5526 -14.5245
   -14.4874 -14.4795 -14.4249 -14.3614 -14.3496 -14.3062 -14.1763 -14.1626
   -14.1420 -14.1386 -14.0571 -13.9325 -13.8783 -13.8551 -13.8361  -7.8129
    -7.6174  -7.4065  -7.3354  -7.2775  -7.2339  -7.2282  -7.1547  -7.0651
    -6.8607  -6.8126  -6.7612  -6.6932  -6.6393  -6.5315  -6.4541  -6.4315
    -6.2925  -6.2587  -6.0445  -5.9521  -5.9356  -5.9228  -5.8456  -5.8295
    -5.7867  -5.7380  -5.7040  -5.6872  -5.6510  -5.5923  -5.5597  -5.4939
    -5.4564  -5.3898  -5.2324  -5.1419  -5.0733  -5.0380  -5.0217  -5.0014
    -4.9479  -4.8726  -4.6703  -4.5725  -4.3515  -4.3332  -4.2965  -4.2754
    -4.2396  -4.0780  -4.0510  -3.8682  -3.8495  -3.8081  -3.7413  -3.7263
    -3.6980  -3.5905  -3.5605  -3.5291  -3.5062  -3.4958  -3.4657  -3.4066
    -3.3872  -3.2313  -3.1584  -2.9200  -2.9115  -2.8256  -2.8019  -2.7827
    -2.7292  -2.6917  -2.6723  -2.6509  -2.5985  -2.3156  -2.0391  -2.0141
    -1.9946  -1.1757  -0.8029  -0.7390  -0.1926  -0.1782  -0.1114  -0.0748
     0.0441   0.0902   0.1983   0.2295   0.2336   0.2758   0.3450   0.3927
     0.4393   0.5128   0.5235   0.5413   0.5918   0.6484   0.6765   0.7059
     0.7604   0.7739   0.8411   0.8556   0.9197   0.9513   0.9941   1.0855
     1.3912

     the Fermi energy is    -1.1758 ev

!    total energy              =   -2205.49939247 Ry
     estimated scf accuracy    <       0.00000095 Ry
     smearing contrib. (-TS)   =      -0.00564517 Ry
     internal energy E=F+TS    =   -2205.49374730 Ry

     The total energy is F=E-TS. E is the sum of the following terms:
     one-electron contribution =  -18041.97256772 Ry
     hartree contribution      =    9007.49752840 Ry
     xc contribution           =    -385.16978901 Ry
     ewald contribution        =    7214.15108103 Ry

     convergence has been achieved in   5 iterations

     negative rho (up, down):  1.372E-04 0.000E+00

     Forces acting on atoms (cartesian axes, Ry/au):

     atom    1 type  1   force =     0.00323288   -0.01324963   -0.00001108
     atom    2 type  2   force =    -0.00834516    0.01127295   -0.00181859
     atom    3 type  2   force =    -0.01088330    0.00720992   -0.00915820
     atom    4 type  1   force =     0.00359061    0.00326071    0.00008875
     atom    5 type  2   force =    -0.00079259   -0.00571511   -0.00721091
     atom    6 type  2   force =     0.00273297    0.00569954    0.00209338
     atom    7 type  1   force =     0.00473571   -0.00817867    0.00425357
     atom    8 type  2   force =     0.01877795    0.00541275    0.02754871
     atom    9 type  2   force =     0.00990062    0.00527640    0.00623639
     atom   10 type  1   force =    -0.00251249    0.00636579   -0.00770366
     atom   11 type  2   force =     0.00247979   -0.00013526   -0.01160254
     atom   12 type  2   force =    -0.00237761   -0.00000209    0.00246058
     atom   13 type  1   force =     0.00439271    0.00302604   -0.00264921
     atom   14 type  2   force =     0.00556133    0.00027091    0.00884935
     atom   15 type  2   force =    -0.00868238    0.00224450   -0.00652006
     atom   16 type  1   force =    -0.00074152    0.00642731    0.00258064
     atom   17 type  2   force =     0.00521557    0.00099950    0.00146804
     atom   18 type  2   force =    -0.00252144   -0.00434587    0.01031250
     atom   19 type  1   force =     0.00519959   -0.00931663    0.00280157
     atom   20 type  2   force =     0.00352354   -0.00342684   -0.00222200
     atom   21 type  1   force =    -0.00455716    0.00424362    0.00215999
     atom   22 type  2   force =    -0.00041163   -0.00168161   -0.00503753
     atom   23 type  2   force =    -0.00004403   -0.00024076    0.00544418
     atom   24 type  1   force =    -0.00468435   -0.00306667   -0.00928800
     atom   25 type  2   force =     0.01095643    0.01411938    0.00047829
     atom   26 type  2   force =    -0.00706993   -0.00079991   -0.00547717
     atom   27 type  1   force =    -0.00090512    0.00070076    0.00643981
     atom   28 type  2   force =     0.00010295   -0.00422456   -0.00575656
     atom   29 type  2   force =     0.00226998    0.00076559   -0.00328623
     atom   30 type  1   force =     0.00115328   -0.00004801   -0.01104429
     atom   31 type  2   force =    -0.00121589    0.00052598    0.01025379
     atom   32 type  2   force =    -0.00504744    0.00491758    0.00409193
     atom   33 type  1   force =     0.00706341   -0.00122049   -0.00031398
     atom   34 type  2   force =    -0.00201356   -0.04464731   -0.00265688
     atom   35 type  2   force =    -0.00631948    0.00970597    0.00546808
     atom   36 type  3   force =    -0.02176422    0.00785420   -0.01127265
     The non-local contrib.  to forces
     atom    1 type  1   force =     0.00029062    0.02991389   -0.01317361
     atom    2 type  2   force =    -0.00546040   -0.00094915   -0.26992758
     atom    3 type  2   force =    -0.01247349   -0.00548956    0.26578843
     atom    4 type  1   force =     0.00300786    0.00680362   -0.00265347
     atom    5 type  2   force =     0.00376785   -0.03478633   -0.25318544
     atom    6 type  2   force =    -0.00265973    0.00805301    0.26571039
     atom    7 type  1   force =    -0.01351299   -0.00325513   -0.02154378
     atom    8 type  2   force =     0.06969636    0.06145396   -0.15163056
     atom    9 type  2   force =     0.00475996   -0.00954768    0.27762069
     atom   10 type  1   force =     0.00649904   -0.00004607   -0.00211619
     atom   11 type  2   force =     0.01197068    0.00414054   -0.26206718
     atom   12 type  2   force =    -0.00920788   -0.01971924    0.25975093
     atom   13 type  1   force =     0.00087994    0.02083889   -0.00619733
     atom   14 type  2   force =     0.00953672   -0.01150144   -0.26341361
     atom   15 type  2   force =    -0.01048870   -0.00648796    0.26089957
     atom   16 type  1   force =     0.00201410    0.02886612   -0.02884071
     atom   17 type  2   force =     0.00197136   -0.02836339   -0.24969875
     atom   18 type  2   force =    -0.00297337   -0.00156692    0.27208165
     atom   19 type  1   force =     0.01514291   -0.00035249   -0.01688364
     atom   20 type  2   force =     0.00025597   -0.01852886    0.26454591
     atom   21 type  1   force =     0.00117541    0.02974918    0.00912704
     atom   22 type  2   force =    -0.00477877    0.00206747   -0.25624035
     atom   23 type  2   force =     0.00773690   -0.01501550    0.26347325
     atom   24 type  1   force =     0.00369794    0.01599321   -0.01049539
     atom   25 type  2   force =     0.00756626    0.00439564   -0.26253937
     atom   26 type  2   force =     0.00046265   -0.01359128    0.26333364
     atom   27 type  1   force =    -0.00320052    0.00774297    0.00686141
     atom   28 type  2   force =    -0.00409446   -0.02657584   -0.27610091
     atom   29 type  2   force =     0.00427134    0.00417982    0.26313485
     atom   30 type  1   force =     0.00171424    0.01696914    0.01629482
     atom   31 type  2   force =    -0.00543372    0.00646824   -0.23717177
     atom   32 type  2   force =     0.00138202   -0.01220782    0.27276444
     atom   33 type  1   force =    -0.00611400    0.00523545    0.00125043
     atom   34 type  2   force =    -0.01347487   -0.10098679   -0.20204316
     atom   35 type  2   force =    -0.00022065   -0.01007572    0.26594296
     atom   36 type  3   force =    -0.00361810    0.00163123   -0.00697412
     The ionic contribution  to forces
     atom    1 type  1   force =     0.09860623    0.58417951    5.81204756
     atom    2 type  2   force =    -0.48870226    0.34388480   39.35176218
     atom    3 type  2   force =    -0.15681618    0.05516272  -36.20528210
     atom    4 type  1   force =    -0.06658614    0.36614658    0.49640325
     atom    5 type  2   force =    -0.99064396    1.41271862   38.63909106
     atom    6 type  2   force =     0.26255140   -0.57468462  -37.93245439
     atom    7 type  1   force =    -2.76619534   -2.69024831    2.47406072
     atom    8 type  2   force =    -1.45692215   -0.34247627   37.09961792
     atom    9 type  2   force =     0.23377060   -0.10595938  -38.03959057
     atom   10 type  1   force =    -0.92927473   -0.11142111    5.19972192
     atom   11 type  2   force =    -0.67724897   -1.49489652   39.00777206
     atom   12 type  2   force =     0.31837071    0.65336083  -37.84205429
     atom   13 type  1   force =     0.45652017    0.96519342    2.80114193
     atom   14 type  2   force =    -0.01886275    0.04634497   38.61603104
     atom   15 type  2   force =     0.17631543   -0.00572508  -36.84483697
     atom   16 type  1   force =     0.07243756    3.64416238    0.58314606
     atom   17 type  2   force =     0.83629841    1.39544622   37.94443885
     atom   18 type  2   force =    -0.12845250   -0.62603607  -38.49322671
     atom   19 type  1   force =     2.81793882   -2.34771953    0.56839140
     atom   20 type  2   force =     0.22801074   -0.20014614  -38.55361192
     atom   21 type  1   force =     0.04584243    0.03819648    1.26428173
     atom   22 type  2   force =     0.53264976   -1.64174805   38.39313362
     atom   23 type  2   force =    -0.01771920    0.62645543  -38.28162140
     atom   24 type  1   force =    -0.33244962    1.03299626    5.52307904
     atom   25 type  2   force =     0.55869909    0.27011517   39.23479293
     atom   26 type  2   force =    -0.23685742    0.09189391  -37.31384155
     atom   27 type  1   force =     0.10465847    0.19534978   -2.14563263
     atom   28 type  2   force =     0.04903539    0.77983517   38.13031745
     atom   29 type  2   force =    -0.23195913   -0.41656542  -37.28513633
     atom   30 type  1   force =    -0.25061055   -1.00134968   -1.53362542
     atom   31 type  2   force =     1.54016425   -0.20610731   37.15129861
     atom   32 type  2   force =    -0.36119645   -0.09065126  -38.67527797
     atom   33 type  1   force =     0.64097555   -0.48013046    1.98156671
     atom   34 type  2   force =     0.32048276   -0.60290884   38.91216442
     atom   35 type  2   force =    -0.24575323    0.60564660  -37.81955909
     atom   36 type  3   force =     0.06292280   -0.16831478    7.78149088
     The local contribution  to forces
     atom    1 type  1   force =    -0.09550988   -0.62808553   -5.79930893
     atom    2 type  2   force =     0.48576194   -0.33165664  -39.10488014
     atom    3 type  2   force =     0.15779945   -0.04269892   35.95103971
     atom    4 type  1   force =     0.06717651   -0.36968588   -0.49434525
     atom    5 type  2   force =     0.98657980   -1.38574797  -38.41391177
     atom    6 type  2   force =    -0.25744522    0.57322040   37.68958387
     atom    7 type  1   force =     2.78468206    2.68552993   -2.44912280
     atom    8 type  2   force =     1.40961373    0.28930472  -36.93601078
     atom    9 type  2   force =    -0.22853445    0.12032499   37.78920799
     atom   10 type  1   force =     0.92021304    0.11816868   -5.20610613
     atom   11 type  2   force =     0.66831560    1.49125186  -38.77859090
     atom   12 type  2   force =    -0.31249428   -0.63500694   37.60527239
     atom   13 type  1   force =    -0.45266612   -0.98338397   -2.79815818
     atom   14 type  2   force =     0.01540492   -0.03468918  -38.36484897
     atom   15 type  2   force =    -0.17512467    0.01396985   36.59785381
     atom   16 type  1   force =    -0.07508985   -3.66682585   -0.55244313
     atom   17 type  2   force =    -0.83301346   -1.36780697  -37.71387712
     atom   18 type  2   force =     0.12893235    0.62367717   38.25226979
     atom   19 type  1   force =    -2.82793444    2.33916206   -0.54956488
     atom   20 type  2   force =    -0.22482972    0.21463661   38.30771025
     atom   21 type  1   force =    -0.05178683   -0.06328514   -1.27190184
     atom   22 type  2   force =    -0.52839669    1.63862997  -38.16283347
     atom   23 type  2   force =     0.01054378   -0.61280142   38.04419347
     atom   24 type  1   force =     0.32388883   -1.05265800   -5.52243333
     atom   25 type  2   force =    -0.55531910   -0.26011273  -38.99285739
     atom   26 type  2   force =     0.22961319   -0.07992518   37.06580083
     atom   27 type  1   force =    -0.10252784   -0.20242922    2.14457868
     atom   28 type  2   force =    -0.04512402   -0.75947852  -37.88142081
     atom   29 type  2   force =     0.23040821    0.41373743   37.03911830
     atom   30 type  1   force =     0.25000273    0.98473002    1.50549976
     atom   31 type  2   force =    -1.53638513    0.20046542  -36.92398256
     atom   32 type  2   force =     0.35503303    0.10720942   38.42747460
     atom   33 type  1   force =    -0.62760825    0.47382264   -1.98376253
     atom   34 type  2   force =    -0.30997578    0.65480791  -38.73068472
     atom   35 type  2   force =     0.23983040   -0.58682333   37.57995603
     atom   36 type  3   force =    -0.08106817    0.17454894   -7.78592395
     The core correction contribution to forces
     atom    1 type  1   force =     0.00000000    0.00000000    0.00000000
     atom    2 type  2   force =     0.00014989   -0.00007506    0.02078393
     atom    3 type  2   force =     0.00056451    0.00017210   -0.02082731
     atom    4 type  1   force =     0.00000000    0.00000000    0.00000000
     atom    5 type  2   force =    -0.00049520    0.00186579    0.02031311
     atom    6 type  2   force =     0.00024811   -0.00100645   -0.02091611
     atom    7 type  1   force =     0.00000000    0.00000000    0.00000000
     atom    8 type  2   force =    -0.00348127   -0.00280863    0.01499494
     atom    9 type  2   force =    -0.00005876    0.00051612   -0.02115026
     atom   10 type  1   force =     0.00000000    0.00000000    0.00000000
     atom   11 type  2   force =    -0.00052997   -0.00042985    0.02074103
     atom   12 type  2   force =     0.00090517    0.00147978   -0.02067175
     atom   13 type  1   force =     0.00000000    0.00000000    0.00000000
     atom   14 type  2   force =    -0.00057806    0.00012976    0.02067293
     atom   15 type  2   force =     0.00062946    0.00045127   -0.02057454
     atom   16 type  1   force =     0.00000000    0.00000000    0.00000000
     atom   17 type  2   force =     0.00000943    0.00144376    0.02024080
     atom   18 type  2   force =     0.00002649   -0.00052028   -0.02099517
     atom   19 type  1   force =     0.00000000    0.00000000    0.00000000
     atom   20 type  2   force =     0.00011482    0.00065547   -0.02121871
     atom   21 type  1   force =     0.00000000    0.00000000    0.00000000
     atom   22 type  2   force =     0.00006418   -0.00042113    0.02043006
     atom   23 type  2   force =    -0.00055448    0.00121416   -0.02075408
     atom   24 type  1   force =     0.00000000    0.00000000    0.00000000
     atom   25 type  2   force =    -0.00005504   -0.00036687    0.02067506
     atom   26 type  2   force =    -0.00026126    0.00074742   -0.02085135
     atom   27 type  1   force =     0.00000000    0.00000000    0.00000000
     atom   28 type  2   force =     0.00026828    0.00178718    0.02100335
     atom   29 type  2   force =    -0.00044022   -0.00064989   -0.02058370
     atom   30 type  1   force =     0.00000000    0.00000000    0.00000000
     atom   31 type  2   force =     0.00031781   -0.00018222    0.01960286
     atom   32 type  2   force =    -0.00030089    0.00063264   -0.02105519
     atom   33 type  1   force =     0.00000000    0.00000000    0.00000000
     atom   34 type  2   force =     0.00099203    0.00467308    0.01729828
     atom   35 type  2   force =    -0.00015464    0.00101601   -0.02095027
     atom   36 type  3   force =     0.00000000    0.00000000    0.00000000
     The Hubbard contrib.    to forces
     atom    1 type  1   force =     0.00000000    0.00000000    0.00000000
     atom    2 type  2   force =     0.00000000    0.00000000    0.00000000
     atom    3 type  2   force =     0.00000000    0.00000000    0.00000000
     atom    4 type  1   force =     0.00000000    0.00000000    0.00000000
     atom    5 type  2   force =     0.00000000    0.00000000    0.00000000
     atom    6 type  2   force =     0.00000000    0.00000000    0.00000000
     atom    7 type  1   force =     0.00000000    0.00000000    0.00000000
     atom    8 type  2   force =     0.00000000    0.00000000    0.00000000
     atom    9 type  2   force =     0.00000000    0.00000000    0.00000000
     atom   10 type  1   force =     0.00000000    0.00000000    0.00000000
     atom   11 type  2   force =     0.00000000    0.00000000    0.00000000
     atom   12 type  2   force =     0.00000000    0.00000000    0.00000000
     atom   13 type  1   force =     0.00000000    0.00000000    0.00000000
     atom   14 type  2   force =     0.00000000    0.00000000    0.00000000
     atom   15 type  2   force =     0.00000000    0.00000000    0.00000000
     atom   16 type  1   force =     0.00000000    0.00000000    0.00000000
     atom   17 type  2   force =     0.00000000    0.00000000    0.00000000
     atom   18 type  2   force =     0.00000000    0.00000000    0.00000000
     atom   19 type  1   force =     0.00000000    0.00000000    0.00000000
     atom   20 type  2   force =     0.00000000    0.00000000    0.00000000
     atom   21 type  1   force =     0.00000000    0.00000000    0.00000000
     atom   22 type  2   force =     0.00000000    0.00000000    0.00000000
     atom   23 type  2   force =     0.00000000    0.00000000    0.00000000
     atom   24 type  1   force =     0.00000000    0.00000000    0.00000000
     atom   25 type  2   force =     0.00000000    0.00000000    0.00000000
     atom   26 type  2   force =     0.00000000    0.00000000    0.00000000
     atom   27 type  1   force =     0.00000000    0.00000000    0.00000000
     atom   28 type  2   force =     0.00000000    0.00000000    0.00000000
     atom   29 type  2   force =     0.00000000    0.00000000    0.00000000
     atom   30 type  1   force =     0.00000000    0.00000000    0.00000000
     atom   31 type  2   force =     0.00000000    0.00000000    0.00000000
     atom   32 type  2   force =     0.00000000    0.00000000    0.00000000
     atom   33 type  1   force =     0.00000000    0.00000000    0.00000000
     atom   34 type  2   force =     0.00000000    0.00000000    0.00000000
     atom   35 type  2   force =     0.00000000    0.00000000    0.00000000
     atom   36 type  3   force =     0.00000000    0.00000000    0.00000000
     The SCF correction term to forces
     atom    1 type  1   force =    -0.00015141    0.00074121    0.00040211
     atom    2 type  2   force =    -0.00009166    0.00006773    0.00042122
     atom    3 type  2   force =     0.00004508    0.00006230    0.00010127
     atom    4 type  1   force =    -0.00000494   -0.00000489    0.00066242
     atom    5 type  2   force =     0.00000159    0.00023350    0.00046034
     atom    6 type  2   force =     0.00004109    0.00011592    0.00014782
     atom    7 type  1   force =    -0.00023535   -0.00020644    0.00083763
     atom    8 type  2   force =    -0.00012605   -0.00006231    0.00055539
     atom    9 type  2   force =    -0.00003406   -0.00005892    0.00012673
     atom   10 type  1   force =     0.00005283   -0.00033700    0.00077495
     atom   11 type  2   force =    -0.00002489   -0.00020257    0.00052065
     atom   12 type  2   force =     0.00005134   -0.00011780    0.00014150
     atom   13 type  1   force =    -0.00033862    0.00037643    0.00054257
     atom   14 type  2   force =     0.00006317   -0.00001447    0.00038616
     atom   15 type  2   force =    -0.00001123    0.00003514    0.00011627
     atom   16 type  1   force =    -0.00010066    0.00022338    0.00069663
     atom   17 type  2   force =    -0.00004749    0.00027860    0.00034246
     atom   18 type  2   force =    -0.00005173    0.00009895    0.00016114
     atom   19 type  1   force =     0.00005497   -0.00040794    0.00083690
     atom   20 type  2   force =    -0.00002560   -0.00004519    0.00033067
     atom   21 type  1   force =     0.00021450   -0.00041818    0.00063126
     atom   22 type  2   force =     0.00005256   -0.00021115    0.00045081
     atom   23 type  2   force =    -0.00004836   -0.00009470    0.00013114
     atom   24 type  1   force =     0.00018118    0.00060058    0.00053988
     atom   25 type  2   force =     0.00006789    0.00008690    0.00038526
     atom   26 type  2   force =    -0.00002443    0.00007393    0.00005946
     atom   27 type  1   force =     0.00016745    0.00003594    0.00061055
     atom   28 type  2   force =     0.00002043    0.00020617    0.00042256
     atom   29 type  2   force =    -0.00000754    0.00006238    0.00015885
     atom   30 type  1   force =     0.00004952   -0.00039878    0.00076475
     atom   31 type  2   force =     0.00012357   -0.00011944    0.00048486
     atom   32 type  2   force =     0.00003753   -0.00006669    0.00016425
     atom   33 type  1   force =    -0.00018722   -0.00014940    0.00060960
     atom   34 type  2   force =    -0.00003503   -0.00023395    0.00058649
     atom   35 type  2   force =    -0.00001868   -0.00005887    0.00005665
     atom   36 type  3   force =     0.00000192   -0.00001246    0.00011274

     Total force =     0.083683     Total SCF correction =     0.003268
     Energy error            =      1.2E-02 Ry
     Gradient error          =      4.5E-02 Ry/Bohr

     number of scf cycles    =   2
     number of bfgs steps    =   1

     energy             old  =   -2205.4872219398 Ry
     energy             new  =   -2205.4993924729 Ry

     CASE: energy            _new < energy            _old

     new trust radius        =       0.0629365126 bohr
     new conv_thr            =       0.0000000446 Ry


ATOMIC_POSITIONS (angstrom)
Mo            6.5850985993        1.7625633228        2.8269081004
S             8.1623115008        0.8282626652        4.4337348192
S             8.1787973920        0.8218088201        1.2704691758
Mo            8.0987012062        4.4979844131        2.7128669992
S             6.4976542308        3.7150995450        4.3380466401
S             6.5576921409        3.5213427274        1.1227681818
Mo            6.4946677768        7.2058012801        2.6725951198
S             8.1042622745        6.3512673846        4.2845538314
S             8.0952044553        6.3123070424        1.0955607257
Mo            8.1531311413        9.9116391661        2.8215058157
S             6.4987092594        8.9424068491        4.3696153598
S             6.6168292944        9.0493981895        1.1453024929
Mo            3.4280606903        1.7514760084        2.7700599594
S             4.9835781222        0.8175039130        4.3636734048
S             5.0446463901        0.8495489186        1.2178702866
Mo            4.9778027798        4.5234908790        2.6364289804
S             3.4350269635        3.6727283150        4.2815329128
S             3.4340039066        3.5410724544        1.0731818125
Mo            3.4622249493        7.2023992875        2.6307361996
S             4.9873098810        6.3226500185        1.0368741661
Mo            5.0050077576        9.9089365976        2.7452601237
S             3.4700161167        8.9419602504        4.3193660510
S             3.4070352482        9.0658834247        1.1057436442
Mo            0.2879338626        1.7426675962        2.8293572957
S             1.8673137750        0.8134863061        4.4036868306
S             1.8493394844        0.8535158974        1.2035108505
Mo            1.8598035430        4.4969540850        2.6673630149
S             0.2730919308        3.6497356795        4.3316474077
S             0.2341736843        3.5272835892        1.1692315277
Mo            0.2728196132        7.2221803264        2.6721756940
S             1.9017827377        6.3125286349        4.2410651487
S             1.8534996260        6.3179483292        1.0526704754
Mo            1.8593986513        9.9375477951        2.7639903117
S             0.2940027899        9.0266885335        4.4168817051
S             0.2671976737        9.0535865355        1.1635659775
H            -0.0257824369        7.2952249633        5.4649604947



     Writing config-only to output data dir ./MoS2-V-O.save/
     NEW-OLD atomic charge density approx. for the potential

     negative rho (up, down):  1.443E-04 0.000E+00

     total cpu time spent up to now is      163.2 secs

     Self-consistent Calculation

     iteration #  1     ecut=    80.00 Ry     beta= 0.70
     Davidson diagonalization with overlap
     ethr =  1.00E-06,  avg # of iterations =  8.0

     negative rho (up, down):  9.859E-05 0.000E+00

     total cpu time spent up to now is      175.5 secs

     total energy              =   -2205.50773930 Ry
     estimated scf accuracy    <       0.00068788 Ry

     iteration #  2     ecut=    80.00 Ry     beta= 0.70
     Davidson diagonalization with overlap
     ethr =  2.24E-07,  avg # of iterations =  2.0

     negative rho (up, down):  8.023E-05 0.000E+00

     total cpu time spent up to now is      193.3 secs

     total energy              =   -2205.50777283 Ry
     estimated scf accuracy    <       0.00013297 Ry

     iteration #  3     ecut=    80.00 Ry     beta= 0.70
     Davidson diagonalization with overlap
     ethr =  4.33E-08,  avg # of iterations =  5.0

     negative rho (up, down):  7.131E-05 0.000E+00

     total cpu time spent up to now is      208.6 secs

     total energy              =   -2205.50779211 Ry
     estimated scf accuracy    <       0.00001877 Ry

     iteration #  4     ecut=    80.00 Ry     beta= 0.70
     Davidson diagonalization with overlap
     ethr =  6.12E-09,  avg # of iterations =  5.0

     negative rho (up, down):  7.112E-05 0.000E+00

     total cpu time spent up to now is      224.2 secs

     total energy              =   -2205.50779885 Ry
     estimated scf accuracy    <       0.00000239 Ry

     iteration #  5     ecut=    80.00 Ry     beta= 0.70
     Davidson diagonalization with overlap
     ethr =  7.77E-10,  avg # of iterations =  4.0

     negative rho (up, down):  7.369E-05 0.000E+00

     total cpu time spent up to now is      237.4 secs

     total energy              =   -2205.50779912 Ry
     estimated scf accuracy    <       0.00000074 Ry

     iteration #  6     ecut=    80.00 Ry     beta= 0.70
     Davidson diagonalization with overlap
     ethr =  2.41E-10,  avg # of iterations =  4.0

     negative rho (up, down):  7.906E-05 0.000E+00

     total cpu time spent up to now is      249.5 secs

     total energy              =   -2205.50779920 Ry
     estimated scf accuracy    <       0.00000025 Ry

     iteration #  7     ecut=    80.00 Ry     beta= 0.70
     Davidson diagonalization with overlap
     ethr =  8.08E-11,  avg # of iterations =  5.0

     negative rho (up, down):  9.700E-05 0.000E+00

     total cpu time spent up to now is      264.1 secs

     total energy              =   -2205.50779910 Ry
     estimated scf accuracy    <       0.00000012 Ry

     iteration #  8     ecut=    80.00 Ry     beta= 0.70
     Davidson diagonalization with overlap
     ethr =  3.79E-11,  avg # of iterations =  5.0

     negative rho (up, down):  1.377E-04 0.000E+00

     total cpu time spent up to now is      266.4 secs

     End of self-consistent calculation

          k = 0.0000 0.0000 0.0000 (105382 PWs)   bands (ev):

   -62.9065 -62.8999 -62.8898 -62.8683 -62.8475 -62.8426 -62.8367 -62.8299
   -62.8257 -62.8029 -62.7693 -62.7593 -37.2548 -37.1840 -37.1643 -37.1572
   -37.1503 -37.1272 -37.1067 -37.0942 -37.0877 -37.0831 -37.0798 -37.0623
   -37.0563 -37.0555 -37.0358 -37.0334 -37.0279 -37.0204 -37.0132 -37.0064
   -37.0031 -36.9847 -36.9683 -36.9557 -36.9363 -36.9336 -36.9287 -36.9259
   -36.9066 -36.8959 -36.8863 -36.8643 -36.8545 -36.8230 -36.7692 -36.7414
   -16.0108 -15.2298 -15.1893 -14.9900 -14.9421 -14.8527 -14.5494 -14.5091
   -14.4822 -14.4664 -14.4254 -14.3533 -14.3453 -14.3040 -14.1683 -14.1595
   -14.1380 -14.1311 -14.0529 -13.9221 -13.8743 -13.8547 -13.8284  -7.8389
    -7.6162  -7.3976  -7.3301  -7.2646  -7.2337  -7.2270  -7.1505  -7.0746
    -6.8563  -6.8031  -6.7500  -6.6797  -6.6381  -6.5240  -6.4434  -6.4173
    -6.2884  -6.2533  -6.0457  -5.9482  -5.9286  -5.9159  -5.8296  -5.8235
    -5.7862  -5.7270  -5.6993  -5.6768  -5.6532  -5.5939  -5.5600  -5.4857
    -5.4352  -5.3635  -5.2262  -5.1348  -5.0560  -5.0310  -5.0144  -4.9817
    -4.9490  -4.8711  -4.6536  -4.5685  -4.3508  -4.3191  -4.2880  -4.2644
    -4.2429  -4.0775  -4.0565  -3.8775  -3.8412  -3.8017  -3.7392  -3.7156
    -3.6880  -3.5736  -3.5514  -3.5340  -3.5049  -3.4968  -3.4624  -3.3990
    -3.3828  -3.2311  -3.1548  -2.9104  -2.9052  -2.8130  -2.7982  -2.7725
    -2.7199  -2.6878  -2.6712  -2.6388  -2.5925  -2.3091  -2.0366  -2.0095
    -2.0036  -1.1779  -0.7885  -0.7263  -0.1845  -0.1804  -0.0931  -0.0683
     0.0546   0.0915   0.2146   0.2286   0.2542   0.2894   0.3560   0.3983
     0.4448   0.5174   0.5368   0.5460   0.5955   0.6485   0.6746   0.7193
     0.7652   0.7866   0.8518   0.8551   0.9376   0.9650   1.0019   1.0926
     1.4101

     the Fermi energy is    -1.1779 ev

!    total energy              =   -2205.50779898 Ry
     estimated scf accuracy    <       0.00000002 Ry
     smearing contrib. (-TS)   =      -0.00564355 Ry
     internal energy E=F+TS    =   -2205.50215542 Ry

     The total energy is F=E-TS. E is the sum of the following terms:
     one-electron contribution =  -18041.95301794 Ry
     hartree contribution      =    9007.53703755 Ry
     xc contribution           =    -385.17030962 Ry
     ewald contribution        =    7214.08413459 Ry

     convergence has been achieved in   8 iterations

     negative rho (up, down):  1.377E-04 0.000E+00

     Forces acting on atoms (cartesian axes, Ry/au):

     atom    1 type  1   force =    -0.00350940   -0.00317483   -0.00407737
     atom    2 type  2   force =    -0.00347827    0.00578428   -0.00223672
     atom    3 type  2   force =    -0.00860058    0.00452074   -0.01092284
     atom    4 type  1   force =     0.00421945    0.00349333    0.00315607
     atom    5 type  2   force =     0.00066803   -0.00469401   -0.00617715
     atom    6 type  2   force =     0.00194543    0.00335700    0.00324099
     atom    7 type  1   force =     0.00579661   -0.00507531    0.00649918
     atom    8 type  2   force =     0.01805312    0.00391236    0.01936245
     atom    9 type  2   force =     0.00667447    0.00355781    0.00261056
     atom   10 type  1   force =     0.00079628    0.00430773    0.00173710
     atom   11 type  2   force =     0.00191153    0.00037464   -0.01009078
     atom   12 type  2   force =    -0.00361822   -0.00095972    0.00157350
     atom   13 type  1   force =     0.00266768    0.00150017   -0.00009205
     atom   14 type  2   force =     0.00338268    0.00008716    0.00591054
     atom   15 type  2   force =    -0.00586209    0.00104456   -0.00496860
     atom   16 type  1   force =     0.00035494    0.00345961    0.00142500
     atom   17 type  2   force =     0.00416270    0.00130135    0.00212530
     atom   18 type  2   force =    -0.00153965   -0.00159869    0.00758528
     atom   19 type  1   force =     0.00310300   -0.00622405    0.00416669
     atom   20 type  2   force =     0.00400107   -0.00263491   -0.00282115
     atom   21 type  1   force =    -0.00236910    0.00216522    0.00113144
     atom   22 type  2   force =     0.00012491   -0.00199746   -0.00332062
     atom   23 type  2   force =     0.00091576   -0.00173107    0.00337464
     atom   24 type  1   force =    -0.00247309   -0.00145470   -0.00302731
     atom   25 type  2   force =     0.00655121    0.00954666   -0.00322149
     atom   26 type  2   force =    -0.00328734   -0.00106245   -0.00434776
     atom   27 type  1   force =    -0.00093446    0.00013839    0.00511822
     atom   28 type  2   force =    -0.00055485   -0.00455630   -0.00518918
     atom   29 type  2   force =     0.00191576    0.00180105   -0.00319506
     atom   30 type  1   force =     0.00112971   -0.00354601    0.00201330
     atom   31 type  2   force =    -0.00109355    0.00035492    0.00462669
     atom   32 type  2   force =    -0.00139592    0.00257294    0.00176052
     atom   33 type  1   force =     0.00019170   -0.00017748    0.00503882
     atom   34 type  2   force =    -0.00205925   -0.03238272   -0.00667944
     atom   35 type  2   force =    -0.00362659    0.00976766    0.00056657
     atom   36 type  3   force =    -0.02416369    0.00822215   -0.01265535
     The non-local contrib.  to forces
     atom    1 type  1   force =     0.00125292    0.02715698   -0.01326652
     atom    2 type  2   force =    -0.00194321   -0.00522618   -0.26834886
     atom    3 type  2   force =    -0.00974651   -0.00786901    0.26298256
     atom    4 type  1   force =     0.00362917    0.00800310   -0.00409258
     atom    5 type  2   force =     0.00443194   -0.03424059   -0.25334160
     atom    6 type  2   force =    -0.00352117    0.00557142    0.26760599
     atom    7 type  1   force =    -0.01282556   -0.00352680   -0.02275777
     atom    8 type  2   force =     0.07357968    0.06452945   -0.14969061
     atom    9 type  2   force =     0.00285035   -0.01050268    0.27529722
     atom   10 type  1   force =     0.00593139    0.00032831   -0.00268474
     atom   11 type  2   force =     0.01089545    0.00403223   -0.26136012
     atom   12 type  2   force =    -0.00952467   -0.02074407    0.26080339
     atom   13 type  1   force =     0.00185517    0.02185415   -0.00596571
     atom   14 type  2   force =     0.00755211   -0.01141630   -0.26446256
     atom   15 type  2   force =    -0.00811977   -0.00751368    0.26099189
     atom   16 type  1   force =     0.00175309    0.02991207   -0.03018579
     atom   17 type  2   force =     0.00092982   -0.02734773   -0.24965731
     atom   18 type  2   force =    -0.00191183    0.00035594    0.27061746
     atom   19 type  1   force =     0.01671854    0.00069500   -0.01783669
     atom   20 type  2   force =     0.00069198   -0.01715670    0.26333722
     atom   21 type  1   force =     0.00018539    0.03025536    0.00850025
     atom   22 type  2   force =    -0.00374095    0.00080361   -0.25540198
     atom   23 type  2   force =     0.00853865   -0.01634477    0.26269127
     atom   24 type  1   force =     0.00219643    0.01630391   -0.00954479
     atom   25 type  2   force =     0.00454000    0.00062883   -0.26456760
     atom   26 type  2   force =     0.00337855   -0.01316711    0.26405267
     atom   27 type  1   force =    -0.00331066    0.00749989    0.00572734
     atom   28 type  2   force =    -0.00415462   -0.02600178   -0.27630655
     atom   29 type  2   force =     0.00335048    0.00353980    0.26414864
     atom   30 type  1   force =     0.00184518    0.01718888    0.01720032
     atom   31 type  2   force =    -0.00360958    0.00460484   -0.24041267
     atom   32 type  2   force =     0.00435495   -0.01367409    0.27117801
     atom   33 type  1   force =    -0.00481192    0.00457730   -0.00010600
     atom   34 type  2   force =    -0.01434268   -0.09404208   -0.19778615
     atom   35 type  2   force =     0.00183560   -0.01067495    0.26360609
     atom   36 type  3   force =    -0.00414683    0.00175602   -0.00762355
     The ionic contribution  to forces
     atom    1 type  1   force =    -0.05607594    0.83333789    5.78632756
     atom    2 type  2   force =    -0.33225511    0.24794936   39.40493269
     atom    3 type  2   force =    -0.12879732    0.05416461  -36.33543040
     atom    4 type  1   force =    -0.14833853    0.35021631    0.54857850
     atom    5 type  2   force =    -0.96514379    1.40162555   38.53739133
     atom    6 type  2   force =     0.22182469   -0.59764147  -37.85101765
     atom    7 type  1   force =    -2.74752682   -2.60195405    2.65097598
     atom    8 type  2   force =    -1.49316587   -0.39056958   37.26144895
     atom    9 type  2   force =     0.15835461   -0.12928104  -38.02394392
     atom   10 type  1   force =    -0.71530523   -0.15166835    5.07401388
     atom   11 type  2   force =    -0.65423557   -1.48418395   38.90920315
     atom   12 type  2   force =     0.25357606    0.58997142  -37.79168090
     atom   13 type  1   force =     0.38771024    0.91402976    2.73565387
     atom   14 type  2   force =    -0.07322582    0.05934162   38.70630477
     atom   15 type  2   force =     0.18638936    0.00846847  -36.91339366
     atom   16 type  1   force =     0.16493019    3.49276674    0.66641129
     atom   17 type  2   force =     0.82818838    1.35920329   37.96453749
     atom   18 type  2   force =    -0.11839830   -0.58349504  -38.42482273
     atom   19 type  1   force =     2.80190299   -2.23620013    0.64719595
     atom   20 type  2   force =     0.23461677   -0.16643332  -38.61535858
     atom   21 type  1   force =     0.07053711   -0.05767587    1.35524168
     atom   22 type  2   force =     0.51450918   -1.63990961   38.37593846
     atom   23 type  2   force =     0.00318587    0.56796399  -38.24199021
     atom   24 type  1   force =    -0.18717322    0.91804555    5.26809906
     atom   25 type  2   force =     0.44612022    0.20343085   39.19930450
[...]
     atom   27 type  1   force =    -0.00333326    0.00557260    0.00552954
     atom   28 type  2   force =     0.00816244   -0.01784240   -0.26626885
     atom   29 type  2   force =    -0.00774579   -0.00928074    0.27130478
     atom   30 type  1   force =    -0.00091892    0.02003323    0.00494333
     atom   31 type  2   force =    -0.01229198    0.00363094   -0.25836551
     atom   32 type  2   force =     0.00847876   -0.01725808    0.26447030
     atom   33 type  1   force =     0.00029242    0.00884454    0.00130260
     atom   34 type  2   force =    -0.00057156   -0.00985362   -0.25264579
     atom   35 type  2   force =     0.00270689   -0.00999056    0.26872300
     atom   36 type  3   force =    -0.00511464   -0.03663090   -0.04161039
     The ionic contribution  to forces
     atom    1 type  1   force =    -0.16501577    0.72703051    1.90476369
     atom    2 type  2   force =    -0.15495614    0.36563131   38.67441087
     atom    3 type  2   force =     0.04265000   -0.15165015  -37.79319521
     atom    4 type  1   force =     0.01036092    1.66807713   -1.16923423
     atom    5 type  2   force =    -0.68559766    1.25892552   38.14606223
     atom    6 type  2   force =    -0.04997002   -0.15096857  -38.43314014
     atom    7 type  1   force =    -2.82931327   -3.13534861    4.43635814
     atom    8 type  2   force =    -1.29384864   -2.13488110   37.81921504
     atom    9 type  2   force =     0.28836577    0.17977121  -37.27579027
     atom   10 type  1   force =    -0.36063188   -0.19750691    2.12647018
     atom   11 type  2   force =    -0.77524529   -0.87789729   38.53026770
     atom   12 type  2   force =     0.12894996    0.09718353  -37.87802581
     atom   13 type  1   force =     0.04761288    0.86743805    1.85552871
     atom   14 type  2   force =    -0.03170658    0.15939589   38.54737520
     atom   15 type  2   force =    -0.06761235   -0.18997306  -37.66573734
     atom   16 type  1   force =    -0.03485747    3.74991475    1.29159111
     atom   17 type  2   force =     0.81788952    1.14327898   38.19907880
     atom   18 type  2   force =    -0.25097444   -0.08816338  -38.04109189
     atom   19 type  1   force =     2.71277814   -2.12802676    4.28671267
     atom   20 type  2   force =     0.03516879    0.06346044  -38.06394597
     atom   21 type  1   force =    -0.27558430   -0.33121184    1.13053534
     atom   22 type  2   force =     0.39779081   -1.29808809   38.62897459
     atom   23 type  2   force =    -0.19616150    0.02985213  -37.68642692
     atom   24 type  1   force =     0.15631538    0.62683078    1.12211580
     atom   25 type  2   force =     0.16708658    0.23724391   38.69034841
     atom   26 type  2   force =     0.00376853   -0.14457041  -37.74629826
     atom   27 type  1   force =     0.13634833    0.41054259    0.67805751
     atom   28 type  2   force =    -0.15483154    0.53825191   37.75087971
     atom   29 type  2   force =     0.22580522    0.11012754  -37.95310422
     atom   30 type  1   force =     0.09698348   -1.51434779    3.03082630
     atom   31 type  2   force =     1.26748127   -0.13066636   38.35634629
     atom   32 type  2   force =    -0.27619899    0.13417347  -37.49199310
     atom   33 type  1   force =     0.64100781   -0.46841702    2.51590334
     atom   34 type  2   force =     0.37903478    0.00019154   38.65606551
     atom   35 type  2   force =     0.07220842   -0.05355663  -37.50740886
     atom   36 type  3   force =    -0.02510073    0.62795280    8.32750508
     The local contribution  to forces
     atom    1 type  1   force =     0.16681288   -0.75098812   -1.89533424
     atom    2 type  2   force =     0.15537424   -0.35436026  -38.43110673
     atom    3 type  2   force =    -0.04217313    0.16142666   37.54844831
     atom    4 type  1   force =    -0.01102755   -1.67100154    1.18215397
     atom    5 type  2   force =     0.69235793   -1.22943137  -37.92145646
     atom    6 type  2   force =     0.04780680    0.15413337   38.18811189
     atom    7 type  1   force =     2.84579861    3.14263740   -4.41533967
     atom    8 type  2   force =     1.25110386    1.89673199  -37.84511874
     atom    9 type  2   force =    -0.28324474   -0.16672350   37.02224188
     atom   10 type  1   force =     0.35711364    0.19093664   -2.13286681
     atom   11 type  2   force =     0.76784979    0.87811136  -38.30548733
     atom   12 type  2   force =    -0.12320380   -0.08664156   37.63343663
     atom   13 type  1   force =    -0.05054806   -0.89202160   -1.85220473
     atom   14 type  2   force =     0.03162908   -0.14679347  -38.30315971
     atom   15 type  2   force =     0.06789540    0.19807242   37.42518474
     atom   16 type  1   force =     0.02763189   -3.78346193   -1.26378490
     atom   17 type  2   force =    -0.81281323   -1.12272499  -37.96702361
     atom   18 type  2   force =     0.25158420    0.09274313   37.79831835
     atom   19 type  1   force =    -2.73919317    2.12592143   -4.25979091
     atom   20 type  2   force =    -0.03219330   -0.04755170   37.82205916
     atom   21 type  1   force =     0.27591138    0.30232998   -1.13309815
     atom   22 type  2   force =    -0.39254649    1.30456882  -38.39249717
     atom   23 type  2   force =     0.18746893   -0.01916683   37.44263497
     atom   24 type  1   force =    -0.15665789   -0.64356378   -1.12034268
     atom   25 type  2   force =    -0.16903975   -0.22484088  -38.44876890
     atom   26 type  2   force =    -0.00552365    0.15419646   37.50217959
     atom   27 type  1   force =    -0.13286835   -0.41599929   -0.68372532
     atom   28 type  2   force =     0.14724789   -0.52093868  -37.50476435
     atom   29 type  2   force =    -0.21847812   -0.10183872   37.70390477
     atom   30 type  1   force =    -0.09543567    1.49463010   -3.03611618
     atom   31 type  2   force =    -1.25490978    0.12609259  -38.11821960
     atom   32 type  2   force =     0.26810113   -0.11756819   37.24772659
     atom   33 type  1   force =    -0.64057728    0.46026337   -2.51747432
     atom   34 type  2   force =    -0.37848105    0.00923137  -38.42361627
     atom   35 type  2   force =    -0.07507775    0.06430325   37.26112063
     atom   36 type  3   force =     0.02972578   -0.59363535   -8.28549411
     The core correction contribution to forces
     atom    1 type  1   force =     0.00000000    0.00000000    0.00000000
     atom    2 type  2   force =     0.00003543    0.00070334    0.02070331
     atom    3 type  2   force =     0.00004282    0.00033494   -0.02086368
     atom    4 type  1   force =     0.00000000    0.00000000    0.00000000
     atom    5 type  2   force =     0.00020763    0.00133648    0.01998013
     atom    6 type  2   force =    -0.00027529   -0.00036703   -0.02093665
     atom    7 type  1   force =     0.00000000    0.00000000    0.00000000
     atom    8 type  2   force =    -0.00267301   -0.01650086    0.00101578
     atom    9 type  2   force =     0.00038628    0.00101219   -0.02129864
     atom   10 type  1   force =     0.00000000    0.00000000    0.00000000
     atom   11 type  2   force =    -0.00034892    0.00013429    0.01975608
     atom   12 type  2   force =     0.00051401    0.00065625   -0.02083447
     atom   13 type  1   force =     0.00000000    0.00000000    0.00000000
     atom   14 type  2   force =    -0.00002788    0.00042591    0.02075867
     atom   15 type  2   force =     0.00000380    0.00033086   -0.02059101
     atom   16 type  1   force =     0.00000000    0.00000000    0.00000000
     atom   17 type  2   force =     0.00049163    0.00091109    0.02022068
     atom   18 type  2   force =    -0.00017191   -0.00013816   -0.02070919
     atom   19 type  1   force =     0.00000000    0.00000000    0.00000000
     atom   20 type  2   force =     0.00026382    0.00086689   -0.02110516
     atom   21 type  1   force =     0.00000000    0.00000000    0.00000000
     atom   22 type  2   force =     0.00012775    0.00021576    0.02044949
     atom   23 type  2   force =    -0.00062333    0.00055649   -0.02083033
     atom   24 type  1   force =     0.00000000    0.00000000    0.00000000
     atom   25 type  2   force =    -0.00010948    0.00068594    0.02060903
     atom   26 type  2   force =    -0.00003268    0.00030218   -0.02082826
     atom   27 type  1   force =     0.00000000    0.00000000    0.00000000
     atom   28 type  2   force =    -0.00053580    0.00099983    0.02078310
     atom   29 type  2   force =     0.00054163    0.00029576   -0.02094241
     atom   30 type  1   force =     0.00000000    0.00000000    0.00000000
     atom   31 type  2   force =     0.00066857   -0.00001304    0.02039685
     atom   32 type  2   force =    -0.00068829    0.00102175   -0.02074716
     atom   33 type  1   force =     0.00000000    0.00000000    0.00000000
     atom   34 type  2   force =     0.00016840    0.00078996    0.02005926
     atom   35 type  2   force =    -0.00012795    0.00052151   -0.02103468
     atom   36 type  3   force =     0.00000000    0.00000000    0.00000000
     The Hubbard contrib.    to forces
     atom    1 type  1   force =     0.00000000    0.00000000    0.00000000
     atom    2 type  2   force =     0.00000000    0.00000000    0.00000000
     atom    3 type  2   force =     0.00000000    0.00000000    0.00000000
     atom    4 type  1   force =     0.00000000    0.00000000    0.00000000
     atom    5 type  2   force =     0.00000000    0.00000000    0.00000000
     atom    6 type  2   force =     0.00000000    0.00000000    0.00000000
     atom    7 type  1   force =     0.00000000    0.00000000    0.00000000
     atom    8 type  2   force =     0.00000000    0.00000000    0.00000000
     atom    9 type  2   force =     0.00000000    0.00000000    0.00000000
     atom   10 type  1   force =     0.00000000    0.00000000    0.00000000
     atom   11 type  2   force =     0.00000000    0.00000000    0.00000000
     atom   12 type  2   force =     0.00000000    0.00000000    0.00000000
     atom   13 type  1   force =     0.00000000    0.00000000    0.00000000
     atom   14 type  2   force =     0.00000000    0.00000000    0.00000000
     atom   15 type  2   force =     0.00000000    0.00000000    0.00000000
     atom   16 type  1   force =     0.00000000    0.00000000    0.00000000
     atom   17 type  2   force =     0.00000000    0.00000000    0.00000000
     atom   18 type  2   force =     0.00000000    0.00000000    0.00000000
     atom   19 type  1   force =     0.00000000    0.00000000    0.00000000
     atom   20 type  2   force =     0.00000000    0.00000000    0.00000000
     atom   21 type  1   force =     0.00000000    0.00000000    0.00000000
     atom   22 type  2   force =     0.00000000    0.00000000    0.00000000
     atom   23 type  2   force =     0.00000000    0.00000000    0.00000000
     atom   24 type  1   force =     0.00000000    0.00000000    0.00000000
     atom   25 type  2   force =     0.00000000    0.00000000    0.00000000
     atom   26 type  2   force =     0.00000000    0.00000000    0.00000000
     atom   27 type  1   force =     0.00000000    0.00000000    0.00000000
     atom   28 type  2   force =     0.00000000    0.00000000    0.00000000
     atom   29 type  2   force =     0.00000000    0.00000000    0.00000000
     atom   30 type  1   force =     0.00000000    0.00000000    0.00000000
     atom   31 type  2   force =     0.00000000    0.00000000    0.00000000
     atom   32 type  2   force =     0.00000000    0.00000000    0.00000000
     atom   33 type  1   force =     0.00000000    0.00000000    0.00000000
     atom   34 type  2   force =     0.00000000    0.00000000    0.00000000
     atom   35 type  2   force =     0.00000000    0.00000000    0.00000000
     atom   36 type  3   force =     0.00000000    0.00000000    0.00000000
     The SCF correction term to forces
     atom    1 type  1   force =     0.00000042   -0.00002885    0.00001563
     atom    2 type  2   force =    -0.00001169   -0.00000409   -0.00000153
     atom    3 type  2   force =    -0.00000040   -0.00001007    0.00000172
     atom    4 type  1   force =    -0.00000959   -0.00000186    0.00002239
     atom    5 type  2   force =    -0.00000951   -0.00000121    0.00002314
     atom    6 type  2   force =    -0.00000496   -0.00001037   -0.00000082
     atom    7 type  1   force =     0.00000324    0.00001718    0.00004103
     atom    8 type  2   force =    -0.00000776    0.00001037    0.00003816
     atom    9 type  2   force =     0.00000103    0.00001675   -0.00000726
     atom   10 type  1   force =    -0.00001537    0.00000213   -0.00000744
     atom   11 type  2   force =     0.00000292   -0.00000375    0.00001119
     atom   12 type  2   force =     0.00000875    0.00001108    0.00000061
     atom   13 type  1   force =     0.00001604   -0.00000960    0.00000394
     atom   14 type  2   force =     0.00000635   -0.00000182    0.00000677
     atom   15 type  2   force =     0.00000285   -0.00000464    0.00000341
     atom   16 type  1   force =    -0.00000478    0.00000432    0.00003592
     atom   17 type  2   force =     0.00001046    0.00000310    0.00001252
     atom   18 type  2   force =     0.00000002   -0.00000755    0.00000239
     atom   19 type  1   force =     0.00001314    0.00000649    0.00003551
     atom   20 type  2   force =     0.00000051    0.00000360    0.00000615
     atom   21 type  1   force =     0.00001174    0.00000498    0.00001553
     atom   22 type  2   force =     0.00000626   -0.00000310    0.00001541
     atom   23 type  2   force =    -0.00000076    0.00001037   -0.00000179
     atom   24 type  1   force =    -0.00001295   -0.00002440   -0.00001310
     atom   25 type  2   force =     0.00000382   -0.00000392    0.00000436
     atom   26 type  2   force =    -0.00000399   -0.00000432   -0.00001077
     atom   27 type  1   force =     0.00001010   -0.00000026    0.00001891
     atom   28 type  2   force =     0.00000083    0.00000332    0.00002164
     atom   29 type  2   force =     0.00000543   -0.00001253   -0.00001243
     atom   30 type  1   force =    -0.00000515    0.00002925    0.00001417
     atom   31 type  2   force =     0.00000167    0.00000356    0.00002169
     atom   32 type  2   force =    -0.00000604    0.00000816   -0.00000130
     atom   33 type  1   force =    -0.00000774   -0.00000456   -0.00000565
     atom   34 type  2   force =    -0.00000549   -0.00000890    0.00000654
     atom   35 type  2   force =    -0.00000641    0.00000736   -0.00000531
     atom   36 type  3   force =    -0.00000136   -0.00000212    0.00000117

     Total force =     0.006505     Total SCF correction =     0.000128
     Energy error            =      8.0E-05 Ry
     Gradient error          =      2.3E-03 Ry/Bohr

     bfgs converged in  26 scf cycles and  25 bfgs steps
     (criteria: energy <  1.0E-04 Ry, force <  1.0E-02 Ry/Bohr)

     End of BFGS Geometry Optimization

     Final energy             =   -2205.5915391675 Ry

     File ./MoS2-V-O.bfgs deleted, as requested
Begin final coordinates

ATOMIC_POSITIONS (angstrom)
Mo            6.5980779148        1.7449764822        2.7429995702
S             8.1785964282        0.8558626093        4.3516614207
S             8.1800421303        0.8301618686        1.1557281150
Mo            8.1394113630        4.4639312176        2.6650918899
S             6.5617693905        3.6509955939        4.2956048926
S             6.5903405336        3.5392190632        1.0878199072
Mo            6.5584130515        7.2116103558        2.7215318205
S             8.1103390482        6.4180316567        4.4552841643
S             8.1665716191        6.3294931337        1.1543949290
Mo            8.1818627626        9.9400755461        2.7668193783
S             6.5607966087        8.9936733077        4.3434158258
S             6.6251159239        9.0236663395        1.1426111238
Mo            3.4601220318        1.7546224608        2.7457103240
S             5.0244482703        0.8302722873        4.3381487797
S             5.0266633634        0.8293515366        1.1609539737
Mo            5.0337819037        4.5140942343        2.6507906828
S             3.4949061858        3.6560761570        4.3030002735
S             3.4585714475        3.5646103512        1.1068543484
Mo            3.5175706596        7.1659654173        2.7111376508
S             5.0502587893        6.3232542054        1.0840726745
Mo            5.0282153581        9.9119458454        2.7388256261
S             3.5065270388        8.9553189329        4.3442024560
S             3.4440024614        9.0061281549        1.1469204438
Mo            0.3082039834        1.7363687764        2.7413999056
S             1.8934614883        0.8556943015        4.3534187954
S             1.8914256245        0.8230860104        1.1574047017
Mo            1.8857750673        4.4931771906        2.7181363860
S             0.2770345229        3.5988236206        4.2906998890
S             0.2985259740        3.5544803628        1.1186345440
Mo            0.2985896318        7.2163067939        2.7761096732
S             1.9442009597        6.2909318657        4.3313285410
S             1.8865361870        6.3307985892        1.1474383638
Mo            1.8934840502        9.9305463366        2.7691929438
S             0.3123420840        9.0486402264        4.3683884617
S             0.3050690141        9.0247871522        1.1805175283
H            -1.2187058591        7.3499017600        5.4885115329
End final coordinates



     Writing all to output data dir ./MoS2-V-O.save/
 
     init_run     :      2.39s CPU      2.66s WALL (       1 calls)
     electrons    :   2366.63s CPU   2639.81s WALL (      26 calls)
     update_pot   :     36.54s CPU     38.76s WALL (      25 calls)
     forces       :     36.41s CPU     42.60s WALL (      26 calls)

     Called by init_run:
     wfcinit      :      0.39s CPU      0.44s WALL (       1 calls)
     potinit      :      1.32s CPU      1.45s WALL (       1 calls)
     hinit0       :      0.16s CPU      0.18s WALL (       1 calls)

     Called by electrons:
     c_bands      :    306.79s CPU    312.10s WALL (     218 calls)
     sum_band     :     64.12s CPU     85.70s WALL (     218 calls)
     v_of_rho     :    106.05s CPU    130.10s WALL (     237 calls)
     newd         :     31.83s CPU     51.08s WALL (     237 calls)
     mix_rho      :   1869.81s CPU   2073.68s WALL (     218 calls)

     Called by c_bands:
     init_us_2    :      4.63s CPU      5.04s WALL (     437 calls)
     init_us_2:cp :      4.63s CPU      5.03s WALL (     437 calls)
     regterg      :    290.68s CPU    295.55s WALL (     218 calls)

     Called by *egterg:
     rdiaghg      :     23.01s CPU     23.30s WALL (    1279 calls)
     h_psi        :    153.40s CPU    154.89s WALL (    1312 calls)
     s_psi        :     18.58s CPU     18.65s WALL (    1312 calls)
     g_psi        :      1.72s CPU      1.74s WALL (    1093 calls)

     Called by h_psi:
     h_psi:calbec :     22.46s CPU     22.56s WALL (    1312 calls)
     vloc_psi     :    108.51s CPU    109.76s WALL (    1312 calls)
     add_vuspsi   :     18.48s CPU     18.61s WALL (    1312 calls)

     General routines
     calbec       :     31.61s CPU     31.73s WALL (    1634 calls)
     fft          :     68.81s CPU     80.35s WALL (   15971 calls)
     ffts         :    843.03s CPU   1039.88s WALL (  456960 calls)
     fftw         :     92.36s CPU     93.29s WALL (  135936 calls)
     interpolate  :      1.71s CPU      2.03s WALL (     237 calls)
 
     Parallel routines
 
     PWSCF        :  40m46.65s CPU  45m31.86s WALL

 
   This run was terminated on:   6:11:49   4Nov2023            

=------------------------------------------------------------------------------=
   JOB DONE.
=------------------------------------------------------------------------------=
