
     Program PWSCF v.7.2 starts on  4Nov2023 at  6:17:38 

     This program is part of the open-source Quantum ESPRESSO suite
     for quantum simulation of materials; please cite
         "P. Giannozzi et al., J. Phys.:Condens. Matter 21 395502 (2009);
         "P. Giannozzi et al., J. Phys.:Condens. Matter 29 465901 (2017);
         "P. Giannozzi et al., J. Chem. Phys. 152 154105 (2020);
          URL http://www.quantum-espresso.org", 
     in publications or presentations arising from this work. More details at
     http://www.quantum-espresso.org/quote

     Parallel version (MPI & OpenMP), running on      48 processor cores
     Number of MPI processes:                48
     Threads/MPI process:                     1

     MPI processes distributed on     1 nodes
     88117 MiB available memory on the printing compute node when the environment starts
 
     Waiting for input...
     Reading input from standard input
Warning: card &CELL ignored
Warning: card CELL_DYNAMICS = 'BFGS', ignored
Warning: card CELL_DOFREE = '2DXY' ignored
Warning: card / ignored

     Current dimensions of program PWSCF are:
     Max number of different atomic species (ntypx) = 10
     Max number of k-points (npk) =  40000
     Max angular momentum in pseudopotentials (lmaxx) =  4

     IMPORTANT: XC functional enforced from input :
     Exchange-correlation= RVV10
                           (   1   4  13   4  26   0   0)
     Any further DFT definition will be discarded
     Please, verify this is what you really want


     gamma-point specific algorithms are used
     signal trapping enabled: kill the code with -SIGUSR1 to stop cleanly the simulation 
 
     R & G space division:  proc/nbgrp/npool/nimage =      48
     Subspace diagonalization in iterative solution of the eigenvalue problem:
     one sub-group per band group will be used
     scalapack distributed-memory algorithm (size of sub-group:  2*  2 procs)

 
     Parallelization info
     --------------------
     sticks:   dense  smooth     PW     G-vecs:    dense   smooth      PW
     Min         243     194     47                49060    35090    4376
     Max         246     196     50                49086    35128    4410
     Sum       11735    9389   2349              2355467  1685513  210763
 
     Using Slab Decomposition
 


     bravais-lattice index     =            0
     lattice parameter (alat)  =      17.8707  a.u.
     unit-cell volume          =   17436.2743 (a.u.)^3
     number of atoms/cell      =           36
     number of atomic types    =            3
     number of electrons       =       307.00
     number of Kohn-Sham states=          185
     kinetic-energy cutoff     =      80.0000  Ry
     charge density cutoff     =     400.0000  Ry
     scf convergence threshold =      1.0E-06
     mixing beta               =       0.7000
     number of iterations used =            8  local-TF  mixing
     energy convergence thresh.=      1.0E-04
     force convergence thresh. =      1.0E-02
     Exchange-correlation= RVV10
                           (   1   4  13   4  26   0   0)
     nstep                     =          200


     celldm(1)=  17.870686  celldm(2)=   0.000000  celldm(3)=   0.000000
     celldm(4)=   0.000000  celldm(5)=   0.000000  celldm(6)=   0.000000

     crystal axes: (cart. coord. in units of alat)
               a(1) = (   1.000000   0.000000   0.000000 )  
               a(2) = (   0.000000   1.155671   0.000000 )  
               a(3) = (   0.000000   0.000000   2.643601 )  

     reciprocal axes: (cart. coord. in units 2 pi/alat)
               b(1) = (  1.000000  0.000000  0.000000 )  
               b(2) = (  0.000000  0.865298  0.000000 )  
               b(3) = (  0.000000  0.000000  0.378272 )  


     PseudoPot. # 1 for Mo read from file:
     ../pseudo/Mo_ONCV_PBE-1.0.oncvpsp.upf
     MD5 check sum: 1b5d28e075c9ccadda658a603575cd1f
     Pseudo is Norm-conserving, Zval = 14.0
     Generated using ONCVPSP code by D. R. Hamann
     Using radial grid of 1526 points,  6 beta functions with: 
                l(1) =   0
                l(2) =   0
                l(3) =   1
                l(4) =   1
                l(5) =   2
                l(6) =   2

     PseudoPot. # 2 for S  read from file:
     ../pseudo/s_pbe_v1.4.uspp.F.UPF
     MD5 check sum: 88d86576ff6df21479756cfb9bdac1df
     Pseudo is Ultrasoft + core correction, Zval =  6.0
     Generated by new atomic code, or converted to UPF format
     Using radial grid of  907 points,  6 beta functions with: 
                l(1) =   0
                l(2) =   0
                l(3) =   1
                l(4) =   1
                l(5) =   2
                l(6) =   2
     Q(r) pseudized with  8 coefficients,  rinner =    1.300   1.300   1.300
                                                       1.300   1.300

     PseudoPot. # 3 for H  read from file:
     ../pseudo/H_ONCV_PBE-1.0.oncvpsp.upf
     MD5 check sum: 1790becc920ee074925cf490c71280fe
     Pseudo is Norm-conserving, Zval =  1.0
     Generated using ONCVPSP code by D. R. Hamann
     Using radial grid of 1166 points,  2 beta functions with: 
                l(1) =   0
                l(2) =   0

     atomic species   valence    mass     pseudopotential
        Mo            14.00    95.94000     Mo( 1.00)
        S              6.00    32.06500     S ( 1.00)
        H              1.00     1.00794     H ( 1.00)

     No symmetry found



   Cartesian axes

     site n.     atom                  positions (alat units)
         1           Mo  tau(   1) = (   0.6952221   0.1890506   0.2985846  )
         2           S   tau(   2) = (   0.8646417   0.0856217   0.4689279  )
         3           S   tau(   3) = (   0.8663890   0.0857843   0.1351291  )
         4           Mo  tau(   4) = (   0.8560186   0.4753274   0.2873942  )
         5           S   tau(   5) = (   0.6873294   0.3936244   0.4596353  )
         6           S   tau(   6) = (   0.6929804   0.3713468   0.1185692  )
         7           Mo  tau(   7) = (   0.6862796   0.7633098   0.2825370  )
         8           S   tau(   8) = (   0.8545980   0.6708292   0.4486168  )
         9           S   tau(   9) = (   0.8545123   0.6666874   0.1146125  )
        10           Mo  tau(  10) = (   0.8629403   1.0471007   0.3006803  )
        11           S   tau(  11) = (   0.6868280   0.9456650   0.4634891  )
        12           S   tau(  12) = (   0.6998113   0.9568511   0.1205389  )
        13           Mo  tau(  13) = (   0.3618216   0.1847309   0.2935964  )
        14           S   tau(  14) = (   0.5260962   0.0863870   0.4600448  )
        15           S   tau(  15) = (   0.5348379   0.0894875   0.1297123  )
        16           Mo  tau(  16) = (   0.5265817   0.4772436   0.2784130  )
        17           S   tau(  17) = (   0.3624753   0.3882513   0.4525556  )
        18           S   tau(  18) = (   0.3635411   0.3752055   0.1119148  )
        19           Mo  tau(  19) = (   0.3652268   0.7630864   0.2781795  )
        20           S   tau(  20) = (   0.5269494   0.6690381   0.1096838  )
        21           Mo  tau(  21) = (   0.5300192   1.0470394   0.2900995  )
        22           S   tau(  22) = (   0.3670346   0.9457522   0.4574073  )
        23           S   tau(  23) = (   0.3604225   0.9585725   0.1159032  )
        24           Mo  tau(  24) = (   0.0313099   0.1847895   0.3013130  )
        25           S   tau(  25) = (   0.1956761   0.0838230   0.4650863  )
        26           S   tau(  26) = (   0.1967693   0.0903508   0.1278874  )
        27           Mo  tau(  27) = (   0.1967578   0.4753919   0.2813011  )
        28           S   tau(  28) = (   0.0287851   0.3864324   0.4586755  )
        29           S   tau(  29) = (   0.0244514   0.3729871   0.1239344  )
        30           Mo  tau(  30) = (   0.0286728   0.7631204   0.2856894  )
        31           S   tau(  31) = (   0.2011512   0.6675435   0.4465001  )
        32           S   tau(  32) = (   0.1969214   0.6672839   0.1104564  )
        33           Mo  tau(  33) = (   0.1950294   1.0511147   0.2932237  )
        34           S   tau(  34) = (   0.0312912   0.9612169   0.4667423  )
        35           S   tau(  35) = (   0.0292670   0.9563028   0.1216485  )
        36           H   tau(  36) = (   0.5555556   0.7704471   0.5656742  )

     number of k points=     1  Gaussian smearing, width (Ry)=  0.0100
                       cart. coord. in units 2pi/alat
        k(    1) = (   0.0000000   0.0000000   0.0000000), wk =   2.0000000

     Dense  grid:  1177734 G-vectors     FFT dimensions: ( 120, 135, 320)

     Smooth grid:   842757 G-vectors     FFT dimensions: ( 108, 120, 270)

     Estimated max dynamical RAM per process >     146.59 MB

     Estimated total dynamical RAM >       6.87 GB

     Initial potential from superposition of free atoms

     starting charge     306.9873, renormalised to     307.0000

     negative rho (up, down):  1.406E-04 0.000E+00


---------------------------------------------------------------------------------
Carrying out rVV10 run using the following parameters:
Nqs =      20    Nr_points =    1024   r_max =   100.000
b_value =  6.30000    beta =  0.00901
     q_mesh =  0.00010000  0.00030000  0.00058939  0.00100810
               0.00161396  0.00249058  0.00375900  0.00559430
               0.00824984  0.01209221  0.01765183  0.02569619
               0.03733578  0.05417739  0.07854596  0.11380545
               0.16482331  0.23864234  0.34545298  0.50000000

Gradients computed in Reciprocal space

---------------------------------------------------------------------------------


     Starting wfcs are  213 randomized atomic wfcs

     total cpu time spent up to now is        2.7 secs

     Self-consistent Calculation

     iteration #  1     ecut=    80.00 Ry     beta= 0.70
     Davidson diagonalization with overlap
     ethr =  1.00E-02,  avg # of iterations =  2.0

     Threshold (ethr) on eigenvalues was too large:
     Diagonalizing with lowered threshold

     Davidson diagonalization with overlap
     ethr =  3.39E-04,  avg # of iterations =  4.0

     negative rho (up, down):  1.840E-08 0.000E+00

     total cpu time spent up to now is       17.1 secs

     total energy              =   -2205.55435914 Ry
     estimated scf accuracy    <       1.34553527 Ry

     iteration #  2     ecut=    80.00 Ry     beta= 0.70
     Davidson diagonalization with overlap
     ethr =  4.38E-04,  avg # of iterations =  1.0

     total cpu time spent up to now is       19.4 secs

     total energy              =   -2205.43473053 Ry
     estimated scf accuracy    <       0.54237225 Ry

     iteration #  3     ecut=    80.00 Ry     beta= 0.70
     Davidson diagonalization with overlap
     ethr =  1.77E-04,  avg # of iterations =  2.0

     total cpu time spent up to now is       22.0 secs

     total energy              =   -2205.46731875 Ry
     estimated scf accuracy    <       0.25699833 Ry

     iteration #  4     ecut=    80.00 Ry     beta= 0.70
     Davidson diagonalization with overlap
     ethr =  8.37E-05,  avg # of iterations =  8.0

     total cpu time spent up to now is       24.5 secs

     total energy              =   -2205.49098355 Ry
     estimated scf accuracy    <       0.03074785 Ry

     iteration #  5     ecut=    80.00 Ry     beta= 0.70
     Davidson diagonalization with overlap
     ethr =  1.00E-05,  avg # of iterations = 16.0

     total cpu time spent up to now is       27.6 secs

     total energy              =   -2205.49272191 Ry
     estimated scf accuracy    <       0.01668416 Ry

     iteration #  6     ecut=    80.00 Ry     beta= 0.70
     Davidson diagonalization with overlap
     ethr =  5.43E-06,  avg # of iterations =  2.0

     total cpu time spent up to now is       29.8 secs

     total energy              =   -2205.49188338 Ry
     estimated scf accuracy    <       0.01342548 Ry

     iteration #  7     ecut=    80.00 Ry     beta= 0.70
     Davidson diagonalization with overlap
     ethr =  4.37E-06,  avg # of iterations =  1.0

     negative rho (up, down):  3.181E-03 0.000E+00

     total cpu time spent up to now is       34.2 secs

     total energy              =   -2205.48886333 Ry
     estimated scf accuracy    <       0.00861768 Ry

     iteration #  8     ecut=    80.00 Ry     beta= 0.70
     Davidson diagonalization with overlap
     ethr =  2.81E-06,  avg # of iterations =  4.0

     negative rho (up, down):  1.025E-02 0.000E+00

     total cpu time spent up to now is       39.8 secs

     total energy              =   -2205.48990133 Ry
     estimated scf accuracy    <       0.00491558 Ry

     iteration #  9     ecut=    80.00 Ry     beta= 0.70
     Davidson diagonalization with overlap
     ethr =  1.60E-06,  avg # of iterations =  1.0

     negative rho (up, down):  2.200E-02 0.000E+00

     total cpu time spent up to now is       44.4 secs

     total energy              =   -2205.48934656 Ry
     estimated scf accuracy    <       0.00262949 Ry

     iteration # 10     ecut=    80.00 Ry     beta= 0.70
     Davidson diagonalization with overlap
     ethr =  8.57E-07,  avg # of iterations =  2.0

     negative rho (up, down):  2.116E-02 0.000E+00

     total cpu time spent up to now is       48.9 secs

     total energy              =   -2205.48985607 Ry
     estimated scf accuracy    <       0.00099152 Ry

     iteration # 11     ecut=    80.00 Ry     beta= 0.70
     Davidson diagonalization with overlap
     ethr =  3.23E-07,  avg # of iterations =  2.0

     negative rho (up, down):  1.496E-02 0.000E+00

     total cpu time spent up to now is       54.0 secs

     total energy              =   -2205.48975864 Ry
     estimated scf accuracy    <       0.00076705 Ry

     iteration # 12     ecut=    80.00 Ry     beta= 0.70
     Davidson diagonalization with overlap
     ethr =  2.50E-07,  avg # of iterations =  2.0

     negative rho (up, down):  4.088E-03 0.000E+00

     total cpu time spent up to now is       60.7 secs

     total energy              =   -2205.48992630 Ry
     estimated scf accuracy    <       0.00003863 Ry

     iteration # 13     ecut=    80.00 Ry     beta= 0.70
     Davidson diagonalization with overlap
     ethr =  1.26E-08,  avg # of iterations =  5.0

     negative rho (up, down):  1.613E-03 0.000E+00

     total cpu time spent up to now is       69.1 secs

     total energy              =   -2205.48994811 Ry
     estimated scf accuracy    <       0.00000911 Ry

     iteration # 14     ecut=    80.00 Ry     beta= 0.70
     Davidson diagonalization with overlap
     ethr =  2.97E-09,  avg # of iterations =  6.0

     negative rho (up, down):  4.672E-04 0.000E+00

     total cpu time spent up to now is       78.7 secs

     total energy              =   -2205.48994823 Ry
     estimated scf accuracy    <       0.00000155 Ry

     iteration # 15     ecut=    80.00 Ry     beta= 0.70
     Davidson diagonalization with overlap
     ethr =  5.06E-10,  avg # of iterations =  5.0

     negative rho (up, down):  1.369E-04 0.000E+00

     total cpu time spent up to now is       81.0 secs

     End of self-consistent calculation

          k = 0.0000 0.0000 0.0000 (105382 PWs)   bands (ev):

   -62.9604 -62.9400 -62.9334 -62.9248 -62.9143 -62.9013 -62.8865 -62.8756
   -62.8733 -62.8562 -62.8502 -62.7864 -37.3182 -37.2508 -37.2107 -37.2023
   -37.1974 -37.1664 -37.1581 -37.1500 -37.1299 -37.1273 -37.1203 -37.1144
   -37.1027 -37.0978 -37.0870 -37.0817 -37.0727 -37.0715 -37.0655 -37.0629
   -37.0514 -37.0477 -37.0336 -37.0228 -37.0164 -36.9873 -36.9811 -36.9667
   -36.9583 -36.9430 -36.9279 -36.9093 -36.8908 -36.8742 -36.8361 -36.8114
   -16.0281 -15.2464 -15.1841 -15.0263 -14.9550 -14.8682 -14.5606 -14.5265
   -14.5061 -14.4759 -14.4303 -14.4035 -14.3833 -14.3351 -14.2010 -14.1784
   -14.1601 -14.1436 -14.0815 -13.9248 -13.9119 -13.8814 -13.8503  -7.7171
    -7.5482  -7.3491  -7.3340  -7.3164  -7.2581  -7.2532  -7.1799  -6.9362
    -6.8828  -6.8117  -6.7925  -6.7514  -6.5768  -6.5627  -6.4949  -6.4512
    -6.3410  -6.2947  -6.0300  -5.9964  -5.9529  -5.9082  -5.8750  -5.8220
    -5.7955  -5.7590  -5.7178  -5.7103  -5.6622  -5.5827  -5.5767  -5.5128
    -5.4943  -5.4227  -5.2143  -5.1750  -5.0979  -5.0649  -5.0557  -4.9686
    -4.9491  -4.8895  -4.7123  -4.6172  -4.3964  -4.3693  -4.3431  -4.2832
    -4.2459  -4.1078  -4.0926  -3.8697  -3.8535  -3.8125  -3.7760  -3.7320
    -3.6872  -3.6534  -3.5876  -3.5481  -3.5234  -3.5206  -3.4811  -3.4360
    -3.4071  -3.2475  -3.1551  -3.0078  -2.9328  -2.9069  -2.8234  -2.7835
    -2.7592  -2.7199  -2.7026  -2.6793  -2.6431  -2.4702  -2.1445  -2.0427
    -2.0218  -1.1408  -0.8543  -0.7918  -0.2398  -0.1949  -0.1564  -0.1142
    -0.0338   0.0778   0.1128   0.1678   0.1788   0.2182   0.3039   0.3568
     0.3941   0.4635   0.4811   0.5092   0.5314   0.6133   0.6846   0.6869
     0.7048   0.7264   0.7630   0.8140   0.8640   0.9271   0.9500   1.0118
     1.3727

     the Fermi energy is    -1.1412 ev

!    total energy              =   -2205.48994736 Ry
     estimated scf accuracy    <       0.00000067 Ry
     smearing contrib. (-TS)   =      -0.00571581 Ry
     internal energy E=F+TS    =   -2205.48423155 Ry

     The total energy is F=E-TS. E is the sum of the following terms:
     one-electron contribution =  -18041.96989201 Ry
     hartree contribution      =    9007.16368646 Ry
     xc contribution           =    -385.12821970 Ry
     ewald contribution        =    7214.45019369 Ry

     convergence has been achieved in  15 iterations

     negative rho (up, down):  1.369E-04 0.000E+00

     Forces acting on atoms (cartesian axes, Ry/au):

     atom    1 type  1   force =     0.01470688   -0.02482680    0.00469677
     atom    2 type  2   force =    -0.01553708    0.01571708    0.00119753
     atom    3 type  2   force =    -0.01228880    0.00886809   -0.00213670
     atom    4 type  1   force =     0.00694092    0.00316385   -0.00182682
     atom    5 type  2   force =    -0.00259604   -0.00645685   -0.00735269
     atom    6 type  2   force =     0.00356857    0.01032403    0.00093589
     atom    7 type  1   force =     0.00185690   -0.01482471    0.01907550
     atom    8 type  2   force =     0.00535157   -0.00107009    0.01441215
     atom    9 type  2   force =     0.01097676    0.00534973    0.01229887
     atom   10 type  1   force =    -0.00732370    0.01335466   -0.03363863
     atom   11 type  2   force =     0.00384555    0.00708972    0.00262130
     atom   12 type  2   force =    -0.00261123    0.00114106    0.00590437
     atom   13 type  1   force =     0.00494324    0.00391714   -0.00727235
     atom   14 type  2   force =     0.00727020    0.00018233    0.01276277
     atom   15 type  2   force =    -0.01209970    0.00478666   -0.01065425
     atom   16 type  1   force =    -0.00555514    0.00162998   -0.00412402
     atom   17 type  2   force =     0.00599148    0.00150468    0.00233319
     atom   18 type  2   force =    -0.00355205   -0.00687284    0.01477700
     atom   19 type  1   force =     0.00152079   -0.01560315    0.00110354
     atom   20 type  2   force =     0.00245497   -0.00485467    0.00126337
     atom   21 type  1   force =    -0.00273393   -0.00002336    0.00905057
     atom   22 type  2   force =    -0.00496449    0.00537450   -0.00334221
     atom   23 type  2   force =    -0.00034743    0.00148735    0.00764281
     atom   24 type  1   force =    -0.00925040   -0.00256116   -0.02189807
     atom   25 type  2   force =     0.01685154    0.01766699    0.00716521
     atom   26 type  2   force =    -0.01161433   -0.00022731   -0.00379910
     atom   27 type  1   force =    -0.00105752    0.00071932    0.00583536
     atom   28 type  2   force =     0.00017438   -0.00056706   -0.00578845
     atom   29 type  2   force =     0.00270658   -0.00071569   -0.00269634
     atom   30 type  1   force =    -0.00333045    0.00856674   -0.00261084
     atom   31 type  2   force =     0.00028227    0.00138353    0.01525116
     atom   32 type  2   force =    -0.00786440    0.00700871    0.00864816
     atom   33 type  1   force =     0.01315381   -0.00468946   -0.01014944
     atom   34 type  2   force =     0.00216923   -0.04282322   -0.00851257
     atom   35 type  2   force =    -0.00766404    0.00597060    0.01426717
     atom   36 type  3   force =     0.00562510    0.00090960   -0.03544024
     The non-local contrib.  to forces
     atom    1 type  1   force =     0.00063503    0.03304942   -0.01282242
     atom    2 type  2   force =    -0.01085329   -0.00034192   -0.27289435
     atom    3 type  2   force =    -0.01479389   -0.00235793    0.26996157
     atom    4 type  1   force =     0.00062813    0.00258446    0.00400132
     atom    5 type  2   force =     0.00652351   -0.03537923   -0.25363072
     atom    6 type  2   force =    -0.00063757    0.01172021    0.26286324
     atom    7 type  1   force =    -0.00800781   -0.00079692   -0.02899104
     atom    8 type  2   force =     0.00728162   -0.00921969   -0.25863786
     atom    9 type  2   force =     0.00437253   -0.00606110    0.27839809
     atom   10 type  1   force =     0.00027210   -0.00005121    0.00544747
     atom   11 type  2   force =    -0.01682151   -0.05126715   -0.25746592
     atom   12 type  2   force =    -0.01339597   -0.01721698    0.26341670
     atom   13 type  1   force =    -0.00331791    0.02108545   -0.00619547
     atom   14 type  2   force =     0.01112657   -0.01074581   -0.26421399
     atom   15 type  2   force =    -0.01326968   -0.00559233    0.26077244
     atom   16 type  1   force =     0.00166694    0.03431144   -0.01904094
     atom   17 type  2   force =     0.00230809   -0.02990895   -0.25159178
     atom   18 type  2   force =    -0.00310634   -0.00393644    0.27513242
     atom   19 type  1   force =     0.00547906   -0.00345132   -0.01998177
     atom   20 type  2   force =    -0.00042275   -0.02122176    0.26424569
     atom   21 type  1   force =     0.00226949    0.02141611    0.00825446
     atom   22 type  2   force =    -0.01129676   -0.00944399   -0.25905199
     atom   23 type  2   force =     0.00732809   -0.01519288    0.26874048
     atom   24 type  1   force =     0.00591233    0.01196303   -0.01283127
     atom   25 type  2   force =     0.01044342    0.00425701   -0.26113342
     atom   26 type  2   force =    -0.00268253   -0.01355359    0.26310624
     atom   27 type  1   force =    -0.00208005    0.00728187    0.00919795
     atom   28 type  2   force =    -0.00479734   -0.02353279   -0.27268302
     atom   29 type  2   force =     0.00693951    0.00363854    0.26384264
     atom   30 type  1   force =     0.00114608    0.01716515    0.00255941
     atom   31 type  2   force =    -0.00854947   -0.00008602   -0.25374145
     atom   32 type  2   force =    -0.00098798   -0.00789560    0.27342207
     atom   33 type  1   force =    -0.00643384    0.00559324    0.01272363
     atom   34 type  2   force =     0.00152390   -0.03659337   -0.27053060
     atom   35 type  2   force =    -0.00316142   -0.01351037    0.26838085
     atom   36 type  3   force =     0.00147402    0.00213021   -0.00515844
     The ionic contribution  to forces
     atom    1 type  1   force =     0.42688225    0.22909667    5.68026502
     atom    2 type  2   force =    -0.62840079    0.44867165   39.28331716
     atom    3 type  2   force =    -0.15124536    0.03140349  -36.08060472
     atom    4 type  1   force =     0.20959762    0.42696539    0.58534863
     atom    5 type  2   force =    -0.91054166    1.34147561   38.71745403
     atom    6 type  2   force =     0.35789680   -0.53293634  -38.04005538
     atom    7 type  1   force =    -2.28319499   -2.79282132    1.87911460
     atom    8 type  2   force =    -0.74761328   -0.06335196   37.29981502
     atom    9 type  2   force =     0.37518688   -0.05328160  -38.04636235
     atom   10 type  1   force =    -0.96624623   -0.15008990    5.57559733
     atom   11 type  2   force =    -0.23414986   -1.15460410   38.89626813
     atom   12 type  2   force =     0.47008931    0.73550340  -37.91859686
     atom   13 type  1   force =     0.43443068    0.98970827    2.84271842
     atom   14 type  2   force =     0.05167479    0.07682213   38.50631634
     atom   15 type  2   force =     0.15593809   -0.04158910  -36.81285809
     atom   16 type  1   force =    -0.05130100    3.64938235    0.24459674
     atom   17 type  2   force =     0.74913149    1.37771421   37.91041171
     atom   18 type  2   force =    -0.17555261   -0.67508372  -38.57621575
     atom   19 type  1   force =     2.37945811   -2.45423109    0.16323922
     atom   20 type  2   force =     0.22174317   -0.22590596  -38.57688728
     atom   21 type  1   force =     0.00949931    0.39287217    0.88809293
     atom   22 type  2   force =     0.16399463   -1.42703936   38.27314601
     atom   23 type  2   force =    -0.11696487    0.70333409  -38.34234643
     atom   24 type  1   force =    -0.54395285    1.13970079    5.85938965
     atom   25 type  2   force =     0.62888546    0.31996931   39.27288346
     atom   26 type  2   force =    -0.29866535    0.07788363  -37.32536283
     atom   27 type  1   force =    -0.06333620    0.28170909   -2.30977355
     atom   28 type  2   force =     0.05942561    0.95530754   38.20854072
     atom   29 type  2   force =    -0.26272444   -0.44727601  -37.26043704
     atom   30 type  1   force =    -0.30604700   -0.90109864   -0.13019066
     atom   31 type  2   force =     1.07097121   -0.11751550   37.27424633
     atom   32 type  2   force =    -0.50612679   -0.02018803  -38.66552666
     atom   33 type  1   force =     0.69554258   -0.72100864    2.00683418
     atom   34 type  2   force =     0.25738618   -1.37889059   39.34221504
     atom   35 type  2   force =    -0.29598415    0.49998398  -37.82799304
     atom   36 type  3   force =    -0.17568674   -0.52059195    7.20339994
     The local contribution  to forces
     atom    1 type  1   force =    -0.41287790   -0.28715374   -5.66355909
     atom    2 type  2   force =     0.62339782   -0.43268860  -39.03071009
     atom    3 type  2   force =     0.15304952   -0.02023507   35.82941334
     atom    4 type  1   force =    -0.20324552   -0.42624744   -0.59187546
     atom    5 type  2   force =     0.90209350   -1.31449120  -38.49214509
     atom    6 type  2   force =    -0.35384946    0.53265119   37.79894732
     atom    7 type  1   force =     2.29307552    2.77916983   -1.83162603
     atom    8 type  2   force =     0.74596170    0.07086701  -37.04798910
     atom    9 type  2   force =    -0.36861628    0.06435797   37.80137679
     atom   10 type  1   force =     0.95860848    0.16335044   -5.61537204
     atom   11 type  2   force =     0.25401085    1.21094854  -38.65724457
     atom   12 type  2   force =    -0.46052251   -0.71864070   37.68204806
     atom   13 type  1   force =    -0.42615737   -1.00705404   -2.84459497
     atom   14 type  2   force =    -0.05494286   -0.06604984  -38.25067936
     atom   15 type  2   force =    -0.15549685    0.05157457   36.56203473
     atom   16 type  1   force =     0.04402096   -3.68214660   -0.23042356
     atom   17 type  2   force =    -0.74550394   -1.34784470  -37.67738383
     atom   18 type  2   force =     0.17501775    0.67259749   38.33690810
     atom   19 type  1   force =    -2.38352848    2.44238358   -0.14275981
     atom   20 type  2   force =    -0.21907303    0.24162114   38.33506753
     atom   21 type  1   force =    -0.01450017   -0.41461092   -0.88782945
     atom   22 type  2   force =    -0.15800300    1.44173709  -38.03869501
     atom   23 type  2   force =     0.10989410   -0.68806022   38.10231881
     atom   24 type  1   force =     0.52881230   -1.15433122   -5.86926918
     atom   25 type  2   force =    -0.62230144   -0.30626415  -39.02593712
     atom   26 type  2   force =     0.28991669   -0.06530482   37.07933695
     atom   27 type  1   force =     0.06437098   -0.28803813    2.30570287
     atom   28 type  2   force =    -0.05476265   -0.93403047  -37.96311589
     atom   29 type  2   force =     0.25910267    0.44363863   37.01450431
     atom   30 type  1   force =     0.30167408    0.89257160    0.12434228
     atom   31 type  2   force =    -1.06257202    0.11898426  -37.02647807
     atom   32 type  2   force =     0.49955489    0.03466065   38.42189103
     atom   33 type  1   force =    -0.67588794    0.71055696   -2.03039360
     atom   34 type  2   force =    -0.25704670    1.37151979  -39.10183841
     atom   35 type  2   force =     0.29152280   -0.48169659   37.59493878
     atom   36 type  3   force =     0.17983058    0.51937233   -7.23375197
     The core correction contribution to forces
     atom    1 type  1   force =     0.00000000    0.00000000    0.00000000
     atom    2 type  2   force =     0.00029279   -0.00001498    0.02087933
     atom    3 type  2   force =     0.00068303    0.00000597   -0.02087247
     atom    4 type  1   force =     0.00000000    0.00000000    0.00000000
     atom    5 type  2   force =    -0.00062687    0.00195903    0.02045737
     atom    6 type  2   force =     0.00019313   -0.00113574   -0.02085770
     atom    7 type  1   force =     0.00000000    0.00000000    0.00000000
     atom    8 type  2   force =    -0.00032559    0.00070770    0.02069125
     atom    9 type  2   force =     0.00003990    0.00036632   -0.02107489
     atom   10 type  1   force =     0.00000000    0.00000000    0.00000000
     atom   11 type  2   force =     0.00070412    0.00191276    0.02055143
     atom   12 type  2   force =     0.00119569    0.00146866   -0.02086237
     atom   13 type  1   force =     0.00000000    0.00000000    0.00000000
     atom   14 type  2   force =    -0.00058237    0.00005664    0.02073632
     atom   15 type  2   force =     0.00072184    0.00037036   -0.02054665
     atom   16 type  1   force =     0.00000000    0.00000000    0.00000000
     atom   17 type  2   force =     0.00000370    0.00157133    0.02035637
     atom   18 type  2   force =     0.00003372   -0.00045210   -0.02108792
     atom   19 type  1   force =     0.00000000    0.00000000    0.00000000
     atom   20 type  2   force =     0.00013569    0.00077430   -0.02118483
     atom   21 type  1   force =     0.00000000    0.00000000    0.00000000
     atom   22 type  2   force =     0.00046131   -0.00002206    0.02068215
     atom   23 type  2   force =    -0.00058516    0.00129953   -0.02093656
     atom   24 type  1   force =     0.00000000    0.00000000    0.00000000
     atom   25 type  2   force =    -0.00015030   -0.00035870    0.02073813
     atom   26 type  2   force =    -0.00015474    0.00072893   -0.02083996
     atom   27 type  1   force =     0.00000000    0.00000000    0.00000000
     atom   28 type  2   force =     0.00031518    0.00172485    0.02088264
     atom   29 type  2   force =    -0.00058548   -0.00068268   -0.02059853
     atom   30 type  1   force =     0.00000000    0.00000000    0.00000000
     atom   31 type  2   force =     0.00051580    0.00008525    0.02059961
     atom   32 type  2   force =    -0.00024142    0.00048243   -0.02103013
     atom   33 type  1   force =     0.00000000    0.00000000    0.00000000
     atom   34 type  2   force =     0.00027755    0.00112271    0.02100629
     atom   35 type  2   force =    -0.00004265    0.00116460   -0.02095206
     atom   36 type  3   force =     0.00000000    0.00000000    0.00000000
     The Hubbard contrib.    to forces
     atom    1 type  1   force =     0.00000000    0.00000000    0.00000000
     atom    2 type  2   force =     0.00000000    0.00000000    0.00000000
     atom    3 type  2   force =     0.00000000    0.00000000    0.00000000
     atom    4 type  1   force =     0.00000000    0.00000000    0.00000000
     atom    5 type  2   force =     0.00000000    0.00000000    0.00000000
     atom    6 type  2   force =     0.00000000    0.00000000    0.00000000
     atom    7 type  1   force =     0.00000000    0.00000000    0.00000000
     atom    8 type  2   force =     0.00000000    0.00000000    0.00000000
     atom    9 type  2   force =     0.00000000    0.00000000    0.00000000
     atom   10 type  1   force =     0.00000000    0.00000000    0.00000000
     atom   11 type  2   force =     0.00000000    0.00000000    0.00000000
     atom   12 type  2   force =     0.00000000    0.00000000    0.00000000
     atom   13 type  1   force =     0.00000000    0.00000000    0.00000000
     atom   14 type  2   force =     0.00000000    0.00000000    0.00000000
     atom   15 type  2   force =     0.00000000    0.00000000    0.00000000
     atom   16 type  1   force =     0.00000000    0.00000000    0.00000000
     atom   17 type  2   force =     0.00000000    0.00000000    0.00000000
     atom   18 type  2   force =     0.00000000    0.00000000    0.00000000
     atom   19 type  1   force =     0.00000000    0.00000000    0.00000000
     atom   20 type  2   force =     0.00000000    0.00000000    0.00000000
     atom   21 type  1   force =     0.00000000    0.00000000    0.00000000
     atom   22 type  2   force =     0.00000000    0.00000000    0.00000000
     atom   23 type  2   force =     0.00000000    0.00000000    0.00000000
     atom   24 type  1   force =     0.00000000    0.00000000    0.00000000
     atom   25 type  2   force =     0.00000000    0.00000000    0.00000000
     atom   26 type  2   force =     0.00000000    0.00000000    0.00000000
     atom   27 type  1   force =     0.00000000    0.00000000    0.00000000
     atom   28 type  2   force =     0.00000000    0.00000000    0.00000000
     atom   29 type  2   force =     0.00000000    0.00000000    0.00000000
     atom   30 type  1   force =     0.00000000    0.00000000    0.00000000
     atom   31 type  2   force =     0.00000000    0.00000000    0.00000000
     atom   32 type  2   force =     0.00000000    0.00000000    0.00000000
     atom   33 type  1   force =     0.00000000    0.00000000    0.00000000
     atom   34 type  2   force =     0.00000000    0.00000000    0.00000000
     atom   35 type  2   force =     0.00000000    0.00000000    0.00000000
     atom   36 type  3   force =     0.00000000    0.00000000    0.00000000
     The SCF correction term to forces
     atom    1 type  1   force =     0.00006773    0.00017732    0.00079960
     atom    2 type  2   force =     0.00002662    0.00008742    0.00059181
     atom    3 type  2   force =     0.00001812    0.00004811   -0.00004810
     atom    4 type  1   force =    -0.00003908   -0.00014209    0.00068502
     atom    5 type  2   force =    -0.00004429   -0.00002458    0.00049806
     atom    6 type  2   force =    -0.00003411    0.00002118    0.00002473
     atom    7 type  1   force =    -0.00001559   -0.00037981    0.00056429
     atom    8 type  2   force =     0.00004735   -0.00007667    0.00051917
     atom    9 type  2   force =    -0.00000605   -0.00003537   -0.00005244
     atom   10 type  1   force =     0.00004218    0.00014182    0.00067493
     atom   11 type  2   force =     0.00010217    0.00009614    0.00049857
     atom   12 type  2   force =     0.00002247    0.00002315   -0.00011483
     atom   13 type  1   force =    -0.00001194    0.00017394    0.00078599
     atom   14 type  2   force =    -0.00000571    0.00009569    0.00058978
     atom   15 type  2   force =     0.00000713    0.00001964   -0.00007034
     atom   16 type  1   force =     0.00005819    0.00007927    0.00073007
     atom   17 type  2   force =     0.00005237   -0.00003072    0.00052705
     atom   18 type  2   force =     0.00005565   -0.00000159    0.00002648
     atom   19 type  1   force =     0.00011232   -0.00030784    0.00059224
     atom   20 type  2   force =     0.00007213   -0.00012591    0.00000858
     atom   21 type  1   force =    -0.00000234    0.00029576    0.00051895
     atom   22 type  2   force =    -0.00012045    0.00013929    0.00056297
     atom   23 type  2   force =    -0.00001937    0.00010331   -0.00014715
     atom   24 type  1   force =    -0.00002195    0.00010272    0.00079906
     atom   25 type  2   force =    -0.00002537    0.00006001    0.00060050
     atom   26 type  2   force =    -0.00002818    0.00001502   -0.00005317
     atom   27 type  1   force =    -0.00001203   -0.00023702    0.00069442
     atom   28 type  2   force =    -0.00000619   -0.00003971    0.00057344
     atom   29 type  2   force =    -0.00002546   -0.00003769   -0.00002138
     atom   30 type  1   force =    -0.00010339   -0.00007489    0.00066446
     atom   31 type  2   force =    -0.00008302   -0.00008798    0.00061107
     atom   32 type  2   force =    -0.00006287   -0.00005425   -0.00012182
     atom   33 type  1   force =    -0.00006677    0.00016545    0.00067268
     atom   34 type  2   force =     0.00002853    0.00001472    0.00062144
     atom   35 type  2   force =     0.00000160    0.00002546   -0.00012102
     atom   36 type  3   force =     0.00000746   -0.00000451    0.00005656

     Total force =     0.108089     Total SCF correction =     0.003161

     BFGS Geometry Optimization
     Energy error            =      0.0E+00 Ry
     Gradient error          =      4.3E-02 Ry/Bohr

     number of scf cycles    =   1
     number of bfgs steps    =   0

     energy             new  =   -2205.4899473623 Ry

     new trust radius        =       0.0437149548 bohr
     new conv_thr            =       0.0000010000 Ry


ATOMIC_POSITIONS (angstrom)
Mo            6.5823309542        1.7746684513        2.8261284574
S             8.1684874698        0.8180211475        4.4351720574
S             8.1867301357        0.8159345347        1.2767527339
Mo            8.0988355401        4.4967311814        2.7168516836
S             6.4985354916        3.7189946705        4.3427697709
S             6.5552382059        3.5172007964        1.1217754781
Mo            6.4909643247        7.2105923867        2.6819788021
S             8.0845596586        6.3433047277        4.2500881462
S             8.0867262979        6.3075332734        1.0903712803
Mo            8.1567435155        9.9092473971        2.8256609628
S             6.4972025710        8.9466785311        4.3844926676
S             6.6165653961        9.0493150341        1.1430317603
Mo            3.4242755108        1.7490287111        2.7726227987
S             4.9790127150        0.8170376945        4.3572868574
S             5.0514308680        0.8487950997        1.2210204757
Mo            4.9768170275        4.5140405517        2.6307022128
S             3.4310122152        3.6723959305        4.2809442480
S             3.4360409168        3.5445917489        1.0661713326
Mo            3.4546665073        7.2080677091        2.6312608324
S             4.9845333058        6.3243633066        1.0379222800
Mo            5.0108171868        9.9015876911        2.7481903160
S             3.4683310232        8.9465953298        4.3238226918
S             3.4082453143        9.0657770574        1.1001127014
Mo            0.2911953887        1.7461542241        2.8378567513
S             1.8593796645        0.8020429762        4.4020011064
S             1.8546539941        0.8543056330        1.2073904586
Mo            1.8601316935        4.4960474095        2.6632853175
S             0.2723061259        3.6540987501        4.3345209851
S             0.2326634669        3.5268704987        1.1705910440
Mo            0.2693897540        7.2211794151        2.7003148323
S             1.9023876186        6.3135309674        4.2305146893
S             1.8580765558        6.3140526635        1.0491356934
Mo            1.8513073566        9.9376575971        2.7675753987
S             0.2970608063        9.0673367566        4.4093648103
S             0.2727157620        9.0466852183        1.1579506418
H             5.2567322287        7.2864146719        5.3306905435



     Writing config-only to output data dir ./MoS2-V-O.save/
     NEW-OLD atomic charge density approx. for the potential

     negative rho (up, down):  1.410E-04 0.000E+00

     total cpu time spent up to now is       84.3 secs

     Self-consistent Calculation

     iteration #  1     ecut=    80.00 Ry     beta= 0.70
     Davidson diagonalization with overlap
     ethr =  1.00E-06,  avg # of iterations =  7.0

     negative rho (up, down):  1.137E-04 0.000E+00

     total cpu time spent up to now is       96.8 secs

     total energy              =   -2205.49968929 Ry
     estimated scf accuracy    <       0.00068179 Ry

     iteration #  2     ecut=    80.00 Ry     beta= 0.70
     Davidson diagonalization with overlap
     ethr =  2.22E-07,  avg # of iterations =  3.0

     negative rho (up, down):  1.226E-04 0.000E+00

     total cpu time spent up to now is      107.8 secs

     total energy              =   -2205.49976123 Ry
     estimated scf accuracy    <       0.00023448 Ry

     iteration #  3     ecut=    80.00 Ry     beta= 0.70
     Davidson diagonalization with overlap
     ethr =  7.64E-08,  avg # of iterations =  2.0

     negative rho (up, down):  1.188E-04 0.000E+00

     total cpu time spent up to now is      126.5 secs

     total energy              =   -2205.49977745 Ry
     estimated scf accuracy    <       0.00005769 Ry

     iteration #  4     ecut=    80.00 Ry     beta= 0.70
     Davidson diagonalization with overlap
     ethr =  1.88E-08,  avg # of iterations =  5.0

     negative rho (up, down):  1.184E-04 0.000E+00

     total cpu time spent up to now is      149.7 secs

     total energy              =   -2205.49979534 Ry
     estimated scf accuracy    <       0.00000343 Ry

     iteration #  5     ecut=    80.00 Ry     beta= 0.70
     Davidson diagonalization with overlap
     ethr =  1.12E-09,  avg # of iterations =  6.0

     negative rho (up, down):  1.190E-04 0.000E+00

     total cpu time spent up to now is      164.9 secs

     total energy              =   -2205.49979649 Ry
     estimated scf accuracy    <       0.00000113 Ry

     iteration #  6     ecut=    80.00 Ry     beta= 0.70
     Davidson diagonalization with overlap
     ethr =  3.67E-10,  avg # of iterations =  2.0

     negative rho (up, down):  1.374E-04 0.000E+00

     total cpu time spent up to now is      166.9 secs

     End of self-consistent calculation

          k = 0.0000 0.0000 0.0000 (105382 PWs)   bands (ev):

   -62.9593 -62.9381 -62.9316 -62.9234 -62.9128 -62.8979 -62.8835 -62.8737
   -62.8725 -62.8542 -62.8455 -62.7826 -37.3138 -37.2466 -37.2061 -37.2004
   -37.1920 -37.1641 -37.1567 -37.1487 -37.1262 -37.1247 -37.1184 -37.1124
   -37.0987 -37.0957 -37.0847 -37.0788 -37.0717 -37.0689 -37.0636 -37.0613
   -37.0512 -37.0449 -37.0291 -37.0216 -37.0132 -36.9850 -36.9792 -36.9640
   -36.9563 -36.9414 -36.9254 -36.9073 -36.8873 -36.8743 -36.8347 -36.8094
   -16.0255 -15.2451 -15.1830 -15.0209 -14.9470 -14.8678 -14.5564 -14.5227
   -14.4880 -14.4734 -14.4374 -14.4011 -14.3815 -14.3361 -14.1943 -14.1778
   -14.1578 -14.1498 -14.0767 -13.9147 -13.9099 -13.8900 -13.8478  -7.7139
    -7.5460  -7.3453  -7.3336  -7.3107  -7.2622  -7.2528  -7.1835  -6.9364
    -6.8787  -6.8115  -6.7859  -6.7489  -6.5775  -6.5603  -6.4954  -6.4418
    -6.3379  -6.2935  -6.0244  -6.0002  -5.9463  -5.9029  -5.8681  -5.8198
    -5.7988  -5.7549  -5.7123  -5.7093  -5.6680  -5.5825  -5.5744  -5.5054
    -5.4838  -5.4082  -5.2002  -5.1725  -5.0903  -5.0600  -5.0476  -4.9763
    -4.9557  -4.8907  -4.7103  -4.6199  -4.3875  -4.3651  -4.3407  -4.2775
    -4.2539  -4.1176  -4.0917  -3.8673  -3.8486  -3.8046  -3.7641  -3.7261
    -3.6957  -3.6401  -3.5886  -3.5595  -3.5274  -3.5171  -3.4762  -3.4367
    -3.4093  -3.2502  -3.1569  -3.0031  -2.9294  -2.8944  -2.8292  -2.7830
    -2.7621  -2.7207  -2.7065  -2.6833  -2.6412  -2.4755  -2.1473  -2.0440
    -2.0336  -1.1494  -0.8486  -0.7723  -0.2314  -0.1988  -0.1470  -0.1083
    -0.0119   0.0765   0.1111   0.1670   0.1954   0.2340   0.3129   0.3580
     0.3975   0.4718   0.4887   0.5123   0.5359   0.6137   0.6690   0.6914
     0.7001   0.7193   0.7773   0.8243   0.8673   0.9277   0.9445   1.0017
     1.3820

     the Fermi energy is    -1.1496 ev

!    total energy              =   -2205.49979654 Ry
     estimated scf accuracy    <       0.00000016 Ry
     smearing contrib. (-TS)   =      -0.00568668 Ry
     internal energy E=F+TS    =   -2205.49410985 Ry

     The total energy is F=E-TS. E is the sum of the following terms:
     one-electron contribution =  -18044.02809274 Ry
     hartree contribution      =    9008.19847730 Ry
     xc contribution           =    -385.12825829 Ry
     ewald contribution        =    7215.46376387 Ry

     convergence has been achieved in   6 iterations

     negative rho (up, down):  1.374E-04 0.000E+00

     Forces acting on atoms (cartesian axes, Ry/au):

     atom    1 type  1   force =     0.00432437   -0.01255237   -0.00001742
     atom    2 type  2   force =    -0.00926541    0.00977282   -0.00143323
     atom    3 type  2   force =    -0.01088103    0.00792448   -0.00928841
     atom    4 type  1   force =     0.00609643    0.00228546    0.00074634
     atom    5 type  2   force =    -0.00121181   -0.00660082   -0.00790752
     atom    6 type  2   force =     0.00369761    0.00632365    0.00233577
     atom    7 type  1   force =     0.00029298   -0.00812531    0.01692772
     atom    8 type  2   force =     0.00621170   -0.00225928    0.01247605
     atom    9 type  2   force =     0.00806483    0.00502212    0.01020878
     atom   10 type  1   force =    -0.00245950    0.00905352   -0.01328911
     atom   11 type  2   force =     0.00488590    0.00654762    0.00085286
     atom   12 type  2   force =    -0.00531262   -0.00195647    0.00531942
     atom   13 type  1   force =     0.00376122    0.00240245   -0.00246321
     atom   14 type  2   force =     0.00531154    0.00019903    0.00896721
     atom   15 type  2   force =    -0.00834563    0.00228958   -0.00732392
     atom   16 type  1   force =    -0.00373229   -0.00006930   -0.00171206
     atom   17 type  2   force =     0.00495564    0.00132420    0.00220914
     atom   18 type  2   force =    -0.00345623   -0.00512481    0.01042465
     atom   19 type  1   force =     0.00086298   -0.01018964    0.00356253
     atom   20 type  2   force =     0.00336427   -0.00403313    0.00100749
     atom   21 type  1   force =    -0.00199627    0.00139706    0.00623606
     atom   22 type  2   force =    -0.00428807    0.00313728   -0.00317708
     atom   23 type  2   force =     0.00167986   -0.00096626    0.00555117
     atom   24 type  1   force =    -0.00554340   -0.00194481   -0.00887318
     atom   25 type  2   force =     0.01147965    0.01355090   -0.00001573
     atom   26 type  2   force =    -0.00769741   -0.00066121   -0.00479989
     atom   27 type  1   force =    -0.00105547    0.00054125    0.00622909
     atom   28 type  2   force =    -0.00016553   -0.00190252   -0.00606747
     atom   29 type  2   force =     0.00251689    0.00108666   -0.00413436
     atom   30 type  1   force =    -0.00181919    0.00231215    0.00327423
     atom   31 type  2   force =    -0.00049867    0.00064720    0.01153739
     atom   32 type  2   force =    -0.00660383    0.00553278    0.00688871
     atom   33 type  1   force =     0.00589933   -0.00129956   -0.00064788
     atom   34 type  2   force =    -0.00053182   -0.03061732   -0.01361526
     atom   35 type  2   force =    -0.00510962    0.00642828    0.00736407
     atom   36 type  3   force =     0.00656861    0.00052432   -0.03735296
     The non-local contrib.  to forces
     atom    1 type  1   force =     0.00277646    0.02937422   -0.01348922
     atom    2 type  2   force =    -0.00649311   -0.00403871   -0.27264680
     atom    3 type  2   force =    -0.01218084   -0.00432319    0.26414822
     atom    4 type  1   force =     0.00144478    0.00401314    0.00361192
     atom    5 type  2   force =     0.00798124   -0.03584807   -0.25503341
     atom    6 type  2   force =    -0.00069018    0.00796565    0.26498292
     atom    7 type  1   force =    -0.00846789   -0.00204688   -0.02976126
     atom    8 type  2   force =     0.00741108   -0.01011897   -0.25925277
     atom    9 type  2   force =     0.00248348   -0.00648814    0.27706814
     atom   10 type  1   force =    -0.00046250    0.00132302    0.00567028
     atom   11 type  2   force =    -0.01903366   -0.05408203   -0.25954100
     atom   12 type  2   force =    -0.01361937   -0.01921817    0.26416228
     atom   13 type  1   force =    -0.00244694    0.02246263   -0.00631195
     atom   14 type  2   force =     0.00977020   -0.01082842   -0.26617287
     atom   15 type  2   force =    -0.01028010   -0.00762852    0.26236328
     atom   16 type  1   force =     0.00135167    0.03498321   -0.01950459
     atom   17 type  2   force =     0.00128145   -0.02951461   -0.25195603
     atom   18 type  2   force =    -0.00264521   -0.00271772    0.27271405
     atom   19 type  1   force =     0.00677758   -0.00331564   -0.02022024
     atom   20 type  2   force =    -0.00033109   -0.02077279    0.26361525
     atom   21 type  1   force =     0.00166694    0.02124756    0.00749099
     atom   22 type  2   force =    -0.01022610   -0.01217704   -0.25937822
     atom   23 type  2   force =     0.00836045   -0.01733814    0.26784502
     atom   24 type  1   force =     0.00384411    0.01259103   -0.01242705
     atom   25 type  2   force =     0.00661640    0.00082689   -0.26550428
     atom   26 type  2   force =     0.00020299   -0.01354456    0.26299317
     atom   27 type  1   force =    -0.00176471    0.00735657    0.00826167
     atom   28 type  2   force =    -0.00480138   -0.02360926   -0.27327050
     atom   29 type  2   force =     0.00638862    0.00353871    0.26398296
     atom   30 type  1   force =     0.00110251    0.01840841    0.00157817
     atom   31 type  2   force =    -0.00914712   -0.00070119   -0.25601377
     atom   32 type  2   force =     0.00038431   -0.00880438    0.27234288
     atom   33 type  1   force =    -0.00493997    0.00455337    0.01130618
     atom   34 type  2   force =    -0.00015113   -0.02744283   -0.27474816
     atom   35 type  2   force =    -0.00188695   -0.01257482    0.26485564
     atom   36 type  3   force =     0.00159542    0.00213645   -0.00537294
     The ionic contribution  to forces
     atom    1 type  1   force =     0.13946204    0.54452235    5.74766063
     atom    2 type  2   force =    -0.42939169    0.32206648   39.36806640
     atom    3 type  2   force =    -0.14130409    0.06561686  -36.22634463
     atom    4 type  1   force =     0.10553039    0.37392747    0.57704647
     atom    5 type  2   force =    -0.91082518    1.33288807   38.61001494
     atom    6 type  2   force =     0.32746246   -0.56662878  -37.96030533
     atom    7 type  1   force =    -2.35271114   -2.65014676    2.35971938
     atom    8 type  2   force =    -0.71950913   -0.08252255   37.40859639
     atom    9 type  2   force =     0.30969157   -0.03557692  -38.00955687
     atom   10 type  1   force =    -0.76643813   -0.27251331    5.02867619
     atom   11 type  2   force =    -0.14789326   -1.12546088   38.88652431
     atom   12 type  2   force =     0.36109580    0.59753145  -37.87420855
     atom   13 type  1   force =     0.40132495    0.89419430    2.74669135
     atom   14 type  2   force =    -0.02192647    0.11608204   38.56991057
     atom   15 type  2   force =     0.16699227   -0.04710897  -36.85953779
     atom   16 type  1   force =     0.09722966    3.49837764    0.13128034
     atom   17 type  2   force =     0.74448284    1.33803619   37.93756350
     atom   18 type  2   force =    -0.18134219   -0.64383689  -38.53657537
     atom   19 type  1   force =     2.41007563   -2.31020165    0.18674683
     atom   20 type  2   force =     0.26428869   -0.15770640  -38.60775940
     atom   21 type  1   force =    -0.00812561    0.31807396    1.11295522
     atom   22 type  2   force =     0.13697074   -1.44017780   38.26399605
     atom   23 type  2   force =    -0.05536071    0.64267458  -38.31181226
     atom   24 type  1   force =    -0.31380815    1.02121121    5.55426672
     atom   25 type  2   force =     0.50015800    0.26823910   39.23440743
     atom   26 type  2   force =    -0.24506859    0.06591053  -37.31152728
     atom   27 type  1   force =    -0.08939652    0.27849992   -2.11974552
     atom   28 type  2   force =     0.06491971    0.86971480   38.18845066
     atom   29 type  2   force =    -0.24046762   -0.38690085  -37.30010451
     atom   30 type  1   force =    -0.26868655   -0.95292950   -0.16813554
     atom   31 type  2   force =     1.04949611   -0.10569213   37.35520230
     atom   32 type  2   force =    -0.49183707   -0.03433496  -38.64204085
     atom   33 type  1   force =     0.52908263   -0.54012201    1.99598184
     atom   34 type  2   force =     0.19637375   -1.15212098   39.24047518
     atom   35 type  2   force =    -0.23896218    0.47853529  -37.78118997
     atom   36 type  3   force =    -0.18158296   -0.52212090    7.20461121
     The local contribution  to forces
     atom    1 type  1   force =    -0.13755707   -0.58699605   -5.73393164
     atom    2 type  2   force =     0.42631037   -0.30826017  -39.11782246
     atom    3 type  2   force =     0.14200105   -0.05349474   35.97378752
     atom    4 type  1   force =    -0.10069003   -0.37589091   -0.57972121
     atom    5 type  2   force =     0.90238745   -1.30579668  -38.38326450
     atom    6 type  2   force =    -0.32316482    0.56582947   37.71852072
     atom    7 type  1   force =     2.36150390    2.64421138   -2.31275687
     atom    8 type  2   force =     0.71867505    0.08969254  -37.15748824
     atom    9 type  2   force =    -0.30413545    0.04670052   37.76385431
     atom   10 type  1   force =     0.76431674    0.28060841   -5.04777785
     atom   11 type  2   force =     0.17093571    1.18412148  -38.64670195
     atom   12 type  2   force =    -0.35386976   -0.58150921   37.63631175
     atom   13 type  1   force =    -0.39506049   -0.91441715   -2.74272722
     atom   14 type  2   force =     0.01809506   -0.10515501  -38.31555194
     atom   15 type  2   force =    -0.16565064    0.05654593   36.61049443
     atom   16 type  1   force =    -0.10241157   -3.53359864   -0.11330358
     atom   17 type  2   force =    -0.74088754   -1.30887152  -37.70366651
     atom   18 type  2   force =     0.18051290    0.64172526   38.29539861
     atom   19 type  1   force =    -2.41610011    2.30345332   -0.16274631
     atom   20 type  2   force =    -0.26079855    0.17367913   38.36637182
     atom   21 type  1   force =     0.00446538   -0.33764094   -1.11402954
     atom   22 type  2   force =    -0.13145465    1.45551945  -38.02855011
     atom   23 type  2   force =     0.04925283   -0.62754653   38.07054298
     atom   24 type  1   force =     0.30419927   -1.03586305   -5.55081100
     atom   25 type  2   force =    -0.49521147   -0.25525441  -38.98968595
     atom   26 type  2   force =     0.23737259   -0.05374967   37.06460028
     atom   27 type  1   force =     0.08996811   -0.28547768    2.11796215
     atom   28 type  2   force =    -0.06059653   -0.84972136  -37.94212589
     atom   29 type  2   force =     0.23711189    0.38490955   37.05264696
     atom   30 type  1   force =     0.26579246    0.93706926    0.17008323
     atom   31 type  2   force =    -1.04138664    0.10692737  -37.10824288
     atom   32 type  2   force =     0.48514726    0.04824693   38.39771897
     atom   33 type  1   force =    -0.51812457    0.53429888   -2.00794838
     atom   34 type  2   force =    -0.19703090    1.14808746  -39.00043060
     atom   35 type  2   force =     0.23577380   -0.46051257   37.54466385
     atom   36 type  3   force =     0.18656555    0.52051579   -7.23660490
     The core correction contribution to forces
     atom    1 type  1   force =     0.00000000    0.00000000    0.00000000
     atom    2 type  2   force =     0.00021414    0.00004487    0.02092259
     atom    3 type  2   force =     0.00055747    0.00014167   -0.02076351
     atom    4 type  1   force =     0.00000000    0.00000000    0.00000000
     atom    5 type  2   force =    -0.00070650    0.00197252    0.02044672
     atom    6 type  2   force =     0.00018051   -0.00099474   -0.02086999
     atom    7 type  1   force =     0.00000000    0.00000000    0.00000000
     atom    8 type  2   force =    -0.00026477    0.00072244    0.02071591
     atom    9 type  2   force =     0.00008891    0.00039650   -0.02107011
     atom   10 type  1   force =     0.00000000    0.00000000    0.00000000
     atom   11 type  2   force =     0.00091497    0.00211257    0.02058841
     atom   12 type  2   force =     0.00110322    0.00144335   -0.02088612
     atom   13 type  1   force =     0.00000000    0.00000000    0.00000000
     atom   14 type  2   force =    -0.00057412    0.00010334    0.02080936
     atom   15 type  2   force =     0.00061576    0.00046079   -0.02059185
     atom   16 type  1   force =     0.00000000    0.00000000    0.00000000
     atom   17 type  2   force =     0.00005774    0.00153329    0.02037216
     atom   18 type  2   force =    -0.00001704   -0.00048104   -0.02104235
     atom   19 type  1   force =     0.00000000    0.00000000    0.00000000
     atom   20 type  2   force =     0.00018255    0.00081796   -0.02118105
     atom   21 type  1   force =     0.00000000    0.00000000    0.00000000
     atom   22 type  2   force =     0.00038443    0.00007787    0.02070546
     atom   23 type  2   force =    -0.00057119    0.00134843   -0.02092119
     atom   24 type  1   force =     0.00000000    0.00000000    0.00000000
     atom   25 type  2   force =    -0.00003575   -0.00022192    0.02083794
     atom   26 type  2   force =    -0.00025349    0.00072557   -0.02082740
     atom   27 type  1   force =     0.00000000    0.00000000    0.00000000
     atom   28 type  2   force =     0.00031584    0.00165089    0.02092059
     atom   29 type  2   force =    -0.00053643   -0.00062887   -0.02062280
     atom   30 type  1   force =     0.00000000    0.00000000    0.00000000
     atom   31 type  2   force =     0.00050346    0.00013829    0.02064841
     atom   32 type  2   force =    -0.00032125    0.00049417   -0.02099892
     atom   33 type  1   force =     0.00000000    0.00000000    0.00000000
     atom   34 type  2   force =     0.00027867    0.00083981    0.02112853
     atom   35 type  2   force =    -0.00005840    0.00110679   -0.02086058
     atom   36 type  3   force =     0.00000000    0.00000000    0.00000000
     The Hubbard contrib.    to forces
     atom    1 type  1   force =     0.00000000    0.00000000    0.00000000
     atom    2 type  2   force =     0.00000000    0.00000000    0.00000000
     atom    3 type  2   force =     0.00000000    0.00000000    0.00000000
     atom    4 type  1   force =     0.00000000    0.00000000    0.00000000
     atom    5 type  2   force =     0.00000000    0.00000000    0.00000000
     atom    6 type  2   force =     0.00000000    0.00000000    0.00000000
     atom    7 type  1   force =     0.00000000    0.00000000    0.00000000
     atom    8 type  2   force =     0.00000000    0.00000000    0.00000000
     atom    9 type  2   force =     0.00000000    0.00000000    0.00000000
     atom   10 type  1   force =     0.00000000    0.00000000    0.00000000
     atom   11 type  2   force =     0.00000000    0.00000000    0.00000000
     atom   12 type  2   force =     0.00000000    0.00000000    0.00000000
     atom   13 type  1   force =     0.00000000    0.00000000    0.00000000
     atom   14 type  2   force =     0.00000000    0.00000000    0.00000000
     atom   15 type  2   force =     0.00000000    0.00000000    0.00000000
     atom   16 type  1   force =     0.00000000    0.00000000    0.00000000
     atom   17 type  2   force =     0.00000000    0.00000000    0.00000000
     atom   18 type  2   force =     0.00000000    0.00000000    0.00000000
     atom   19 type  1   force =     0.00000000    0.00000000    0.00000000
     atom   20 type  2   force =     0.00000000    0.00000000    0.00000000
     atom   21 type  1   force =     0.00000000    0.00000000    0.00000000
     atom   22 type  2   force =     0.00000000    0.00000000    0.00000000
     atom   23 type  2   force =     0.00000000    0.00000000    0.00000000
     atom   24 type  1   force =     0.00000000    0.00000000    0.00000000
     atom   25 type  2   force =     0.00000000    0.00000000    0.00000000
     atom   26 type  2   force =     0.00000000    0.00000000    0.00000000
     atom   27 type  1   force =     0.00000000    0.00000000    0.00000000
     atom   28 type  2   force =     0.00000000    0.00000000    0.00000000
     atom   29 type  2   force =     0.00000000    0.00000000    0.00000000
     atom   30 type  1   force =     0.00000000    0.00000000    0.00000000
     atom   31 type  2   force =     0.00000000    0.00000000    0.00000000
     atom   32 type  2   force =     0.00000000    0.00000000    0.00000000
     atom   33 type  1   force =     0.00000000    0.00000000    0.00000000
     atom   34 type  2   force =     0.00000000    0.00000000    0.00000000
     atom   35 type  2   force =     0.00000000    0.00000000    0.00000000
     atom   36 type  3   force =     0.00000000    0.00000000    0.00000000
     The SCF correction term to forces
     atom    1 type  1   force =    -0.00035414    0.00054631   -0.00025364
     atom    2 type  2   force =     0.00009781   -0.00004045    0.00005058
     atom    3 type  2   force =     0.00004828   -0.00001692   -0.00011247
     atom    4 type  1   force =    -0.00018579    0.00023496   -0.00018729
     atom    5 type  2   force =    -0.00004590    0.00018256   -0.00006773
     atom    6 type  2   force =    -0.00008744    0.00015125    0.00001101
     atom    7 type  1   force =    -0.00002896   -0.00014384   -0.00026998
     atom    8 type  2   force =    -0.00009760   -0.00003355   -0.00009170
     atom    9 type  2   force =    -0.00006075   -0.00001064   -0.00008315
     atom   10 type  1   force =     0.00012731   -0.00036541    0.00014581
     atom   11 type  2   force =    -0.00003495   -0.00014432   -0.00001336
     atom   12 type  2   force =    -0.00001958   -0.00020470   -0.00005640
     atom   13 type  1   force =    -0.00005339    0.00016188   -0.00011184
     atom   14 type  2   force =    -0.00005020   -0.00000372   -0.00002436
     atom   15 type  2   force =    -0.00002000    0.00001956   -0.00004845
     atom   16 type  1   force =     0.00010088    0.00016769   -0.00018069
     atom   17 type  2   force =     0.00002407    0.00014006   -0.00010044
     atom   18 type  2   force =     0.00003822    0.00018478   -0.00006674
     atom   19 type  1   force =     0.00011280   -0.00012648   -0.00021420
     atom   20 type  2   force =     0.00002558   -0.00005182   -0.00003559
     atom   21 type  1   force =    -0.00000005   -0.00028432   -0.00017706
     atom   22 type  2   force =     0.00004044   -0.00010600    0.00005328
     atom   23 type  2   force =     0.00000139   -0.00010540   -0.00009983
     atom   24 type  1   force =     0.00022428    0.00011520    0.00010170
     atom   25 type  2   force =    -0.00004462   -0.00003956   -0.00006733
     atom   26 type  2   force =     0.00005200   -0.00000387   -0.00003511
     atom   27 type  1   force =     0.00014057    0.00016165   -0.00024567
     atom   28 type  2   force =    -0.00000024    0.00006160   -0.00003878
     atom   29 type  2   force =     0.00002335    0.00016732   -0.00003342
     atom   30 type  1   force =    -0.00002470   -0.00023682   -0.00024809
     atom   31 type  2   force =     0.00003845   -0.00002594   -0.00005312
     atom   32 type  2   force =     0.00002584   -0.00006978   -0.00012982
     atom   33 type  1   force =    -0.00011584   -0.00003061    0.00001603
     atom   34 type  2   force =     0.00000070    0.00001841   -0.00003667
     atom   35 type  2   force =     0.00002702   -0.00012721   -0.00010132
     atom   36 type  3   force =    -0.00000649   -0.00000782    0.00001720

     Total force =     0.079430     Total SCF correction =     0.001382
     Energy error            =      9.8E-03 Ry
     Gradient error          =      3.7E-02 Ry/Bohr

     number of scf cycles    =   2
     number of bfgs steps    =   1

     energy             old  =   -2205.4899473623 Ry
     energy             new  =   -2205.4997965363 Ry

     CASE: energy            _new < energy            _old

     new trust radius        =       0.0480864503 bohr
     new conv_thr            =       0.0000000374 Ry


ATOMIC_POSITIONS (angstrom)
Mo            6.5865408254        1.7646507607        2.8266978711
S             8.1614368178        0.8253752108        4.4345253731
S             8.1791845509        0.8214197937        1.2713414717
Mo            8.1030700541        4.4983879032        2.7170400936
S             6.4975438153        3.7145402942        4.3374807451
S             6.5577274674        3.5219783491        1.1231853980
Mo            6.4913556394        7.2042614287        2.6937123193
S             8.0886621102        6.3419206561        4.2587795089
S             8.0925493248        6.3109762055        1.0975455308
Mo            8.1544774706        9.9159115440        2.8141485425
S             6.5003845556        8.9511814527        4.3852885222
S             6.6132990911        9.0483713986        1.1467078429
Mo            3.4269695077        1.7508431458        2.7703610269
S             4.9828528245        0.8171704803        4.3638301994
S             5.0453137719        0.8506541827        1.2156478394
Mo            4.9740636208        4.5142031027        2.6292448997
S             3.4344974226        3.6733153447        4.2824562607
S             3.4336874676        3.5409041199        1.0737707511
Mo            3.4553322868        7.2004966807        2.6333713174
S             4.9867005300        6.3215295289        1.0386364149
Mo            5.0093737454        9.9023590937        2.7527623195
S             3.4653424148        8.9489967012        4.3216498279
S             3.4091334916        9.0654249133        1.1041315590
Mo            0.2869826357        1.7447606019        2.8302392318
S             1.8678195542        0.8117313365        4.4028757897
S             1.8489559972        0.8539111537        1.2042618663
Mo            1.8594163494        4.4964360693        2.6674570517
S             0.2722358862        3.6529744193        4.3304446054
S             0.2343920758        3.5273845093        1.1679672653
Mo            0.2679709064        7.2235170497        2.7018075876
S             1.9021460482        6.3140602370        4.2387892693
S             1.8534469740        6.3179831535        1.0540197942
Mo            1.8561986224        9.9363591859        2.7659650036
S             0.2970335044        9.0450883112        4.4007694321
S             0.2689390004        9.0509840209        1.1637909679
H             5.2610662067        7.2868174048        5.3056193197



     Writing config-only to output data dir ./MoS2-V-O.save/
     NEW-OLD atomic charge density approx. for the potential

     negative rho (up, down):  1.418E-04 0.000E+00

     total cpu time spent up to now is      170.2 secs

     Self-consistent Calculation

     iteration #  1     ecut=    80.00 Ry     beta= 0.70
     Davidson diagonalization with overlap
     ethr =  1.00E-06,  avg # of iterations =  7.0

     negative rho (up, down):  9.862E-05 0.000E+00

     total cpu time spent up to now is      191.5 secs

     total energy              =   -2205.50708781 Ry
     estimated scf accuracy    <       0.00067832 Ry

     iteration #  2     ecut=    80.00 Ry     beta= 0.70
     Davidson diagonalization with overlap
     ethr =  2.21E-07,  avg # of iterations =  3.0

     negative rho (up, down):  1.007E-04 0.000E+00

     total cpu time spent up to now is      202.2 secs

     total energy              =   -2205.50717808 Ry
     estimated scf accuracy    <       0.00022592 Ry

     iteration #  3     ecut=    80.00 Ry     beta= 0.70
     Davidson diagonalization with overlap
     ethr =  7.36E-08,  avg # of iterations =  2.0

     negative rho (up, down):  9.115E-05 0.000E+00

     total cpu time spent up to now is      220.1 secs

     total energy              =   -2205.50719824 Ry
     estimated scf accuracy    <       0.00004057 Ry

     iteration #  4     ecut=    80.00 Ry     beta= 0.70
     Davidson diagonalization with overlap
     ethr =  1.32E-08,  avg # of iterations =  6.0

     negative rho (up, down):  8.921E-05 0.000E+00

     total cpu time spent up to now is      232.1 secs

     total energy              =   -2205.50721221 Ry
     estimated scf accuracy    <       0.00000317 Ry

     iteration #  5     ecut=    80.00 Ry     beta= 0.70
     Davidson diagonalization with overlap
     ethr =  1.03E-09,  avg # of iterations =  4.0

     negative rho (up, down):  8.979E-05 0.000E+00

     total cpu time spent up to now is      247.4 secs

     total energy              =   -2205.50721271 Ry
     estimated scf accuracy    <       0.00000085 Ry

     iteration #  6     ecut=    80.00 Ry     beta= 0.70
     Davidson diagonalization with overlap
     ethr =  2.76E-10,  avg # of iterations =  4.0

     negative rho (up, down):  9.293E-05 0.000E+00

     total cpu time spent up to now is      259.9 secs

     total energy              =   -2205.50721283 Ry
     estimated scf accuracy    <       0.00000017 Ry

     iteration #  7     ecut=    80.00 Ry     beta= 0.70
     Davidson diagonalization with overlap
     ethr =  5.58E-11,  avg # of iterations =  6.0

     negative rho (up, down):  1.002E-04 0.000E+00

     total cpu time spent up to now is      273.7 secs

     total energy              =   -2205.50721281 Ry
     estimated scf accuracy    <       0.00000008 Ry

     iteration #  8     ecut=    80.00 Ry     beta= 0.70
     Davidson diagonalization with overlap
     ethr =  2.61E-11,  avg # of iterations =  2.0

     negative rho (up, down):  1.147E-04 0.000E+00

     total cpu time spent up to now is      284.5 secs

     total energy              =   -2205.50721274 Ry
     estimated scf accuracy    <       0.00000004 Ry

     iteration #  9     ecut=    80.00 Ry     beta= 0.70
     Davidson diagonalization with overlap
     ethr =  1.26E-11,  avg # of iterations =  4.0

     negative rho (up, down):  1.379E-04 0.000E+00

     total cpu time spent up to now is      286.5 secs

     End of self-consistent calculation

          k = 0.0000 0.0000 0.0000 (105382 PWs)   bands (ev):

   -62.9569 -62.9353 -62.9284 -62.9205 -62.9102 -62.8947 -62.8797 -62.8719
   -62.8693 -62.8526 -62.8413 -62.7752 -37.3088 -37.2413 -37.2020 -37.1971
   -37.1873 -37.1608 -37.1544 -37.1464 -37.1228 -37.1209 -37.1154 -37.1094
   -37.0948 -37.0925 -37.0820 -37.0755 -37.0700 -37.0658 -37.0606 -37.0589
   -37.0500 -37.0428 -37.0256 -37.0183 -37.0088 -36.9822 -36.9760 -36.9611
   -36.9515 -36.9395 -36.9215 -36.9048 -36.8831 -36.8729 -36.8321 -36.8045
   -16.0230 -15.2449 -15.1809 -15.0164 -14.9398 -14.8656 -14.5513 -14.5184
   -14.4742 -14.4715 -14.4451 -14.3984 -14.3765 -14.3354 -14.1883 -14.1759
   -14.1587 -14.1511 -14.0724 -13.9141 -13.9063 -13.8906 -13.8453  -7.7116
    -7.5440  -7.3443  -7.3364  -7.2999  -7.2650  -7.2523  -7.1826  -6.9365
    -6.8756  -6.8127  -6.7817  -6.7467  -6.5780  -6.5573  -6.4952  -6.4344
    -6.3363  -6.2935  -6.0194  -6.0043  -5.9443  -5.8994  -5.8602  -5.8186
    -5.8018  -5.7488  -5.7058  -5.7039  -5.6709  -5.5870  -5.5677  -5.5012
    -5.4725  -5.3991  -5.1956  -5.1675  -5.0828  -5.0596  -5.0339  -4.9817
    -4.9619  -4.8910  -4.7052  -4.6203  -4.3821  -4.3631  -4.3399  -4.2707
    -4.2588  -4.1213  -4.0877  -3.8680  -3.8438  -3.7976  -3.7513  -3.7242
    -3.7000  -3.6286  -3.5880  -3.5709  -3.5272  -3.5126  -3.4745  -3.4342
    -3.4103  -3.2544  -3.1567  -2.9988  -2.9266  -2.8864  -2.8315  -2.7892
    -2.7599  -2.7183  -2.7098  -2.6815  -2.6362  -2.4807  -2.1499  -2.0452
    -2.0364  -1.1560  -0.8436  -0.7453  -0.2248  -0.2029  -0.1400  -0.1012
     0.0113   0.0771   0.1035   0.1680   0.2062   0.2529   0.3173   0.3596
     0.4011   0.4794   0.4962   0.5132   0.5402   0.6158   0.6592   0.6910
     0.7016   0.7168   0.7950   0.8326   0.8723   0.9282   0.9429   0.9971
     1.3907

     the Fermi energy is    -1.1562 ev

!    total energy              =   -2205.50721269 Ry
     estimated scf accuracy    <          6.9E-09 Ry
     smearing contrib. (-TS)   =      -0.00567128 Ry
     internal energy E=F+TS    =   -2205.50154142 Ry

     The total energy is F=E-TS. E is the sum of the following terms:
     one-electron contribution =  -18046.85866952 Ry
     hartree contribution      =    9009.64444559 Ry
     xc contribution           =    -385.13471810 Ry
     ewald contribution        =    7216.84740061 Ry

     convergence has been achieved in   9 iterations

     negative rho (up, down):  1.379E-04 0.000E+00

     Forces acting on atoms (cartesian axes, Ry/au):

     atom    1 type  1   force =    -0.00268196   -0.00355983   -0.00375039
     atom    2 type  2   force =    -0.00439925    0.00524016   -0.00227633
     atom    3 type  2   force =    -0.00872257    0.00633127   -0.01215385
     atom    4 type  1   force =     0.00495747    0.00122026    0.00171867
     atom    5 type  2   force =    -0.00011587   -0.00618530   -0.00722785
     atom    6 type  2   force =     0.00359322    0.00362146    0.00280135
     atom    7 type  1   force =    -0.00083793   -0.00306888    0.01494488
     atom    8 type  2   force =     0.00619329   -0.00328294    0.01106429
     atom    9 type  2   force =     0.00492249    0.00448509    0.00873606
     atom   10 type  1   force =    -0.00058274    0.00569375   -0.00185534
     atom   11 type  2   force =     0.00531990    0.00653394    0.00047726
     atom   12 type  2   force =    -0.00643881   -0.00387399    0.00561838
     atom   13 type  1   force =     0.00225701    0.00086550    0.00007819
     atom   14 type  2   force =     0.00343900    0.00029498    0.00588468
     atom   15 type  2   force =    -0.00555095    0.00015908   -0.00456902
     atom   16 type  1   force =    -0.00230582   -0.00125844   -0.00035893
     atom   17 type  2   force =     0.00389649    0.00118439    0.00260578
     atom   18 type  2   force =    -0.00327002   -0.00327502    0.00663783
     atom   19 type  1   force =     0.00043364   -0.00588925    0.00476734
     atom   20 type  2   force =     0.00376370   -0.00302775    0.00178580
     atom   21 type  1   force =    -0.00121364    0.00240586    0.00351791
     atom   22 type  2   force =    -0.00342464    0.00155072   -0.00188217
     atom   23 type  2   force =     0.00261076   -0.00260686    0.00448538
     atom   24 type  1   force =    -0.00325561   -0.00092015   -0.00266658
     atom   25 type  2   force =     0.00685757    0.00968551   -0.00344591
     atom   26 type  2   force =    -0.00420534   -0.00094962   -0.00394017
     atom   27 type  1   force =    -0.00083980    0.00034704    0.00518041
     atom   28 type  2   force =    -0.00031304   -0.00277677   -0.00472049
     atom   29 type  2   force =     0.00239583    0.00222692   -0.00401247
     atom   30 type  1   force =    -0.00055478   -0.00168185    0.00507742
     atom   31 type  2   force =    -0.00067001   -0.00035371    0.00898443
     atom   32 type  2   force =    -0.00497198    0.00392158    0.00581635
     atom   33 type  1   force =     0.00086100    0.00084316    0.00298384
     atom   34 type  2   force =    -0.00195605   -0.01932137   -0.01344417
     atom   35 type  2   force =    -0.00273981    0.00571421    0.00305530
     atom   36 type  3   force =     0.00754928   -0.00029315   -0.03991785
     The non-local contrib.  to forces
     atom    1 type  1   force =     0.00407040    0.02666138   -0.01378728
     atom    2 type  2   force =    -0.00296561   -0.00717920   -0.27167611
     atom    3 type  2   force =    -0.00931582   -0.00623005    0.26085919
     atom    4 type  1   force =     0.00222271    0.00506603    0.00350027
     atom    5 type  2   force =     0.00925289   -0.03550115   -0.25549855
     atom    6 type  2   force =    -0.00094894    0.00527693    0.26619368
     atom    7 type  1   force =    -0.00912972   -0.00315250   -0.02993361
     atom    8 type  2   force =     0.00693950   -0.01077783   -0.25945956
     atom    9 type  2   force =     0.00038911   -0.00708162    0.27590225
     atom   10 type  1   force =    -0.00063910    0.00251309    0.00640614
     atom   11 type  2   force =    -0.02070757   -0.05659837   -0.26100187
     atom   12 type  2   force =    -0.01289454   -0.02016038    0.26521571
     atom   13 type  1   force =    -0.00162907    0.02361328   -0.00617716
     atom   14 type  2   force =     0.00825146   -0.01085527   -0.26750794
     atom   15 type  2   force =    -0.00794582   -0.00938506    0.26332836
     atom   16 type  1   force =     0.00138266    0.03540129   -0.01939753
     atom   17 type  2   force =     0.00019576   -0.02925226   -0.25190992
     atom   18 type  2   force =    -0.00213327   -0.00151798    0.27048210
     atom   19 type  1   force =     0.00781774   -0.00324400   -0.02031372
     atom   20 type  2   force =    -0.00059904   -0.02008049    0.26342050
     atom   21 type  1   force =     0.00114397    0.02103378    0.00704870
     atom   22 type  2   force =    -0.00932944   -0.01428421   -0.25898274
     atom   23 type  2   force =     0.00867366   -0.01869117    0.26756138
     atom   24 type  1   force =     0.00229827    0.01305996   -0.01167428
     atom   25 type  2   force =     0.00326869   -0.00253434   -0.26760456
     atom   26 type  2   force =     0.00277346   -0.01327348    0.26368335
     atom   27 type  1   force =    -0.00147854    0.00747763    0.00765015
     atom   28 type  2   force =    -0.00457346   -0.02347757   -0.27282859
     atom   29 type  2   force =     0.00588745    0.00306887    0.26476168
     atom   30 type  1   force =     0.00109334    0.01942283    0.00110562
     atom   31 type  2   force =    -0.00941005   -0.00146334   -0.25732936
     atom   32 type  2   force =     0.00204765   -0.00986495    0.27142112
     atom   33 type  1   force =    -0.00392069    0.00384861    0.01067626
     atom   34 type  2   force =    -0.00084003   -0.01891402   -0.27551921
     atom   35 type  2   force =    -0.00057033   -0.01281883    0.26287951
     atom   36 type  3   force =     0.00173465    0.00211965   -0.00566561
     The ionic contribution  to forces
     atom    1 type  1   force =    -0.04739506    0.76194142    5.69593634
     atom    2 type  2   force =    -0.27973614    0.23328542   39.42358453
     atom    3 type  2   force =    -0.11817390    0.07466623  -36.38551175
     atom    4 type  1   force =    -0.00761050    0.32955505    0.56133915
     atom    5 type  2   force =    -0.90457755    1.32858857   38.50138217
     atom    6 type  2   force =     0.30832823   -0.57250737  -37.89981705
     atom    7 type  1   force =    -2.41011172   -2.54430082    2.86791382
     atom    8 type  2   force =    -0.71669440   -0.10365631   37.52319095
     atom    9 type  2   force =     0.23857764   -0.00630682  -37.96609740
     atom   10 type  1   force =    -0.63799559   -0.35936259    4.61536562
     atom   11 type  2   force =    -0.09056934   -1.09274460   38.87257523
     atom   12 type  2   force =     0.29469925    0.48034074  -37.81826129
     atom   13 type  1   force =     0.35229268    0.79975306    2.66016470
     atom   14 type  2   force =    -0.07637132    0.14241766   38.63625948
     atom   15 type  2   force =     0.16954592   -0.06632350  -36.92456969
     atom   16 type  1   force =     0.22635096    3.41065328   -0.00304398
[...]
     atom   27 type  1   force =    -0.00371876    0.00701256    0.00116069
     atom   28 type  2   force =    -0.00001214   -0.01427540   -0.26967833
     atom   29 type  2   force =     0.00032370   -0.00666630    0.26690208
     atom   30 type  1   force =    -0.00020691    0.02025328   -0.00123235
     atom   31 type  2   force =    -0.00857773    0.00037677   -0.26468320
     atom   32 type  2   force =     0.00539498   -0.01184368    0.26805201
     atom   33 type  1   force =    -0.00197725    0.00950629    0.00164648
     atom   34 type  2   force =    -0.00032163   -0.01037871   -0.27158038
     atom   35 type  2   force =     0.00095463   -0.01475559    0.26717939
     atom   36 type  3   force =     0.00017224    0.00172569   -0.01750663
     The ionic contribution  to forces
     atom    1 type  1   force =    -0.12129289    0.55474998    2.10923173
     atom    2 type  2   force =    -0.17475366    0.10327132   38.96501531
     atom    3 type  2   force =     0.10650823   -0.05973633  -37.51765922
     atom    4 type  1   force =    -0.17408700    0.57034269    1.08306332
     atom    5 type  2   force =    -0.79498031    1.15898289   38.48235029
     atom    6 type  2   force =     0.22109974   -0.22714172  -38.18545658
     atom    7 type  1   force =    -1.97389643   -1.84536294    2.21007315
     atom    8 type  2   force =    -1.09738828    0.03337167   38.40524150
     atom    9 type  2   force =     0.24704752   -0.01637392  -37.78411111
     atom   10 type  1   force =    -0.22806105   -0.39660350    3.10066013
     atom   11 type  2   force =    -0.46116319   -1.30815612   38.82530709
     atom   12 type  2   force =     0.19410369    0.23433411  -37.98902522
     atom   13 type  1   force =     0.04945783    0.60486814    2.49252555
     atom   14 type  2   force =    -0.01915929    0.00299063   38.62918620
     atom   15 type  2   force =    -0.01251886   -0.07839397  -37.64572806
     atom   16 type  1   force =    -0.16972196    3.07402026    0.44115470
     atom   17 type  2   force =     0.76067113    1.20125145   38.38751981
     atom   18 type  2   force =    -0.24321609   -0.20326960  -38.04528413
     atom   19 type  1   force =     1.92168686   -2.06929388    1.69377404
     atom   20 type  2   force =    -0.03141239   -0.08536984  -38.64416857
     atom   21 type  1   force =     0.02153729   -0.21342800    1.07452242
     atom   22 type  2   force =     0.45689409   -1.32635455   38.83409945
     atom   23 type  2   force =    -0.19238696    0.27348287  -38.09547401
     atom   24 type  1   force =     0.06648366    0.44392801    2.77634772
     atom   25 type  2   force =     0.19665239    0.10936035   38.97880185
     atom   26 type  2   force =    -0.08664713   -0.04371967  -37.45493822
     atom   27 type  1   force =     0.33851152    0.55737797    1.06279330
     atom   28 type  2   force =     0.03116643    0.50247075   38.41897045
     atom   29 type  2   force =     0.02977074   -0.06584594  -37.54367963
     atom   30 type  1   force =     0.00383636   -0.62777976    2.57336970
     atom   31 type  2   force =     1.17011280    0.01745350   38.33516100
     atom   32 type  2   force =    -0.23141839   -0.04842017  -37.80994446
     atom   33 type  1   force =     0.18035567   -0.32079259    3.03470759
     atom   34 type  2   force =     0.01360161   -0.46015375   38.95358615
     atom   35 type  2   force =     0.01317140    0.09018589  -37.38651984
     atom   36 type  3   force =    -0.01056511   -0.13624622    5.23452661
     The local contribution  to forces
     atom    1 type  1   force =     0.11901861   -0.57424689   -2.10517190
     atom    2 type  2   force =     0.17543738   -0.09076652  -38.71978376
     atom    3 type  2   force =    -0.10368742    0.07079388   37.27107019
     atom    4 type  1   force =     0.17174991   -0.57700286   -1.08458807
     atom    5 type  2   force =     0.79162760   -1.13917675  -38.24634044
     atom    6 type  2   force =    -0.21798648    0.23392315   37.94109929
     atom    7 type  1   force =     1.96715715    1.83569459   -2.19749793
     atom    8 type  2   force =     1.09063327   -0.03421172  -38.16156912
     atom    9 type  2   force =    -0.24260164    0.02857070   37.53793643
     atom   10 type  1   force =     0.22609877    0.38560693   -3.10127818
     atom   11 type  2   force =     0.45582413    1.31202396  -38.58610974
     atom   12 type  2   force =    -0.18863291   -0.22163708   37.74577638
     atom   13 type  1   force =    -0.04867901   -0.62700912   -2.48714868
     atom   14 type  2   force =     0.01934825    0.00766034  -38.38182424
     atom   15 type  2   force =     0.01243609    0.08946858   37.40261532
     atom   16 type  1   force =     0.17081365   -3.08669731   -0.42444539
     atom   17 type  2   force =    -0.75631145   -1.18223143  -38.15152669
     atom   18 type  2   force =     0.23905939    0.20889749   37.79950492
     atom   19 type  1   force =    -1.91577630    2.06051147   -1.68348696
     atom   20 type  2   force =     0.03172741    0.09875355   38.40240965
     atom   21 type  1   force =    -0.02118778    0.19083094   -1.07902931
     atom   22 type  2   force =    -0.45145987    1.32874938  -38.59465066
     atom   23 type  2   force =     0.18772422   -0.26042613   37.85282631
     atom   24 type  1   force =    -0.06652800   -0.45973981   -2.77397695
     atom   25 type  2   force =    -0.19757237   -0.09705843  -38.73337931
     atom   26 type  2   force =     0.08388107    0.05500930   37.20819150
     atom   27 type  1   force =    -0.33444667   -0.56444462   -1.06402834
     atom   28 type  2   force =    -0.03112911   -0.48877240  -38.17112613
     atom   29 type  2   force =    -0.02957895    0.07320947   37.29639420
     atom   30 type  1   force =    -0.00331105    0.60830362   -2.57143930
     atom   31 type  2   force =    -1.16261924   -0.01764822  -38.09152970
     atom   32 type  2   force =     0.22640244    0.05943782   37.56353024
     atom   33 type  1   force =    -0.17871545    0.31168135   -3.03594176
     atom   34 type  2   force =    -0.01329273    0.46926407  -38.70344613
     atom   35 type  2   force =    -0.01323721   -0.07640706   37.13973071
     atom   36 type  3   force =     0.01102450    0.13344964   -5.21651085
     The core correction contribution to forces
     atom    1 type  1   force =     0.00000000    0.00000000    0.00000000
     atom    2 type  2   force =    -0.00001573    0.00061149    0.02084101
     atom    3 type  2   force =     0.00025865    0.00050157   -0.02090792
     atom    4 type  1   force =     0.00000000    0.00000000    0.00000000
     atom    5 type  2   force =    -0.00041703    0.00089503    0.02048567
     atom    6 type  2   force =     0.00042209   -0.00008312   -0.02089651
     atom    7 type  1   force =     0.00000000    0.00000000    0.00000000
     atom    8 type  2   force =    -0.00051552    0.00005445    0.02078166
     atom    9 type  2   force =     0.00044130    0.00060854   -0.02087515
     atom   10 type  1   force =     0.00000000    0.00000000    0.00000000
     atom   11 type  2   force =    -0.00018346   -0.00004536    0.02062839
     atom   12 type  2   force =     0.00057142    0.00095377   -0.02086131
     atom   13 type  1   force =     0.00000000    0.00000000    0.00000000
     atom   14 type  2   force =     0.00006834    0.00026047    0.02091195
     atom   15 type  2   force =    -0.00006051    0.00054289   -0.02075363
     atom   16 type  1   force =     0.00000000    0.00000000    0.00000000
     atom   17 type  2   force =     0.00044300    0.00104359    0.02040354
     atom   18 type  2   force =    -0.00042820   -0.00008819   -0.02087623
     atom   19 type  1   force =     0.00000000    0.00000000    0.00000000
     atom   20 type  2   force =     0.00001836    0.00067287   -0.02089712
     atom   21 type  1   force =     0.00000000    0.00000000    0.00000000
     atom   22 type  2   force =     0.00019861   -0.00013113    0.02065374
     atom   23 type  2   force =    -0.00049044    0.00100693   -0.02087015
     atom   24 type  1   force =     0.00000000    0.00000000    0.00000000
     atom   25 type  2   force =     0.00000118    0.00056456    0.02088260
     atom   26 type  2   force =    -0.00018383    0.00055134   -0.02091765
     atom   27 type  1   force =     0.00000000    0.00000000    0.00000000
     atom   28 type  2   force =     0.00000031    0.00088161    0.02092650
     atom   29 type  2   force =    -0.00000948    0.00011650   -0.02079001
     atom   30 type  1   force =     0.00000000    0.00000000    0.00000000
     atom   31 type  2   force =     0.00053130    0.00013452    0.02077902
     atom   32 type  2   force =    -0.00047671    0.00058949   -0.02089127
     atom   33 type  1   force =     0.00000000    0.00000000    0.00000000
     atom   34 type  2   force =     0.00002897    0.00045103    0.02108704
     atom   35 type  2   force =    -0.00003584    0.00077504   -0.02091058
     atom   36 type  3   force =     0.00000000    0.00000000    0.00000000
     The Hubbard contrib.    to forces
     atom    1 type  1   force =     0.00000000    0.00000000    0.00000000
     atom    2 type  2   force =     0.00000000    0.00000000    0.00000000
     atom    3 type  2   force =     0.00000000    0.00000000    0.00000000
     atom    4 type  1   force =     0.00000000    0.00000000    0.00000000
     atom    5 type  2   force =     0.00000000    0.00000000    0.00000000
     atom    6 type  2   force =     0.00000000    0.00000000    0.00000000
     atom    7 type  1   force =     0.00000000    0.00000000    0.00000000
     atom    8 type  2   force =     0.00000000    0.00000000    0.00000000
     atom    9 type  2   force =     0.00000000    0.00000000    0.00000000
     atom   10 type  1   force =     0.00000000    0.00000000    0.00000000
     atom   11 type  2   force =     0.00000000    0.00000000    0.00000000
     atom   12 type  2   force =     0.00000000    0.00000000    0.00000000
     atom   13 type  1   force =     0.00000000    0.00000000    0.00000000
     atom   14 type  2   force =     0.00000000    0.00000000    0.00000000
     atom   15 type  2   force =     0.00000000    0.00000000    0.00000000
     atom   16 type  1   force =     0.00000000    0.00000000    0.00000000
     atom   17 type  2   force =     0.00000000    0.00000000    0.00000000
     atom   18 type  2   force =     0.00000000    0.00000000    0.00000000
     atom   19 type  1   force =     0.00000000    0.00000000    0.00000000
     atom   20 type  2   force =     0.00000000    0.00000000    0.00000000
     atom   21 type  1   force =     0.00000000    0.00000000    0.00000000
     atom   22 type  2   force =     0.00000000    0.00000000    0.00000000
     atom   23 type  2   force =     0.00000000    0.00000000    0.00000000
     atom   24 type  1   force =     0.00000000    0.00000000    0.00000000
     atom   25 type  2   force =     0.00000000    0.00000000    0.00000000
     atom   26 type  2   force =     0.00000000    0.00000000    0.00000000
     atom   27 type  1   force =     0.00000000    0.00000000    0.00000000
     atom   28 type  2   force =     0.00000000    0.00000000    0.00000000
     atom   29 type  2   force =     0.00000000    0.00000000    0.00000000
     atom   30 type  1   force =     0.00000000    0.00000000    0.00000000
     atom   31 type  2   force =     0.00000000    0.00000000    0.00000000
     atom   32 type  2   force =     0.00000000    0.00000000    0.00000000
     atom   33 type  1   force =     0.00000000    0.00000000    0.00000000
     atom   34 type  2   force =     0.00000000    0.00000000    0.00000000
     atom   35 type  2   force =     0.00000000    0.00000000    0.00000000
     atom   36 type  3   force =     0.00000000    0.00000000    0.00000000
     The SCF correction term to forces
     atom    1 type  1   force =     0.00006923   -0.00002019   -0.00002847
     atom    2 type  2   force =    -0.00002993    0.00002623   -0.00000862
     atom    3 type  2   force =    -0.00001605    0.00001525    0.00001464
     atom    4 type  1   force =    -0.00007071   -0.00000069   -0.00000827
     atom    5 type  2   force =    -0.00000935   -0.00001573    0.00002536
     atom    6 type  2   force =     0.00000653    0.00000657   -0.00003816
     atom    7 type  1   force =     0.00001011   -0.00004965    0.00001679
     atom    8 type  2   force =    -0.00002825   -0.00000195   -0.00001355
     atom    9 type  2   force =    -0.00003828   -0.00001728    0.00001379
     atom   10 type  1   force =    -0.00001969    0.00005282   -0.00004620
     atom   11 type  2   force =    -0.00001256   -0.00000167    0.00001457
     atom   12 type  2   force =     0.00000685    0.00002340   -0.00000676
     atom   13 type  1   force =     0.00002036    0.00000020    0.00002994
     atom   14 type  2   force =     0.00000488    0.00001904    0.00002220
     atom   15 type  2   force =     0.00000522    0.00001058   -0.00001773
     atom   16 type  1   force =    -0.00000597    0.00001746   -0.00002258
     atom   17 type  2   force =     0.00001118   -0.00000536   -0.00000000
     atom   18 type  2   force =     0.00000672    0.00000336   -0.00001162
     atom   19 type  1   force =     0.00000225   -0.00001457   -0.00001621
     atom   20 type  2   force =    -0.00000221   -0.00002832    0.00000147
     atom   21 type  1   force =     0.00002840    0.00003092   -0.00001618
     atom   22 type  2   force =    -0.00000730    0.00000843    0.00001816
     atom   23 type  2   force =    -0.00001145    0.00000165   -0.00001114
     atom   24 type  1   force =    -0.00004971   -0.00000710   -0.00002330
     atom   25 type  2   force =     0.00001161    0.00000501    0.00003285
     atom   26 type  2   force =    -0.00000124    0.00001797   -0.00002759
     atom   27 type  1   force =     0.00006833   -0.00002876    0.00002463
     atom   28 type  2   force =    -0.00000467   -0.00001000    0.00001858
     atom   29 type  2   force =    -0.00001170   -0.00002805   -0.00002098
     atom   30 type  1   force =    -0.00004333    0.00002116    0.00002245
     atom   31 type  2   force =     0.00003165   -0.00000205   -0.00000222
     atom   32 type  2   force =     0.00005295    0.00000201   -0.00000213
     atom   33 type  1   force =     0.00002919   -0.00001756    0.00000011
     atom   34 type  2   force =     0.00001457   -0.00000511    0.00000259
     atom   35 type  2   force =    -0.00000088    0.00001064    0.00000669
     atom   36 type  3   force =     0.00000085    0.00000392   -0.00000172

     Total force =     0.006748     Total SCF correction =     0.000240
     Energy error            =      9.1E-05 Ry
     Gradient error          =      2.3E-03 Ry/Bohr

     bfgs converged in  36 scf cycles and  35 bfgs steps
     (criteria: energy <  1.0E-04 Ry, force <  1.0E-02 Ry/Bohr)

     End of BFGS Geometry Optimization

     Final energy             =   -2205.7084421925 Ry

     File ./MoS2-V-O.bfgs deleted, as requested
Begin final coordinates

ATOMIC_POSITIONS (angstrom)
Mo            6.5756311732        1.7786686913        2.8038511147
S             8.1431662192        0.8737820244        4.4198200394
S             8.1615682609        0.8628145373        1.2280282725
Mo            8.1335993684        4.5136994543        2.7741681129
S             6.5365599943        3.6631908822        4.3627434225
S             6.5836210369        3.5806530800        1.1569395067
Mo            6.5343640310        7.2332439790        2.7309677236
S             8.0827860614        6.3333219685        4.3629883120
S             8.1535143254        6.3461176428        1.1751221495
Mo            8.1452645356        9.9637002259        2.8252636617
S             6.5378436630        9.0040197810        4.3902906422
S             6.6026958849        9.0734696803        1.1798655547
Mo            3.4350345436        1.7842290849        2.8095114859
S             5.0076492745        0.8483930123        4.3910848168
S             5.0004550358        0.8702843975        1.2094377989
Mo            5.0114592120        4.5335338117        2.6982102106
S             3.4762305200        3.6778028319        4.3578339485
S             3.4259557744        3.5867858805        1.1641341605
Mo            3.4656839864        7.2433533475        2.7215984943
S             5.0037046490        6.3492893868        1.0856903852
Mo            5.0019472764        9.9405811624        2.7821217564
S             3.4668310741        9.0057692887        4.3882854698
S             3.4029650401        9.0788076477        1.1744064439
Mo            0.2761750704        1.7696438216        2.8257030074
S             1.8653661353        0.8740334824        4.4232758183
S             1.8522582467        0.8679917015        1.2309709979
Mo            1.8697283789        4.5189124287        2.7736063310
S             0.2754721020        3.6337319977        4.3800744104
S             0.2737606230        3.5841122936        1.2078691191
Mo            0.2704812421        7.2346260405        2.8019014254
S             1.9141781720        6.3408435164        4.3590686075
S             1.8440137211        6.3489862070        1.1717525446
Mo            1.8602746975        9.9632894250        2.8241087695
S             0.2736253741        9.0537503754        4.4162913339
S             0.2710728655        9.0715648341        1.2313889016
H             4.9911649985        6.3598818209        3.6879480693
End final coordinates



     Writing all to output data dir ./MoS2-V-O.save/
 
     init_run     :      2.42s CPU      2.58s WALL (       1 calls)
     electrons    :   3131.56s CPU   3428.34s WALL (      36 calls)
     update_pot   :     49.35s CPU     51.40s WALL (      35 calls)
     forces       :     48.54s CPU     51.94s WALL (      36 calls)

     Called by init_run:
     wfcinit      :      0.39s CPU      0.43s WALL (       1 calls)
     potinit      :      1.34s CPU      1.43s WALL (       1 calls)
     hinit0       :      0.17s CPU      0.18s WALL (       1 calls)

     Called by electrons:
     c_bands      :    373.55s CPU    377.74s WALL (     291 calls)
     sum_band     :     93.63s CPU    102.22s WALL (     291 calls)
     v_of_rho     :    128.68s CPU    147.74s WALL (     320 calls)
     newd         :     51.06s CPU     57.38s WALL (     320 calls)
     mix_rho      :   2500.54s CPU   2757.42s WALL (     291 calls)

     Called by c_bands:
     init_us_2    :      6.42s CPU      6.64s WALL (     583 calls)
     init_us_2:cp :      6.41s CPU      6.64s WALL (     583 calls)
     regterg      :    352.63s CPU    356.51s WALL (     291 calls)

     Called by *egterg:
     rdiaghg      :     30.23s CPU     30.46s WALL (    1713 calls)
     h_psi        :    200.81s CPU    202.65s WALL (    1756 calls)
     s_psi        :     25.72s CPU     25.81s WALL (    1756 calls)
     g_psi        :      1.43s CPU      1.44s WALL (    1464 calls)

     Called by h_psi:
     h_psi:calbec :     27.84s CPU     27.95s WALL (    1756 calls)
     vloc_psi     :    144.46s CPU    146.05s WALL (    1756 calls)
     add_vuspsi   :     25.17s CPU     25.30s WALL (    1756 calls)

     General routines
     calbec       :     39.40s CPU     39.55s WALL (    2191 calls)
     fft          :     87.38s CPU    101.31s WALL (   21614 calls)
     ffts         :   1112.03s CPU   1360.12s WALL (  610611 calls)
     fftw         :    125.06s CPU    126.25s WALL (  185365 calls)
     interpolate  :      2.24s CPU      2.61s WALL (     320 calls)
 
     Parallel routines
 
     PWSCF        :  53m59.16s CPU  59m 3.97s WALL

 
   This run was terminated on:   7:16:42   4Nov2023            

=------------------------------------------------------------------------------=
   JOB DONE.
=------------------------------------------------------------------------------=
