
     Program PWSCF v.7.2 starts on  3Nov2023 at 23:35:33 

     This program is part of the open-source Quantum ESPRESSO suite
     for quantum simulation of materials; please cite
         "P. Giannozzi et al., J. Phys.:Condens. Matter 21 395502 (2009);
         "P. Giannozzi et al., J. Phys.:Condens. Matter 29 465901 (2017);
         "P. Giannozzi et al., J. Chem. Phys. 152 154105 (2020);
          URL http://www.quantum-espresso.org", 
     in publications or presentations arising from this work. More details at
     http://www.quantum-espresso.org/quote

     Parallel version (MPI & OpenMP), running on      48 processor cores
     Number of MPI processes:                48
     Threads/MPI process:                     1

     MPI processes distributed on     1 nodes
     148518 MiB available memory on the printing compute node when the environment starts
 
     Waiting for input...
     Reading input from standard input
Warning: card &CELL ignored
Warning: card CELL_DYNAMICS = 'BFGS', ignored
Warning: card CELL_DOFREE = '2DXY' ignored
Warning: card / ignored

     Current dimensions of program PWSCF are:
     Max number of different atomic species (ntypx) = 10
     Max number of k-points (npk) =  40000
     Max angular momentum in pseudopotentials (lmaxx) =  4

     IMPORTANT: XC functional enforced from input :
     Exchange-correlation= RVV10
                           (   1   4  13   4  26   0   0)
     Any further DFT definition will be discarded
     Please, verify this is what you really want


     gamma-point specific algorithms are used
     signal trapping enabled: kill the code with -SIGUSR1 to stop cleanly the simulation 
 
     R & G space division:  proc/nbgrp/npool/nimage =      48
     Subspace diagonalization in iterative solution of the eigenvalue problem:
     one sub-group per band group will be used
     scalapack distributed-memory algorithm (size of sub-group:  2*  2 procs)

 
     Parallelization info
     --------------------
     sticks:   dense  smooth     PW     G-vecs:    dense   smooth      PW
     Min         243     194     47                49060    35090    4376
     Max         246     196     50                49086    35128    4410
     Sum       11735    9389   2349              2355467  1685513  210763
 
     Using Slab Decomposition
 


     bravais-lattice index     =            0
     lattice parameter (alat)  =      17.8707  a.u.
     unit-cell volume          =   17436.2743 (a.u.)^3
     number of atoms/cell      =           36
     number of atomic types    =            3
     number of electrons       =       307.00
     number of Kohn-Sham states=          185
     kinetic-energy cutoff     =      80.0000  Ry
     charge density cutoff     =     400.0000  Ry
     scf convergence threshold =      1.0E-06
     mixing beta               =       0.7000
     number of iterations used =            8  local-TF  mixing
     energy convergence thresh.=      1.0E-04
     force convergence thresh. =      1.0E-02
     Exchange-correlation= RVV10
                           (   1   4  13   4  26   0   0)
     nstep                     =          200


     celldm(1)=  17.870686  celldm(2)=   0.000000  celldm(3)=   0.000000
     celldm(4)=   0.000000  celldm(5)=   0.000000  celldm(6)=   0.000000

     crystal axes: (cart. coord. in units of alat)
               a(1) = (   1.000000   0.000000   0.000000 )  
               a(2) = (   0.000000   1.155671   0.000000 )  
               a(3) = (   0.000000   0.000000   2.643601 )  

     reciprocal axes: (cart. coord. in units 2 pi/alat)
               b(1) = (  1.000000  0.000000  0.000000 )  
               b(2) = (  0.000000  0.865298  0.000000 )  
               b(3) = (  0.000000  0.000000  0.378272 )  


     PseudoPot. # 1 for Mo read from file:
     ../pseudo/Mo_ONCV_PBE-1.0.oncvpsp.upf
     MD5 check sum: 1b5d28e075c9ccadda658a603575cd1f
     Pseudo is Norm-conserving, Zval = 14.0
     Generated using ONCVPSP code by D. R. Hamann
     Using radial grid of 1526 points,  6 beta functions with: 
                l(1) =   0
                l(2) =   0
                l(3) =   1
                l(4) =   1
                l(5) =   2
                l(6) =   2

     PseudoPot. # 2 for S  read from file:
     ../pseudo/s_pbe_v1.4.uspp.F.UPF
     MD5 check sum: 88d86576ff6df21479756cfb9bdac1df
     Pseudo is Ultrasoft + core correction, Zval =  6.0
     Generated by new atomic code, or converted to UPF format
     Using radial grid of  907 points,  6 beta functions with: 
                l(1) =   0
                l(2) =   0
                l(3) =   1
                l(4) =   1
                l(5) =   2
                l(6) =   2
     Q(r) pseudized with  8 coefficients,  rinner =    1.300   1.300   1.300
                                                       1.300   1.300

     PseudoPot. # 3 for H  read from file:
     ../pseudo/H_ONCV_PBE-1.0.oncvpsp.upf
     MD5 check sum: 1790becc920ee074925cf490c71280fe
     Pseudo is Norm-conserving, Zval =  1.0
     Generated using ONCVPSP code by D. R. Hamann
     Using radial grid of 1166 points,  2 beta functions with: 
                l(1) =   0
                l(2) =   0

     atomic species   valence    mass     pseudopotential
        Mo            14.00    95.94000     Mo( 1.00)
        S              6.00    32.06500     S ( 1.00)
        H              1.00     1.00794     H ( 1.00)

     No symmetry found



   Cartesian axes

     site n.     atom                  positions (alat units)
         1           Mo  tau(   1) = (   0.6952221   0.1890506   0.2985846  )
         2           S   tau(   2) = (   0.8646417   0.0856217   0.4689279  )
         3           S   tau(   3) = (   0.8663890   0.0857843   0.1351291  )
         4           Mo  tau(   4) = (   0.8560186   0.4753274   0.2873942  )
         5           S   tau(   5) = (   0.6873294   0.3936244   0.4596353  )
         6           S   tau(   6) = (   0.6929804   0.3713468   0.1185692  )
         7           Mo  tau(   7) = (   0.6862796   0.7633098   0.2825370  )
         8           S   tau(   8) = (   0.8545980   0.6708292   0.4486168  )
         9           S   tau(   9) = (   0.8545123   0.6666874   0.1146125  )
        10           Mo  tau(  10) = (   0.8629403   1.0471007   0.3006803  )
        11           S   tau(  11) = (   0.6868280   0.9456650   0.4634891  )
        12           S   tau(  12) = (   0.6998113   0.9568511   0.1205389  )
        13           Mo  tau(  13) = (   0.3618216   0.1847309   0.2935964  )
        14           S   tau(  14) = (   0.5260962   0.0863870   0.4600448  )
        15           S   tau(  15) = (   0.5348379   0.0894875   0.1297123  )
        16           Mo  tau(  16) = (   0.5265817   0.4772436   0.2784130  )
        17           S   tau(  17) = (   0.3624753   0.3882513   0.4525556  )
        18           S   tau(  18) = (   0.3635411   0.3752055   0.1119148  )
        19           Mo  tau(  19) = (   0.3652268   0.7630864   0.2781795  )
        20           S   tau(  20) = (   0.5269494   0.6690381   0.1096838  )
        21           Mo  tau(  21) = (   0.5300192   1.0470394   0.2900995  )
        22           S   tau(  22) = (   0.3670346   0.9457522   0.4574073  )
        23           S   tau(  23) = (   0.3604225   0.9585725   0.1159032  )
        24           Mo  tau(  24) = (   0.0313099   0.1847895   0.3013130  )
        25           S   tau(  25) = (   0.1956761   0.0838230   0.4650863  )
        26           S   tau(  26) = (   0.1967693   0.0903508   0.1278874  )
        27           Mo  tau(  27) = (   0.1967578   0.4753919   0.2813011  )
        28           S   tau(  28) = (   0.0287851   0.3864324   0.4586755  )
        29           S   tau(  29) = (   0.0244514   0.3729871   0.1239344  )
        30           Mo  tau(  30) = (   0.0286728   0.7631204   0.2856894  )
        31           S   tau(  31) = (   0.2011512   0.6675435   0.4465001  )
        32           S   tau(  32) = (   0.1969214   0.6672839   0.1104564  )
        33           Mo  tau(  33) = (   0.1950294   1.0511147   0.2932237  )
        34           S   tau(  34) = (   0.0312912   0.9612169   0.4667423  )
        35           S   tau(  35) = (   0.0292670   0.9563028   0.1216485  )
        36           H   tau(  36) = (   0.7777778   0.2568157   0.5407634  )

     number of k points=     1  Gaussian smearing, width (Ry)=  0.0100
                       cart. coord. in units 2pi/alat
        k(    1) = (   0.0000000   0.0000000   0.0000000), wk =   2.0000000

     Dense  grid:  1177734 G-vectors     FFT dimensions: ( 120, 135, 320)

     Smooth grid:   842757 G-vectors     FFT dimensions: ( 108, 120, 270)

     Estimated max dynamical RAM per process >     146.59 MB

     Estimated total dynamical RAM >       6.87 GB

     Initial potential from superposition of free atoms

     starting charge     306.9873, renormalised to     307.0000

     negative rho (up, down):  1.418E-04 0.000E+00


---------------------------------------------------------------------------------
Carrying out rVV10 run using the following parameters:
Nqs =      20    Nr_points =    1024   r_max =   100.000
b_value =  6.30000    beta =  0.00901
     q_mesh =  0.00010000  0.00030000  0.00058939  0.00100810
               0.00161396  0.00249058  0.00375900  0.00559430
               0.00824984  0.01209221  0.01765183  0.02569619
               0.03733578  0.05417739  0.07854596  0.11380545
               0.16482331  0.23864234  0.34545298  0.50000000

Gradients computed in Reciprocal space

---------------------------------------------------------------------------------


     Starting wfcs are  213 randomized atomic wfcs

     total cpu time spent up to now is        2.8 secs

     Self-consistent Calculation

     iteration #  1     ecut=    80.00 Ry     beta= 0.70
     Davidson diagonalization with overlap
     ethr =  1.00E-02,  avg # of iterations =  2.0

     Threshold (ethr) on eigenvalues was too large:
     Diagonalizing with lowered threshold

     Davidson diagonalization with overlap
     ethr =  3.71E-04,  avg # of iterations =  4.0

     negative rho (up, down):  2.437E-08 0.000E+00

     total cpu time spent up to now is       21.4 secs

     total energy              =   -2205.58438676 Ry
     estimated scf accuracy    <       1.42983245 Ry

     iteration #  2     ecut=    80.00 Ry     beta= 0.70
     Davidson diagonalization with overlap
     ethr =  4.66E-04,  avg # of iterations =  2.0

     total cpu time spent up to now is       23.8 secs

     total energy              =   -2205.41924757 Ry
     estimated scf accuracy    <       0.57304255 Ry

     iteration #  3     ecut=    80.00 Ry     beta= 0.70
     Davidson diagonalization with overlap
     ethr =  1.87E-04,  avg # of iterations =  5.0

     total cpu time spent up to now is       26.4 secs

     total energy              =   -2205.51523401 Ry
     estimated scf accuracy    <       0.04711466 Ry

     iteration #  4     ecut=    80.00 Ry     beta= 0.70
     Davidson diagonalization with overlap
     c_bands:  1 eigenvalues not converged
     ethr =  1.53E-05,  avg # of iterations = 20.0

     total cpu time spent up to now is       30.2 secs

     total energy              =   -2205.51695616 Ry
     estimated scf accuracy    <       0.02461234 Ry

     iteration #  5     ecut=    80.00 Ry     beta= 0.70
     Davidson diagonalization with overlap
     ethr =  8.02E-06,  avg # of iterations =  2.0

     total cpu time spent up to now is       32.5 secs

     total energy              =   -2205.51657753 Ry
     estimated scf accuracy    <       0.01797025 Ry

     iteration #  6     ecut=    80.00 Ry     beta= 0.70
     Davidson diagonalization with overlap
     ethr =  5.85E-06,  avg # of iterations =  1.0

     total cpu time spent up to now is       34.6 secs

     total energy              =   -2205.51550130 Ry
     estimated scf accuracy    <       0.01123774 Ry

     iteration #  7     ecut=    80.00 Ry     beta= 0.70
     Davidson diagonalization with overlap
     ethr =  3.66E-06,  avg # of iterations =  2.0

     total cpu time spent up to now is       38.2 secs

     total energy              =   -2205.51417840 Ry
     estimated scf accuracy    <       0.00660151 Ry

     iteration #  8     ecut=    80.00 Ry     beta= 0.70
     Davidson diagonalization with overlap
     ethr =  2.15E-06,  avg # of iterations =  2.0

     negative rho (up, down):  8.308E-03 0.000E+00

     total cpu time spent up to now is       43.4 secs

     total energy              =   -2205.51353399 Ry
     estimated scf accuracy    <       0.00364684 Ry

     iteration #  9     ecut=    80.00 Ry     beta= 0.70
     Davidson diagonalization with overlap
     ethr =  1.19E-06,  avg # of iterations =  2.0

     negative rho (up, down):  2.689E-02 0.000E+00

     total cpu time spent up to now is       47.8 secs

     total energy              =   -2205.51344485 Ry
     estimated scf accuracy    <       0.00210163 Ry

     iteration # 10     ecut=    80.00 Ry     beta= 0.70
     Davidson diagonalization with overlap
     ethr =  6.85E-07,  avg # of iterations =  2.0

     negative rho (up, down):  2.746E-02 0.000E+00

     total cpu time spent up to now is       51.6 secs

     total energy              =   -2205.51353880 Ry
     estimated scf accuracy    <       0.00086323 Ry

     iteration # 11     ecut=    80.00 Ry     beta= 0.70
     Davidson diagonalization with overlap
     ethr =  2.81E-07,  avg # of iterations =  2.0

     negative rho (up, down):  1.572E-02 0.000E+00

     total cpu time spent up to now is       57.3 secs

     total energy              =   -2205.51358489 Ry
     estimated scf accuracy    <       0.00015813 Ry

     iteration # 12     ecut=    80.00 Ry     beta= 0.70
     Davidson diagonalization with overlap
     ethr =  5.15E-08,  avg # of iterations =  5.0

     negative rho (up, down):  4.887E-03 0.000E+00

     total cpu time spent up to now is       62.9 secs

     total energy              =   -2205.51365334 Ry
     estimated scf accuracy    <       0.00003253 Ry

     iteration # 13     ecut=    80.00 Ry     beta= 0.70
     Davidson diagonalization with overlap
     ethr =  1.06E-08,  avg # of iterations =  9.0

     negative rho (up, down):  9.788E-04 0.000E+00

     total cpu time spent up to now is       70.9 secs

     total energy              =   -2205.51366010 Ry
     estimated scf accuracy    <       0.00000450 Ry

     iteration # 14     ecut=    80.00 Ry     beta= 0.70
     Davidson diagonalization with overlap
     ethr =  1.46E-09,  avg # of iterations =  4.0

     negative rho (up, down):  1.375E-04 0.000E+00

     total cpu time spent up to now is       73.0 secs

     End of self-consistent calculation

          k = 0.0000 0.0000 0.0000 (105382 PWs)   bands (ev):

   -62.8722 -62.8624 -62.8535 -62.8466 -62.8401 -62.8316 -62.8279 -62.8002
   -62.7722 -62.7422 -62.6732 -62.6549 -37.2146 -37.1476 -37.1320 -37.1306
   -37.1201 -37.1007 -37.0804 -37.0687 -37.0578 -37.0534 -37.0398 -37.0341
   -37.0322 -37.0289 -37.0230 -37.0164 -37.0089 -37.0012 -36.9945 -36.9846
   -36.9436 -36.9288 -36.9205 -36.9148 -36.8916 -36.8825 -36.8758 -36.8693
   -36.8641 -36.8408 -36.8287 -36.8234 -36.8145 -36.7914 -36.6707 -36.6302
   -16.0435 -15.3447 -15.1523 -15.0376 -14.9421 -14.8711 -14.6540 -14.5299
   -14.4806 -14.4273 -14.3932 -14.3488 -14.3291 -14.2929 -14.1941 -14.1371
   -14.1036 -14.0916 -14.0206 -13.9085 -13.8313 -13.8203 -13.7865  -8.3697
    -7.5924  -7.4525  -7.2995  -7.2662  -7.2549  -7.1871  -7.1777  -6.9858
    -6.8186  -6.7842  -6.7543  -6.6714  -6.6426  -6.5141  -6.4643  -6.4251
    -6.3447  -6.2448  -6.0541  -5.9799  -5.9235  -5.9069  -5.8632  -5.7904
    -5.7675  -5.7164  -5.7002  -5.6477  -5.5978  -5.5433  -5.5397  -5.4744
    -5.4135  -5.3716  -5.2063  -5.1568  -5.1028  -5.0297  -4.9777  -4.9718
    -4.9183  -4.8111  -4.6639  -4.5194  -4.3672  -4.3301  -4.2942  -4.2177
    -4.2035  -4.0593  -4.0288  -3.8321  -3.8174  -3.8040  -3.7398  -3.6767
    -3.6445  -3.5892  -3.5597  -3.5048  -3.4809  -3.4674  -3.4347  -3.3830
    -3.3573  -3.1994  -3.1419  -2.9080  -2.8737  -2.8120  -2.7850  -2.7192
    -2.7032  -2.6610  -2.6495  -2.6034  -2.5564  -2.2583  -2.0406  -1.9957
    -1.8823  -0.8856  -0.7518  -0.5980  -0.1828  -0.1391  -0.1192  -0.0440
     0.0291   0.1414   0.1676   0.2299   0.2675   0.2791   0.3749   0.4647
     0.4865   0.5348   0.5605   0.6097   0.6262   0.6777   0.7094   0.7282
     0.7737   0.8014   0.8373   0.9229   0.9387   0.9996   1.0167   1.2292
     1.3813

     the Fermi energy is    -0.9006 ev

!    total energy              =   -2205.51366324 Ry
     estimated scf accuracy    <       0.00000090 Ry
     smearing contrib. (-TS)   =      -0.00732101 Ry
     internal energy E=F+TS    =   -2205.50634223 Ry

     The total energy is F=E-TS. E is the sum of the following terms:
     one-electron contribution =  -18054.32710827 Ry
     hartree contribution      =    9014.01848407 Ry
     xc contribution           =    -385.27384884 Ry
     ewald contribution        =    7220.07613081 Ry

     convergence has been achieved in  14 iterations

     negative rho (up, down):  1.375E-04 0.000E+00

     Forces acting on atoms (cartesian axes, Ry/au):

     atom    1 type  1   force =    -0.00608689   -0.03557852   -0.02959876
     atom    2 type  2   force =    -0.01240303    0.04465574    0.02987300
     atom    3 type  2   force =    -0.01100754    0.00813792   -0.00404761
     atom    4 type  1   force =     0.00975340   -0.00154735   -0.00217696
     atom    5 type  2   force =     0.04230758   -0.03872901    0.03874189
     atom    6 type  2   force =     0.00184387    0.01026982   -0.00004366
     atom    7 type  1   force =     0.00037197   -0.01573675   -0.00775163
     atom    8 type  2   force =     0.00104017   -0.00337255    0.01848163
     atom    9 type  2   force =     0.01390959    0.00753849    0.00946528
     atom   10 type  1   force =    -0.01558654    0.00088831   -0.04028755
     atom   11 type  2   force =     0.00379368   -0.00284516   -0.00607143
     atom   12 type  2   force =    -0.00002429    0.00176624    0.00692308
     atom   13 type  1   force =     0.00633567    0.00680932   -0.01004102
     atom   14 type  2   force =     0.00775767    0.00020441    0.01124593
     atom   15 type  2   force =    -0.01088835    0.00417942   -0.00693940
     atom   16 type  1   force =    -0.01058501    0.01223206   -0.01191904
     atom   17 type  2   force =     0.00419692    0.00232374   -0.00010699
     atom   18 type  2   force =    -0.00017924   -0.00674527    0.01433905
     atom   19 type  1   force =     0.00209086   -0.00079573   -0.00844449
     atom   20 type  2   force =     0.00080303   -0.00625498    0.00251552
     atom   21 type  1   force =    -0.00376769    0.00720824    0.00011068
     atom   22 type  2   force =    -0.00207520   -0.00296338   -0.00320698
     atom   23 type  2   force =    -0.00031921    0.00106305    0.01094551
     atom   24 type  1   force =    -0.00835261   -0.00112182   -0.02106334
     atom   25 type  2   force =     0.01706640    0.01874252    0.00762053
     atom   26 type  2   force =    -0.00979223   -0.00142066   -0.00421685
     atom   27 type  1   force =    -0.00619780    0.00072819    0.00852542
     atom   28 type  2   force =     0.00001044   -0.00108827   -0.00632036
     atom   29 type  2   force =     0.00202264    0.00070176   -0.00396005
     atom   30 type  1   force =    -0.00438840    0.00913679   -0.00561090
     atom   31 type  2   force =     0.00116679   -0.00027618    0.01786864
     atom   32 type  2   force =    -0.00921921    0.00468716    0.00834530
     atom   33 type  1   force =     0.01324138   -0.00394009   -0.01047132
     atom   34 type  2   force =     0.00352559   -0.04403260   -0.00993992
     atom   35 type  2   force =    -0.00915672    0.00692810    0.01604889
     atom   36 type  3   force =    -0.01120768    0.01824704   -0.00883208
     The non-local contrib.  to forces
     atom    1 type  1   force =    -0.00136726    0.03075080   -0.00805532
     atom    2 type  2   force =    -0.05473269    0.09755680   -0.18619468
     atom    3 type  2   force =    -0.01415386   -0.00345346    0.27307875
     atom    4 type  1   force =    -0.00918633    0.01045043    0.00692935
     atom    5 type  2   force =     0.11402673   -0.18643750   -0.10553825
     atom    6 type  2   force =    -0.00150059    0.00981486    0.26388547
     atom    7 type  1   force =    -0.02670034    0.00062545   -0.01741288
     atom    8 type  2   force =     0.00213501   -0.00202668   -0.25330113
     atom    9 type  2   force =     0.00858614   -0.01179995    0.27878575
     atom   10 type  1   force =     0.01032109   -0.00529900   -0.00816440
     atom   11 type  2   force =     0.01172803    0.00395028   -0.25934696
     atom   12 type  2   force =    -0.00835716   -0.01645750    0.26408369
     atom   13 type  1   force =    -0.00271502    0.01908645   -0.00863745
     atom   14 type  2   force =     0.01126494   -0.00951298   -0.25470805
     atom   15 type  2   force =    -0.01137984   -0.00317055    0.26169607
     atom   16 type  1   force =     0.00938205    0.04306037   -0.02781571
     atom   17 type  2   force =    -0.00658368   -0.02854365   -0.24120046
     atom   18 type  2   force =     0.00375296    0.00064602    0.27549283
     atom   19 type  1   force =     0.02019730   -0.00456526   -0.00704002
     atom   20 type  2   force =     0.00054980   -0.02340795    0.26560675
     atom   21 type  1   force =     0.00040711    0.01807132    0.00605927
     atom   22 type  2   force =    -0.00717148    0.00563244   -0.25793592
     atom   23 type  2   force =     0.00647430   -0.01348437    0.26765819
     atom   24 type  1   force =     0.00661557    0.01407055   -0.01068742
     atom   25 type  2   force =     0.01062887    0.00712082   -0.25869328
     atom   26 type  2   force =    -0.00084242   -0.01270212    0.26368438
     atom   27 type  1   force =    -0.00093513    0.01250307    0.00979996
     atom   28 type  2   force =    -0.00548862   -0.02656622   -0.27050573
     atom   29 type  2   force =     0.00555049    0.00273491    0.26200089
     atom   30 type  1   force =     0.00323010    0.01691135    0.00935152
     atom   31 type  2   force =    -0.00806899    0.00071037   -0.25200281
     atom   32 type  2   force =    -0.00525022   -0.01138322    0.27337348
     atom   33 type  1   force =    -0.00551035    0.00504437    0.00749228
     atom   34 type  2   force =     0.00000708   -0.03755871   -0.27195087
     atom   35 type  2   force =    -0.00366383   -0.01202370    0.27174399
     atom   36 type  3   force =    -0.00598781    0.00729065   -0.01192939
     The ionic contribution  to forces
     atom    1 type  1   force =     0.02670102   -0.08100627    4.68553763
     atom    2 type  2   force =    -0.29827559   -0.32592017   38.99909765
     atom    3 type  2   force =    -0.13677396   -0.04268239  -36.18575136
     atom    4 type  1   force =     0.23707716    1.00617955    0.25261153
     atom    5 type  2   force =    -1.50665465    2.32209391   38.28285066
     atom    6 type  2   force =     0.31905381   -0.46043969  -38.13644087
     atom    7 type  1   force =    -2.64765418   -2.69464188    2.54537960
     atom    8 type  2   force =    -0.95591474    0.16841274   37.37637492
     atom    9 type  2   force =     0.34999848    0.00178470  -38.02056300
     atom   10 type  1   force =    -1.03425208   -0.58166663    5.54788214
     atom   11 type  2   force =    -0.58744560   -1.69222683   39.14141225
     atom   12 type  2   force =     0.43522096    0.66546011  -37.86270576
     atom   13 type  1   force =     0.35406920    0.92741052    2.75099642
     atom   14 type  2   force =    -0.19972011   -0.20202403   38.45124092
     atom   15 type  2   force =     0.11517026   -0.10287383  -36.86140702
     atom   16 type  1   force =    -0.22770582    4.16588606    0.30342828
     atom   17 type  2   force =     0.72728515    1.55861884   37.91937987
     atom   18 type  2   force =    -0.17951866   -0.62843767  -38.58994051
     atom   19 type  1   force =     2.69205309   -2.40126637    0.67554416
     atom   20 type  2   force =     0.21295036   -0.16912877  -38.48257094
     atom   21 type  1   force =    -0.06446106   -0.11641327    1.11344743
     atom   22 type  2   force =     0.43854144   -1.74989949   38.44457353
     atom   23 type  2   force =    -0.09342677    0.65073293  -38.28027853
     atom   24 type  1   force =    -0.15676060    1.00590978    5.49357280
     atom   25 type  2   force =     0.72978255    0.21142876   39.26366434
     atom   26 type  2   force =    -0.27114061    0.04002397  -37.35331861
     atom   27 type  1   force =     0.10322610    0.52227772   -2.30941562
     atom   28 type  2   force =     0.37505027    1.18908010   38.11638940
     atom   29 type  2   force =    -0.21989597   -0.39923430  -37.33015959
     atom   30 type  1   force =    -0.28575814   -0.83865166   -0.03216226
     atom   31 type  2   force =     1.24749031   -0.00377072   37.33735877
     atom   32 type  2   force =    -0.47328780    0.01524339  -38.62912037
     atom   33 type  1   force =     0.83922438   -0.95826401    2.06441842
     atom   34 type  2   force =     0.28244320   -1.50610986   39.36223854
     atom   35 type  2   force =    -0.28573325    0.45717109  -37.81373667
     atom   36 type  3   force =     0.13904185    0.04694367    7.76017184
     The local contribution  to forces
     atom    1 type  1   force =    -0.03154365    0.01466631   -4.70657019
     atom    2 type  2   force =     0.33771387    0.27868193  -38.79919134
     atom    3 type  2   force =     0.13926394    0.05420095   35.93031962
     atom    4 type  1   force =    -0.21812430   -1.01769744   -0.26117819
     atom    5 type  2   force =     1.44205608   -2.18550295  -38.15051155
     atom    6 type  2   force =    -0.31600165    0.46211883   37.89404415
     atom    7 type  1   force =     2.67500336    2.67863205   -2.53536863
     atom    8 type  2   force =     0.95480352   -0.17014287  -37.12512868
     atom    9 type  2   force =    -0.34456269    0.01695558   37.77298212
     atom   10 type  1   force =     1.00833011    0.58740124   -5.57906363
     atom   11 type  2   force =     0.58003851    1.68584622  -38.90890225
     atom   12 type  2   force =    -0.42793049   -0.64893305   37.62714429
     atom   13 type  1   force =    -0.34499273   -0.93968911   -2.75169177
     atom   14 type  2   force =     0.19694149    0.21174663  -38.20556856
     atom   15 type  2   force =    -0.11529669    0.10997591   36.61406898
     atom   16 type  1   force =     0.20763296   -4.19684150   -0.28734098
     atom   17 type  2   force =    -0.71686592   -1.52917717  -37.69828822
     atom   18 type  2   force =     0.17591443    0.62188150   38.35043741
     atom   19 type  1   force =    -2.71035633    2.40544003   -0.67660805
     atom   20 type  2   force =    -0.21278479    0.18552196   38.24120137
     atom   21 type  1   force =     0.06028260    0.10484171   -1.11847761
     atom   22 type  2   force =    -0.43362082    1.74185453  -38.21044698
     atom   23 type  2   force =     0.08719322   -0.63762637   38.04513726
     atom   24 type  1   force =     0.14179640   -1.02115997   -5.50306230
     atom   25 type  2   force =    -0.72327009   -0.19941791  -39.01800156
     atom   26 type  2   force =     0.26247817   -0.02946437   37.10696361
     atom   27 type  1   force =    -0.10852288   -0.53361188    2.30876148
     atom   28 type  2   force =    -0.37003229   -1.16546846  -37.87302346
     atom   29 type  2   force =     0.21690074    0.39802322   37.08531130
     atom   30 type  1   force =     0.27818804    0.83084475    0.01781304
     atom   31 type  2   force =    -1.23881547    0.00281728  -37.08808013
     atom   32 type  2   force =     0.46936792    0.00019719   38.38570022
     atom   33 type  1   force =    -0.82043157    0.94880748   -2.08148257
     atom   34 type  2   force =    -0.27929220    1.49850664  -39.12134617
     atom   35 type  2   force =     0.28031520   -0.43948752   37.57981971
     atom   36 type  3   force =    -0.14424243   -0.03600012   -7.75705946
     The core correction contribution to forces
     atom    1 type  1   force =     0.00000000    0.00000000    0.00000000
     atom    2 type  2   force =     0.00298006   -0.00582497    0.01607752
     atom    3 type  2   force =     0.00063318    0.00006183   -0.02104086
     atom    4 type  1   force =     0.00000000    0.00000000    0.00000000
     atom    5 type  2   force =    -0.00706974    0.01122379    0.01173788
     atom    6 type  2   force =     0.00024523   -0.00101504   -0.02092119
     atom    7 type  1   force =     0.00000000    0.00000000    0.00000000
     atom    8 type  2   force =     0.00002428    0.00049255    0.02030688
     atom    9 type  2   force =    -0.00020132    0.00067262   -0.02108303
     atom   10 type  1   force =     0.00000000    0.00000000    0.00000000
     atom   11 type  2   force =    -0.00057103   -0.00053258    0.02058935
     atom   12 type  2   force =     0.00095351    0.00133996   -0.02087031
     atom   13 type  1   force =     0.00000000    0.00000000    0.00000000
     atom   14 type  2   force =    -0.00076166   -0.00015613    0.02017660
     atom   15 type  2   force =     0.00062105    0.00023327   -0.02061142
     atom   16 type  1   force =     0.00000000    0.00000000    0.00000000
     atom   17 type  2   force =     0.00028836    0.00149270    0.01982209
     atom   18 type  2   force =    -0.00028698   -0.00061239   -0.02108786
     atom   19 type  1   force =     0.00000000    0.00000000    0.00000000
     atom   20 type  2   force =     0.00008253    0.00089343   -0.02117040
     atom   21 type  1   force =     0.00000000    0.00000000    0.00000000
     atom   22 type  2   force =     0.00018230   -0.00062291    0.02046201
     atom   23 type  2   force =    -0.00054653    0.00113661   -0.02086363
     atom   24 type  1   force =     0.00000000    0.00000000    0.00000000
     atom   25 type  2   force =    -0.00011163   -0.00052030    0.02058092
     atom   26 type  2   force =    -0.00025058    0.00066880   -0.02087410
     atom   27 type  1   force =     0.00000000    0.00000000    0.00000000
     atom   28 type  2   force =     0.00050610    0.00196388    0.02069544
     atom   29 type  2   force =    -0.00051652   -0.00059518   -0.02050270
     atom   30 type  1   force =     0.00000000    0.00000000    0.00000000
     atom   31 type  2   force =     0.00049727    0.00009142    0.02043221
     atom   32 type  2   force =     0.00002244    0.00071299   -0.02100428
     atom   33 type  1   force =     0.00000000    0.00000000    0.00000000
     atom   34 type  2   force =     0.00040148    0.00107832    0.02103935
     atom   35 type  2   force =    -0.00000640    0.00102876   -0.02111934
     atom   36 type  3   force =     0.00000000    0.00000000    0.00000000
     The Hubbard contrib.    to forces
     atom    1 type  1   force =     0.00000000    0.00000000    0.00000000
     atom    2 type  2   force =     0.00000000    0.00000000    0.00000000
     atom    3 type  2   force =     0.00000000    0.00000000    0.00000000
     atom    4 type  1   force =     0.00000000    0.00000000    0.00000000
     atom    5 type  2   force =     0.00000000    0.00000000    0.00000000
     atom    6 type  2   force =     0.00000000    0.00000000    0.00000000
     atom    7 type  1   force =     0.00000000    0.00000000    0.00000000
     atom    8 type  2   force =     0.00000000    0.00000000    0.00000000
     atom    9 type  2   force =     0.00000000    0.00000000    0.00000000
     atom   10 type  1   force =     0.00000000    0.00000000    0.00000000
     atom   11 type  2   force =     0.00000000    0.00000000    0.00000000
     atom   12 type  2   force =     0.00000000    0.00000000    0.00000000
     atom   13 type  1   force =     0.00000000    0.00000000    0.00000000
     atom   14 type  2   force =     0.00000000    0.00000000    0.00000000
     atom   15 type  2   force =     0.00000000    0.00000000    0.00000000
     atom   16 type  1   force =     0.00000000    0.00000000    0.00000000
     atom   17 type  2   force =     0.00000000    0.00000000    0.00000000
     atom   18 type  2   force =     0.00000000    0.00000000    0.00000000
     atom   19 type  1   force =     0.00000000    0.00000000    0.00000000
     atom   20 type  2   force =     0.00000000    0.00000000    0.00000000
     atom   21 type  1   force =     0.00000000    0.00000000    0.00000000
     atom   22 type  2   force =     0.00000000    0.00000000    0.00000000
     atom   23 type  2   force =     0.00000000    0.00000000    0.00000000
     atom   24 type  1   force =     0.00000000    0.00000000    0.00000000
     atom   25 type  2   force =     0.00000000    0.00000000    0.00000000
     atom   26 type  2   force =     0.00000000    0.00000000    0.00000000
     atom   27 type  1   force =     0.00000000    0.00000000    0.00000000
     atom   28 type  2   force =     0.00000000    0.00000000    0.00000000
     atom   29 type  2   force =     0.00000000    0.00000000    0.00000000
     atom   30 type  1   force =     0.00000000    0.00000000    0.00000000
     atom   31 type  2   force =     0.00000000    0.00000000    0.00000000
     atom   32 type  2   force =     0.00000000    0.00000000    0.00000000
     atom   33 type  1   force =     0.00000000    0.00000000    0.00000000
     atom   34 type  2   force =     0.00000000    0.00000000    0.00000000
     atom   35 type  2   force =     0.00000000    0.00000000    0.00000000
     atom   36 type  3   force =     0.00000000    0.00000000    0.00000000
     The SCF correction term to forces
     atom    1 type  1   force =     0.00012350    0.00000686   -0.00049053
     atom    2 type  2   force =    -0.00008819    0.00015837    0.00010420
     atom    3 type  2   force =     0.00002365    0.00000722   -0.00063341
     atom    4 type  1   force =    -0.00001264   -0.00048368   -0.00051930
     atom    5 type  2   force =    -0.00005035   -0.00011003    0.00022349
     atom    6 type  2   force =     0.00004757   -0.00021291   -0.00059088
     atom    7 type  1   force =    -0.00027639   -0.00035615   -0.00032937
     atom    8 type  2   force =    -0.00000740   -0.00011207    0.00024998
     atom    9 type  2   force =     0.00008948   -0.00007823   -0.00063621
     atom   10 type  1   force =     0.00001484    0.00044892   -0.00092132
     atom   11 type  2   force =     0.00004425    0.00011396    0.00019652
     atom   12 type  2   force =     0.00008939    0.00035294   -0.00070847
     atom   13 type  1   force =    -0.00002529   -0.00000231   -0.00068787
     atom   14 type  2   force =     0.00003351    0.00014714    0.00012538
     atom   15 type  2   force =    -0.00000263    0.00001085   -0.00066567
     atom   16 type  1   force =     0.00010630    0.00012335   -0.00017027
     atom   17 type  2   force =     0.00007351   -0.00007077    0.00020009
     atom   18 type  2   force =    -0.00004049   -0.00022651   -0.00054248
     atom   19 type  1   force =     0.00019729   -0.00040791   -0.00032023
     atom   20 type  2   force =     0.00000562   -0.00013742   -0.00053091
     atom   21 type  1   force =     0.00000415    0.00070471   -0.00089806
     atom   22 type  2   force =    -0.00000614    0.00006827    0.00016072
     atom   23 type  2   force =    -0.00001294    0.00030048   -0.00068743
     atom   24 type  1   force =    -0.00000348    0.00005404   -0.00086608
     atom   25 type  2   force =     0.00003720    0.00012737    0.00009046
     atom   26 type  2   force =    -0.00003630    0.00004927   -0.00065180
     atom   27 type  1   force =     0.00003461   -0.00044449   -0.00060005
     atom   28 type  2   force =    -0.00002452   -0.00010134    0.00014433
     atom   29 type  2   force =    -0.00001560   -0.00023067   -0.00058960
     atom   30 type  1   force =    -0.00004789    0.00002857   -0.00059286
     atom   31 type  2   force =     0.00006418   -0.00012830    0.00018095
     atom   32 type  2   force =    -0.00007105   -0.00008696   -0.00058341
     atom   33 type  1   force =    -0.00004058    0.00046829   -0.00087909
     atom   34 type  2   force =    -0.00003348    0.00004723    0.00009958
     atom   35 type  2   force =    -0.00006795    0.00023568   -0.00063845
     atom   36 type  3   force =    -0.00001879    0.00000906    0.00000528

     Total force =     0.142777     Total SCF correction =     0.003544

     BFGS Geometry Optimization
     Energy error            =      0.0E+00 Ry
     Gradient error          =      4.5E-02 Ry/Bohr

     number of scf cycles    =   1
     number of bfgs steps    =   0

     energy             new  =   -2205.5136632445 Ry

     new trust radius        =       0.0692156173 bohr
     new conv_thr            =       0.0000010000 Ry


ATOMIC_POSITIONS (angstrom)
Mo            6.5713273651        1.7689788868        2.8079800433
S             8.1701459369        0.8333348238        4.4503464608
S             8.1874081487        0.8155481464        1.2757415246
Mo            8.1003238411        4.4942381204        2.7166663979
S             6.5222974647        3.7019169779        4.3671619735
S             6.5543255300        3.5171721097        1.1212571249
Mo            6.4901785329        7.2101097528        2.6677824999
S             8.0822781602        6.3420863161        4.2522416194
S             8.0882782832        6.3086915153        1.0888718090
Mo            8.1523710066        9.9026504871        2.8221425052
S             6.4971751235        8.9414212182        4.3798926707
S             6.6179343468        9.0496458666        1.1435708388
Mo            3.4250123550        1.7505591899        2.7711576859
S             4.9792706710        0.8170493764        4.3564841825
S             5.0520718891        0.8484737624        1.2229862874
Mo            4.9741553329        4.5196509314        2.6265772671
S             3.4300625777        3.6728293546        4.2796529608
S             3.4378257329        3.5446592548        1.0659395802
Mo            3.4549681737        7.2159034537        2.6262082308
S             4.9836591385        6.3236222950        1.0385848862
Mo            5.0102701456        9.9054144877        2.7434595291
S             3.4698599695        8.9421831142        4.3238942503
S             3.4082602447        9.0655525265        1.1018604153
Mo            0.2916704753        1.7469158906        2.8382984678
S             1.8594933638        0.8026121224        4.4022420478
S             1.8556182109        0.8536741354        1.2071693912
Mo            1.8574115744        4.4960521053        2.6647088403
S             0.2722193760        3.6538229392        4.3342395102
S             0.2323015451        3.5276205812        1.1699223158
Mo            0.2688299114        7.2214810749        2.6987272682
S             1.9028556870        6.3126526895        4.2318997973
S             1.8573596176        6.3128241520        1.0489754249
Mo            1.8513536993        9.9380541492        2.7674050700
S             0.2977785589        9.0666967783        4.4086094853
S             0.2719258726        9.0471919079        1.1588934848
H             7.3493269275        2.4383003611        5.1091957295



     Writing config-only to output data dir ./MoS2-V-O.save/
     NEW-OLD atomic charge density approx. for the potential

     negative rho (up, down):  1.468E-04 0.000E+00

     total cpu time spent up to now is       76.3 secs

     Self-consistent Calculation

     iteration #  1     ecut=    80.00 Ry     beta= 0.70
     Davidson diagonalization with overlap
     ethr =  1.00E-06,  avg # of iterations =  8.0

     negative rho (up, down):  1.386E-04 0.000E+00

     total cpu time spent up to now is       91.2 secs

     total energy              =   -2205.53044768 Ry
     estimated scf accuracy    <       0.00186183 Ry

     iteration #  2     ecut=    80.00 Ry     beta= 0.70
     Davidson diagonalization with overlap
     ethr =  6.06E-07,  avg # of iterations =  3.0

     negative rho (up, down):  1.449E-04 0.000E+00

     total cpu time spent up to now is      109.2 secs

     total energy              =   -2205.53049900 Ry
     estimated scf accuracy    <       0.00039600 Ry

     iteration #  3     ecut=    80.00 Ry     beta= 0.70
     Davidson diagonalization with overlap
     ethr =  1.29E-07,  avg # of iterations =  5.0

     negative rho (up, down):  1.524E-04 0.000E+00

     total cpu time spent up to now is      129.6 secs

     total energy              =   -2205.53052906 Ry
     estimated scf accuracy    <       0.00010409 Ry

     iteration #  4     ecut=    80.00 Ry     beta= 0.70
     Davidson diagonalization with overlap
     ethr =  3.39E-08,  avg # of iterations =  4.0

     negative rho (up, down):  1.495E-04 0.000E+00

     total cpu time spent up to now is      149.6 secs

     total energy              =   -2205.53054737 Ry
     estimated scf accuracy    <       0.00000836 Ry

     iteration #  5     ecut=    80.00 Ry     beta= 0.70
     Davidson diagonalization with overlap
     ethr =  2.72E-09,  avg # of iterations =  5.0

     negative rho (up, down):  1.411E-04 0.000E+00

     total cpu time spent up to now is      161.8 secs

     total energy              =   -2205.53054978 Ry
     estimated scf accuracy    <       0.00000284 Ry

     iteration #  6     ecut=    80.00 Ry     beta= 0.70
     Davidson diagonalization with overlap
     ethr =  9.25E-10,  avg # of iterations =  2.0

     negative rho (up, down):  1.382E-04 0.000E+00

     total cpu time spent up to now is      163.8 secs

     End of self-consistent calculation

          k = 0.0000 0.0000 0.0000 (105382 PWs)   bands (ev):

   -62.8699 -62.8588 -62.8509 -62.8486 -62.8434 -62.8296 -62.8238 -62.7967
   -62.7660 -62.7416 -62.6748 -62.6420 -37.2119 -37.1426 -37.1299 -37.1277
   -37.1163 -37.0957 -37.0784 -37.0666 -37.0550 -37.0483 -37.0385 -37.0337
   -37.0301 -37.0273 -37.0223 -37.0141 -37.0052 -36.9973 -36.9908 -36.9805
   -36.9427 -36.9265 -36.9179 -36.9117 -36.8896 -36.8815 -36.8705 -36.8674
   -36.8636 -36.8370 -36.8246 -36.8176 -36.8053 -36.7875 -36.6699 -36.6223
   -16.0424 -15.3556 -15.1393 -15.0432 -14.9250 -14.8739 -14.6475 -14.5055
   -14.4766 -14.4250 -14.3934 -14.3505 -14.3245 -14.2965 -14.1959 -14.1325
   -14.1087 -14.0944 -14.0246 -13.8914 -13.8291 -13.8139 -13.8030  -8.4092
    -7.5931  -7.4457  -7.2929  -7.2660  -7.2268  -7.1907  -7.1785  -6.9981
    -6.8173  -6.7833  -6.7510  -6.6516  -6.6399  -6.5081  -6.4660  -6.4222
    -6.3321  -6.2325  -6.0362  -5.9756  -5.9148  -5.8954  -5.8581  -5.7827
    -5.7633  -5.7178  -5.6989  -5.6487  -5.6029  -5.5484  -5.5346  -5.4668
    -5.3952  -5.3486  -5.2102  -5.1312  -5.0832  -5.0126  -4.9846  -4.9729
    -4.9261  -4.8156  -4.6624  -4.5202  -4.3565  -4.3163  -4.2884  -4.2180
    -4.2150  -4.0705  -4.0323  -3.8376  -3.8116  -3.7989  -3.7379  -3.6759
    -3.6566  -3.5773  -3.5697  -3.5087  -3.4757  -3.4727  -3.4256  -3.3791
    -3.3526  -3.1983  -3.1568  -2.8999  -2.8703  -2.7971  -2.7744  -2.7086
    -2.6994  -2.6734  -2.6567  -2.6061  -2.5538  -2.2495  -2.0463  -2.0002
    -1.8990  -0.8864  -0.7489  -0.5779  -0.1584  -0.1421  -0.1256  -0.0416
     0.0399   0.1388   0.1608   0.2515   0.2765   0.2987   0.3737   0.4627
     0.5056   0.5439   0.5636   0.6083   0.6348   0.6810   0.7081   0.7257
     0.7865   0.7958   0.8429   0.9185   0.9540   1.0144   1.0275   1.2337
     1.3900

     the Fermi energy is    -0.9005 ev

!    total energy              =   -2205.53054994 Ry
     estimated scf accuracy    <       0.00000084 Ry
     smearing contrib. (-TS)   =      -0.00723335 Ry
     internal energy E=F+TS    =   -2205.52331659 Ry

     The total energy is F=E-TS. E is the sum of the following terms:
     one-electron contribution =  -18051.86180339 Ry
     hartree contribution      =    9012.79185258 Ry
     xc contribution           =    -385.27305471 Ry
     ewald contribution        =    7218.81968893 Ry

     convergence has been achieved in   6 iterations

     negative rho (up, down):  1.382E-04 0.000E+00

     Forces acting on atoms (cartesian axes, Ry/au):

     atom    1 type  1   force =    -0.00411068   -0.01859812   -0.01506480
     atom    2 type  2   force =    -0.01057376    0.03049476    0.01590537
     atom    3 type  2   force =    -0.00944656    0.00554820   -0.01202805
     atom    4 type  1   force =     0.00763462   -0.00119961    0.00289690
     atom    5 type  2   force =     0.03347982   -0.03779367    0.02713052
     atom    6 type  2   force =     0.00072274    0.00780609    0.00005377
     atom    7 type  1   force =     0.00111489   -0.01271340   -0.00115007
     atom    8 type  2   force =     0.00062494   -0.00380739    0.01220541
     atom    9 type  2   force =     0.01175260    0.00560605    0.00578580
     atom   10 type  1   force =    -0.00656362    0.00576944   -0.01260329
     atom   11 type  2   force =     0.00377089   -0.00255446   -0.00941634
     atom   12 type  2   force =    -0.00304077   -0.00043736    0.00127292
     atom   13 type  1   force =     0.00516695    0.00439372   -0.00299081
     atom   14 type  2   force =     0.00576476    0.00036653    0.00572715
     atom   15 type  2   force =    -0.01219290    0.00065967   -0.01187025
     atom   16 type  1   force =    -0.00071733    0.00514303   -0.00028949
     atom   17 type  2   force =     0.00497927    0.00300981   -0.00064191
     atom   18 type  2   force =    -0.00134317   -0.00317617    0.00932535
     atom   19 type  1   force =    -0.00035374   -0.00186928   -0.00239535
     atom   20 type  2   force =    -0.00032585   -0.00452446   -0.00302561
     atom   21 type  1   force =    -0.00288455    0.00443079    0.00361154
     atom   22 type  2   force =    -0.00094171   -0.00250830   -0.00375323
     atom   23 type  2   force =     0.00094995    0.00096742    0.00512372
     atom   24 type  1   force =    -0.00559894   -0.00033691   -0.00721318
     atom   25 type  2   force =     0.01182536    0.01454562   -0.00032217
     atom   26 type  2   force =    -0.00654749   -0.00141725   -0.00568733
     atom   27 type  1   force =    -0.00395490    0.00029127    0.00799465
     atom   28 type  2   force =     0.00092552   -0.00169861   -0.00708366
     atom   29 type  2   force =     0.00179653    0.00145068   -0.00588879
     atom   30 type  1   force =    -0.00234293    0.00173964    0.00310779
     atom   31 type  2   force =     0.00069328    0.00093787    0.01180986
     atom   32 type  2   force =    -0.00832027    0.00395879    0.00609703
     atom   33 type  1   force =     0.00547510   -0.00082160    0.00041224
     atom   34 type  2   force =    -0.00049824   -0.03152591   -0.01615480
     atom   35 type  2   force =    -0.00635952    0.00714843    0.00761255
     atom   36 type  3   force =    -0.01056027    0.02071468   -0.00849344
     The non-local contrib.  to forces
     atom    1 type  1   force =    -0.00121670    0.02529208   -0.00723711
     atom    2 type  2   force =    -0.04985610    0.08746028   -0.19345452
     atom    3 type  2   force =    -0.01289267   -0.00617652    0.26822787
     atom    4 type  1   force =    -0.00836739    0.01105379    0.00420258
     atom    5 type  2   force =     0.11594215   -0.18905582   -0.11018371
     atom    6 type  2   force =    -0.00205929    0.00607776    0.26618584
     atom    7 type  1   force =    -0.02782979    0.00076560   -0.01958664
     atom    8 type  2   force =     0.00178498   -0.00257034   -0.25722616
     atom    9 type  2   force =     0.00667556   -0.01293325    0.27644883
     atom   10 type  1   force =     0.00899310   -0.00697899   -0.01078736
     atom   11 type  2   force =     0.00955500    0.00299192   -0.26181746
     atom   12 type  2   force =    -0.01011647   -0.01845043    0.26161041
     atom   13 type  1   force =    -0.00096805    0.02069465   -0.00953032
     atom   14 type  2   force =     0.00898131   -0.00966578   -0.25619086
     atom   15 type  2   force =    -0.01227075   -0.00597850    0.25738505
     atom   16 type  1   force =     0.00787792    0.04573683   -0.03174033
     atom   17 type  2   force =    -0.00711346   -0.02729023   -0.24152677
     atom   18 type  2   force =     0.00299639    0.00358463    0.27316053
     atom   19 type  1   force =     0.02165504   -0.00322631   -0.00754394
     atom   20 type  2   force =    -0.00070703   -0.02167706    0.26258700
     atom   21 type  1   force =     0.00027267    0.01905412    0.00361070
     atom   22 type  2   force =    -0.00537054    0.00603717   -0.25854902
     atom   23 type  2   force =     0.00700070   -0.01389831    0.26425072
     atom   24 type  1   force =     0.00483271    0.01465223   -0.01153941
     atom   25 type  2   force =     0.00713994    0.00395192   -0.26360855
     atom   26 type  2   force =     0.00160918   -0.01205307    0.26341140
     atom   27 type  1   force =    -0.00147265    0.01229248    0.00835036
     atom   28 type  2   force =    -0.00477377   -0.02620633   -0.27210855
     atom   29 type  2   force =     0.00514181    0.00197463    0.26206970
     atom   30 type  1   force =     0.00299992    0.01841765    0.00853388
     atom   31 type  2   force =    -0.00842660    0.00096710   -0.25658072
     atom   32 type  2   force =    -0.00367152   -0.01142173    0.27239202
     atom   33 type  1   force =    -0.00348629    0.00334317    0.00509245
     atom   34 type  2   force =    -0.00257787   -0.02794371   -0.27693988
     atom   35 type  2   force =    -0.00249727   -0.01156115    0.26763545
     atom   36 type  3   force =    -0.00712986    0.00952069   -0.01305716
     The ionic contribution  to forces
     atom    1 type  1   force =     0.01161267    0.37679602    4.11384505
     atom    2 type  2   force =    -0.15004830   -0.54269322   39.09642504
     atom    3 type  2   force =    -0.03437276   -0.01263070  -36.25675948
     atom    4 type  1   force =    -0.06919739    0.96166071    0.33259585
     atom    5 type  2   force =    -1.66423341    2.36455481   38.22898775
     atom    6 type  2   force =     0.31202232   -0.41979637  -37.99554034
     atom    7 type  1   force =    -2.64745555   -2.63840150    2.57356770
     atom    8 type  2   force =    -0.99730037    0.17575641   37.47466977
     atom    9 type  2   force =     0.32448572   -0.04700342  -37.97630905
     atom   10 type  1   force =    -0.70870123   -0.42237655    5.14602047
     atom   11 type  2   force =    -0.51982923   -1.68735543   39.10229416
     atom   12 type  2   force =     0.31956803    0.55828462  -37.84442261
     atom   13 type  1   force =     0.23369792    0.89861412    2.72312971
     atom   14 type  2   force =    -0.24056413   -0.15354403   38.56164784
     atom   15 type  2   force =     0.02925430   -0.12245022  -36.97480256
     atom   16 type  1   force =     0.13547006    3.88713333    0.40514156
     atom   17 type  2   force =     0.80078065    1.53989066   37.92934247
     atom   18 type  2   force =    -0.22288102   -0.58263166  -38.52080220
     atom   19 type  1   force =     2.64162789   -2.42362465    0.59693091
     atom   20 type  2   force =     0.20962468   -0.13836470  -38.52431116
     atom   21 type  1   force =    -0.08464444   -0.26697358    1.34815451
     atom   22 type  2   force =     0.43638329   -1.74933777   38.47454887
     atom   23 type  2   force =    -0.06948378    0.62253307  -38.26078525
     atom   24 type  1   force =    -0.04844723    0.75268192    5.26191378
     atom   25 type  2   force =     0.59961961    0.14379873   39.22820314
     atom   26 type  2   force =    -0.25080220    0.03756876  -37.31109397
     atom   27 type  1   force =     0.15682190    0.56003662   -1.99190549
     atom   28 type  2   force =     0.39213790    1.10711300   38.10667957
     atom   29 type  2   force =    -0.19178795   -0.35635060  -37.36642265
     atom   30 type  1   force =    -0.23549444   -0.93608666    0.00234782
     atom   31 type  2   force =     1.26312065    0.02847219   37.41616103
     atom   32 type  2   force =    -0.45407672   -0.02471788  -38.57002163
     atom   33 type  1   force =     0.57947753   -0.72106721    2.18238234
     atom   34 type  2   force =     0.18845384   -1.24080080   39.25651661
     atom   35 type  2   force =    -0.19844074    0.46188076  -37.73436154
     atom   36 type  3   force =     0.15360190    0.00943122    7.76603201
     The local contribution  to forces
     atom    1 type  1   force =    -0.01460393   -0.42133756   -4.12282433
     atom    2 type  2   force =     0.18647141    0.49117123  -38.90368655
     atom    3 type  2   force =     0.03710744    0.02402669   35.99704755
     atom    4 type  1   force =     0.08531954   -0.97350408   -0.33491081
     atom    5 type  2   force =     1.58933439   -2.22512661  -38.10334960
     atom    6 type  2   force =    -0.30946199    0.42222511   37.74990564
     atom    7 type  1   force =     2.67648783    2.62524334   -2.55592780
     atom    8 type  2   force =     0.99608428   -0.17725999  -37.22613401
     atom    9 type  2   force =    -0.31934070    0.06502864   37.72643426
     atom   10 type  1   force =     0.69304070    0.43472300   -5.14899464
     atom   11 type  2   force =     0.51446678    1.68222731  -38.87101915
     atom   12 type  2   force =    -0.31344405   -0.54163090   37.60461702
     atom   13 type  1   force =    -0.22753255   -0.91541048   -2.71752817
     atom   14 type  2   force =     0.23796604    0.16352364  -38.32045282
     atom   15 type  2   force =    -0.02978243    0.12861203   36.72568820
     atom   16 type  1   force =    -0.14426243   -3.92738313   -0.37497483
     atom   17 type  2   force =    -0.78911194   -1.51108358  -37.70860390
     atom   18 type  2   force =     0.21877307    0.57649014   38.27759231
     atom   19 type  1   force =    -2.66365611    2.42546459   -0.59264960
     atom   20 type  2   force =    -0.20931048    0.15489632   38.27945786
     atom   21 type  1   force =     0.08146567    0.25223531   -1.34918576
     atom   22 type  2   force =    -0.43206214    1.74149178  -38.24064933
     atom   23 type  2   force =     0.06400369   -0.60873510   38.02207357
     atom   24 type  1   force =     0.03816035   -0.76812609   -5.25856906
     atom   25 type  2   force =    -0.59489474   -0.13294312  -38.98602979
     atom   26 type  2   force =     0.24303259   -0.02771388   37.06247800
     atom   27 type  1   force =    -0.15943075   -0.57176130    1.99061866
     atom   28 type  2   force =    -0.38684431   -1.08444356  -37.86285140
     atom   29 type  2   force =     0.18892418    0.35632238   37.11855819
     atom   30 type  1   force =     0.23009361    0.91973530   -0.00853123
     atom   31 type  2   force =    -1.25457219   -0.02845314  -37.16869172
     atom   32 type  2   force =     0.44942936    0.03957078   38.32437420
     atom   33 type  1   force =    -0.57041356    0.71680361   -2.18802688
     atom   34 type  2   force =    -0.18679790    1.23634522  -39.01731911
     atom   35 type  2   force =     0.19458080   -0.44416898   37.49503431
     atom   36 type  3   force =    -0.15702878    0.00173613   -7.76155430
     The core correction contribution to forces
     atom    1 type  1   force =     0.00000000    0.00000000    0.00000000
     atom    2 type  2   force =     0.00285082   -0.00557799    0.01622498
     atom    3 type  2   force =     0.00065449    0.00021286   -0.02095217
     atom    4 type  1   force =     0.00000000    0.00000000    0.00000000
     atom    5 type  2   force =    -0.00746727    0.01171438    0.01140419
     atom    6 type  2   force =     0.00028018   -0.00080648   -0.02095712
     atom    7 type  1   force =     0.00000000    0.00000000    0.00000000
     atom    8 type  2   force =     0.00004794    0.00053137    0.02042755
     atom    9 type  2   force =    -0.00009592    0.00068581   -0.02104581
     atom   10 type  1   force =     0.00000000    0.00000000    0.00000000
     atom   11 type  2   force =    -0.00040851   -0.00049117    0.02065945
     atom   12 type  2   force =     0.00090817    0.00135709   -0.02080921
     atom   13 type  1   force =     0.00000000    0.00000000    0.00000000
     atom   14 type  2   force =    -0.00067817   -0.00009807    0.02025312
     atom   15 type  2   force =     0.00058311    0.00031861   -0.02051779
     atom   16 type  1   force =     0.00000000    0.00000000    0.00000000
     atom   17 type  2   force =     0.00034900    0.00140869    0.01983678
     atom   18 type  2   force =    -0.00030687   -0.00072594   -0.02104755
     atom   19 type  1   force =     0.00000000    0.00000000    0.00000000
     atom   20 type  2   force =     0.00013776    0.00085976   -0.02111772
     atom   21 type  1   force =     0.00000000    0.00000000    0.00000000
     atom   22 type  2   force =     0.00009863   -0.00067814    0.02050596
     atom   23 type  2   force =    -0.00052664    0.00114262   -0.02079041
     atom   24 type  1   force =     0.00000000    0.00000000    0.00000000
     atom   25 type  2   force =     0.00000034   -0.00040425    0.02069827
     atom   26 type  2   force =    -0.00033309    0.00063218   -0.02085153
     atom   27 type  1   force =     0.00000000    0.00000000    0.00000000
     atom   28 type  2   force =     0.00047527    0.00186716    0.02080727
     atom   29 type  2   force =    -0.00046056   -0.00051483   -0.02054389
     atom   30 type  1   force =     0.00000000    0.00000000    0.00000000
     atom   31 type  2   force =     0.00051512    0.00013337    0.02054353
     atom   32 type  2   force =    -0.00005400    0.00067049   -0.02096750
     atom   33 type  1   force =     0.00000000    0.00000000    0.00000000
     atom   34 type  2   force =     0.00043152    0.00079648    0.02119548
     atom   35 type  2   force =     0.00000918    0.00100735   -0.02101652
     atom   36 type  3   force =     0.00000000    0.00000000    0.00000000
     The Hubbard contrib.    to forces
     atom    1 type  1   force =     0.00000000    0.00000000    0.00000000
     atom    2 type  2   force =     0.00000000    0.00000000    0.00000000
     atom    3 type  2   force =     0.00000000    0.00000000    0.00000000
     atom    4 type  1   force =     0.00000000    0.00000000    0.00000000
     atom    5 type  2   force =     0.00000000    0.00000000    0.00000000
     atom    6 type  2   force =     0.00000000    0.00000000    0.00000000
     atom    7 type  1   force =     0.00000000    0.00000000    0.00000000
     atom    8 type  2   force =     0.00000000    0.00000000    0.00000000
     atom    9 type  2   force =     0.00000000    0.00000000    0.00000000
     atom   10 type  1   force =     0.00000000    0.00000000    0.00000000
     atom   11 type  2   force =     0.00000000    0.00000000    0.00000000
     atom   12 type  2   force =     0.00000000    0.00000000    0.00000000
     atom   13 type  1   force =     0.00000000    0.00000000    0.00000000
     atom   14 type  2   force =     0.00000000    0.00000000    0.00000000
     atom   15 type  2   force =     0.00000000    0.00000000    0.00000000
     atom   16 type  1   force =     0.00000000    0.00000000    0.00000000
     atom   17 type  2   force =     0.00000000    0.00000000    0.00000000
     atom   18 type  2   force =     0.00000000    0.00000000    0.00000000
     atom   19 type  1   force =     0.00000000    0.00000000    0.00000000
     atom   20 type  2   force =     0.00000000    0.00000000    0.00000000
     atom   21 type  1   force =     0.00000000    0.00000000    0.00000000
     atom   22 type  2   force =     0.00000000    0.00000000    0.00000000
     atom   23 type  2   force =     0.00000000    0.00000000    0.00000000
     atom   24 type  1   force =     0.00000000    0.00000000    0.00000000
     atom   25 type  2   force =     0.00000000    0.00000000    0.00000000
     atom   26 type  2   force =     0.00000000    0.00000000    0.00000000
     atom   27 type  1   force =     0.00000000    0.00000000    0.00000000
     atom   28 type  2   force =     0.00000000    0.00000000    0.00000000
     atom   29 type  2   force =     0.00000000    0.00000000    0.00000000
     atom   30 type  1   force =     0.00000000    0.00000000    0.00000000
     atom   31 type  2   force =     0.00000000    0.00000000    0.00000000
     atom   32 type  2   force =     0.00000000    0.00000000    0.00000000
     atom   33 type  1   force =     0.00000000    0.00000000    0.00000000
     atom   34 type  2   force =     0.00000000    0.00000000    0.00000000
     atom   35 type  2   force =     0.00000000    0.00000000    0.00000000
     atom   36 type  3   force =     0.00000000    0.00000000    0.00000000
     The SCF correction term to forces
     atom    1 type  1   force =     0.00009626    0.00065109    0.00113582
     atom    2 type  2   force =     0.00000739    0.00013421    0.00038066
     atom    3 type  2   force =     0.00005591    0.00011562    0.00039242
     atom    4 type  1   force =    -0.00012117   -0.00041027    0.00099353
     atom    5 type  2   force =    -0.00009708    0.00011932    0.00025612
     atom    6 type  2   force =    -0.00005951    0.00010582    0.00044397
     atom    7 type  1   force =    -0.00008862   -0.00032109    0.00078091
     atom    8 type  2   force =     0.00000708   -0.00026508    0.00045250
     atom    9 type  2   force =     0.00002691   -0.00017198    0.00024181
     atom   10 type  1   force =     0.00010278    0.00040174    0.00114248
     atom   11 type  2   force =    -0.00001416    0.00007265    0.00045091
     atom   12 type  2   force =     0.00004253    0.00000201    0.00026155
     atom   13 type  1   force =    -0.00003140    0.00049518    0.00092221
     atom   14 type  2   force =     0.00005868    0.00015052    0.00045411
     atom   15 type  2   force =     0.00002184    0.00015751    0.00036110
     atom   16 type  1   force =     0.00019610   -0.00034425    0.00126835
     atom   17 type  2   force =     0.00007399    0.00008402    0.00029376
     atom   18 type  2   force =     0.00007423    0.00010640    0.00040650
     atom   19 type  1   force =     0.00001842   -0.00048315    0.00085152
     atom   20 type  2   force =    -0.00007181   -0.00023904    0.00034265
     atom   21 type  1   force =     0.00002053    0.00011470    0.00101633
     atom   22 type  2   force =     0.00000803   -0.00002159    0.00037454
     atom   23 type  2   force =    -0.00004505   -0.00007511    0.00035933
     atom   24 type  1   force =    -0.00014580    0.00045478    0.00096574
     atom   25 type  2   force =    -0.00004082    0.00014209    0.00039901
     atom   26 type  2   force =    -0.00005500    0.00014851    0.00035301
     atom   27 type  1   force =     0.00012556   -0.00027678    0.00091536
     atom   28 type  2   force =    -0.00007060   -0.00002913    0.00037370
     atom   29 type  2   force =    -0.00002197    0.00001885    0.00043410
     atom   30 type  1   force =     0.00005695   -0.00032691    0.00074157
     atom   31 type  2   force =     0.00005528   -0.00018190    0.00036199
     atom   32 type  2   force =     0.00005158   -0.00014312    0.00030417
     atom   33 type  1   force =    -0.00010361    0.00009858    0.00094858
     atom   34 type  2   force =    -0.00000885    0.00007665    0.00037635
     atom   35 type  2   force =    -0.00001252   -0.00000980    0.00030508
     atom   36 type  3   force =    -0.00000455    0.00002640    0.00007026

     Total force =     0.100830     Total SCF correction =     0.004151
     Energy error            =      1.7E-02 Ry
     Gradient error          =      3.8E-02 Ry/Bohr

     number of scf cycles    =   2
     number of bfgs steps    =   1

     energy             old  =   -2205.5136632445 Ry
     energy             new  =   -2205.5305499372 Ry

     CASE: energy            _new < energy            _old

     new trust radius        =       0.0761371791 bohr
     new conv_thr            =       0.0000000378 Ry


ATOMIC_POSITIONS (angstrom)
Mo            6.5683049015        1.7543820614        2.7960669414
S             8.1627446231        0.8556994463        4.4627662939
S             8.1808042494        0.8196186749        1.2684763574
Mo            8.1057593813        4.4933823487        2.7180546449
S             6.5460805461        3.6761052561        4.3869460327
S             6.5549456831        3.5227638365        1.1212825170
Mo            6.4908515820        7.2011162467        2.6662430642
S             8.0827508251        6.3395466936        4.2612627526
S             8.0965189439        6.3127259962        1.0932289391
Mo            8.1468719297        9.9060145311        2.8103951056
S             6.4997424177        8.9396505181        4.3738720672
S             6.6162122525        9.0496011758        1.1450846972
Mo            3.4286605865        1.7538245585        2.7683148498
S             4.9834200286        0.8172800667        4.3610124068
S             5.0439288287        0.8493261641        1.2154786351
Mo            4.9725355616        4.5239619994        2.6250463831
S             3.4333593642        3.6747977077        4.2792777416
S             3.4370457195        3.5420896595        1.0728570938
Mo            3.4550080009        7.2147552522        2.6238852154
S             4.9835670077        6.3203465900        1.0371626968
Mo            5.0082069879        9.9087465728        2.7455142541
S             3.4690894716        8.9404249562        4.3214042437
S             3.4087607470        9.0662214616        1.1060129870
Mo            0.2875466292        1.7465967159        2.8318038870
S             1.8681372749        0.8129863803        4.4029340178
S             1.8507929026        0.8527098361        1.2034699665
Mo            1.8544644690        4.4963003256        2.6702070864
S             0.2727438771        3.6527376812        4.3295092920
S             0.2335493502        3.5285213176        1.1661384416
Mo            0.2670017938        7.2235127534        2.6998408608
S             1.9033815208        6.3131512992        4.2406269697
S             1.8515976760        6.3156001763        1.0533800593
Mo            1.8559682998        9.9371376459        2.7664370249
S             0.2979012572        9.0438206026        4.3983350859
S             0.2672797417        9.0520284657        1.1650386832
H             7.3420703580        2.4521058811        5.1033802811



     Writing config-only to output data dir ./MoS2-V-O.save/
     NEW-OLD atomic charge density approx. for the potential

     negative rho (up, down):  1.479E-04 0.000E+00

     total cpu time spent up to now is      167.2 secs

     Self-consistent Calculation

     iteration #  1     ecut=    80.00 Ry     beta= 0.70
     Davidson diagonalization with overlap
     ethr =  1.00E-06,  avg # of iterations =  8.0

     negative rho (up, down):  1.156E-04 0.000E+00

     total cpu time spent up to now is      181.5 secs

     total energy              =   -2205.54215590 Ry
     estimated scf accuracy    <       0.00108039 Ry

     iteration #  2     ecut=    80.00 Ry     beta= 0.70
     Davidson diagonalization with overlap
     ethr =  3.52E-07,  avg # of iterations =  5.0

     negative rho (up, down):  9.807E-05 0.000E+00

     total cpu time spent up to now is      197.0 secs

     total energy              =   -2205.54220387 Ry
     estimated scf accuracy    <       0.00019828 Ry

     iteration #  3     ecut=    80.00 Ry     beta= 0.70
     Davidson diagonalization with overlap
     ethr =  6.46E-08,  avg # of iterations =  6.0

     negative rho (up, down):  8.606E-05 0.000E+00

     total cpu time spent up to now is      213.2 secs

     total energy              =   -2205.54222413 Ry
     estimated scf accuracy    <       0.00004912 Ry

     iteration #  4     ecut=    80.00 Ry     beta= 0.70
     Davidson diagonalization with overlap
     ethr =  1.60E-08,  avg # of iterations =  4.0

     negative rho (up, down):  8.294E-05 0.000E+00

     total cpu time spent up to now is      233.5 secs

     total energy              =   -2205.54223250 Ry
     estimated scf accuracy    <       0.00000347 Ry

     iteration #  5     ecut=    80.00 Ry     beta= 0.70
     Davidson diagonalization with overlap
     ethr =  1.13E-09,  avg # of iterations = 11.0

     negative rho (up, down):  8.438E-05 0.000E+00

     total cpu time spent up to now is      247.9 secs

     total energy              =   -2205.54223427 Ry
     estimated scf accuracy    <       0.00000146 Ry

     iteration #  6     ecut=    80.00 Ry     beta= 0.70
     Davidson diagonalization with overlap
     ethr =  4.75E-10,  avg # of iterations =  3.0

     negative rho (up, down):  8.923E-05 0.000E+00

     total cpu time spent up to now is      261.3 secs

     total energy              =   -2205.54223435 Ry
     estimated scf accuracy    <       0.00000023 Ry

     iteration #  7     ecut=    80.00 Ry     beta= 0.70
     Davidson diagonalization with overlap
     ethr =  7.44E-11,  avg # of iterations =  5.0

     negative rho (up, down):  9.431E-05 0.000E+00

     total cpu time spent up to now is      273.7 secs

     total energy              =   -2205.54223435 Ry
     estimated scf accuracy    <       0.00000006 Ry

     iteration #  8     ecut=    80.00 Ry     beta= 0.70
     Davidson diagonalization with overlap
     ethr =  1.99E-11,  avg # of iterations =  2.0

     negative rho (up, down):  1.386E-04 0.000E+00

     total cpu time spent up to now is      275.6 secs

     End of self-consistent calculation

          k = 0.0000 0.0000 0.0000 (105382 PWs)   bands (ev):

   -62.8697 -62.8555 -62.8526 -62.8470 -62.8427 -62.8278 -62.8205 -62.7925
   -62.7593 -62.7424 -62.6759 -62.6299 -37.2099 -37.1397 -37.1298 -37.1241
   -37.1129 -37.0914 -37.0776 -37.0649 -37.0526 -37.0445 -37.0409 -37.0301
   -37.0283 -37.0254 -37.0184 -37.0114 -37.0017 -36.9933 -36.9866 -36.9756
   -36.9413 -36.9239 -36.9155 -36.9100 -36.8882 -36.8828 -36.8655 -36.8642
   -36.8630 -36.8336 -36.8203 -36.8113 -36.7992 -36.7803 -36.6667 -36.6138
   -16.0485 -15.3894 -15.1287 -15.0521 -14.9086 -14.8748 -14.6451 -14.4809
   -14.4714 -14.4215 -14.4006 -14.3521 -14.3166 -14.2950 -14.1959 -14.1243
   -14.1147 -14.0906 -14.0254 -13.8871 -13.8274 -13.8193 -13.7948  -8.4746
    -7.5924  -7.4423  -7.2842  -7.2656  -7.2051  -7.1909  -7.1754  -7.0075
    -6.8161  -6.7852  -6.7468  -6.6434  -6.6279  -6.5042  -6.4653  -6.4192
    -6.3219  -6.2218  -6.0310  -5.9711  -5.9089  -5.8951  -5.8456  -5.7778
    -5.7565  -5.7165  -5.6901  -5.6382  -5.6079  -5.5541  -5.5290  -5.4610
    -5.3800  -5.3364  -5.2170  -5.1092  -5.0616  -5.0002  -4.9920  -4.9665
    -4.9304  -4.8172  -4.6570  -4.5170  -4.3581  -4.3052  -4.2873  -4.2248
    -4.2129  -4.0723  -4.0320  -3.8513  -3.8017  -3.7857  -3.7341  -3.6842
    -3.6569  -3.5758  -3.5634  -3.5113  -3.4754  -3.4711  -3.4212  -3.3702
    -3.3471  -3.1989  -3.1673  -2.8940  -2.8694  -2.7849  -2.7685  -2.7067
    -2.6908  -2.6811  -2.6593  -2.6014  -2.5505  -2.2449  -2.0487  -2.0016
    -1.9075  -0.8884  -0.7416  -0.5628  -0.1496  -0.1388  -0.1312  -0.0396
     0.0508   0.1360   0.1579   0.2583   0.2872   0.3150   0.3714   0.4557
     0.5170   0.5433   0.5688   0.6122   0.6426   0.6825   0.7096   0.7298
     0.7868   0.8020   0.8563   0.9151   0.9570   1.0184   1.0384   1.2364
     1.3945

     the Fermi energy is    -0.9004 ev

!    total energy              =   -2205.54223416 Ry
     estimated scf accuracy    <       0.00000003 Ry
     smearing contrib. (-TS)   =      -0.00705545 Ry
     internal energy E=F+TS    =   -2205.53517871 Ry

     The total energy is F=E-TS. E is the sum of the following terms:
     one-electron contribution =  -18049.05083706 Ry
     hartree contribution      =    9011.42034015 Ry
     xc contribution           =    -385.27604606 Ry
     ewald contribution        =    7217.37136426 Ry

     convergence has been achieved in   8 iterations

     negative rho (up, down):  1.386E-04 0.000E+00

     Forces acting on atoms (cartesian axes, Ry/au):

     atom    1 type  1   force =    -0.00241627   -0.00681686   -0.00709101
     atom    2 type  2   force =    -0.00742801    0.01652253    0.00506130
     atom    3 type  2   force =    -0.00702379    0.00339346   -0.01439658
     atom    4 type  1   force =     0.00538811   -0.00171280    0.00415131
     atom    5 type  2   force =     0.02494299   -0.03301538    0.01857450
     atom    6 type  2   force =     0.00016740    0.00565516    0.00127178
     atom    7 type  1   force =     0.00110924   -0.00985753    0.00112698
     atom    8 type  2   force =    -0.00007279   -0.00445359    0.00859906
     atom    9 type  2   force =     0.00914884    0.00350682    0.00382590
     atom   10 type  1   force =    -0.00182062    0.00843639    0.00153585
     atom   11 type  2   force =     0.00358509   -0.00225683   -0.00949420
     atom   12 type  2   force =    -0.00447085   -0.00187164   -0.00031417
     atom   13 type  1   force =     0.00331956    0.00221956   -0.00042128
     atom   14 type  2   force =     0.00395187    0.00033221    0.00233569
     atom   15 type  2   force =    -0.01187111   -0.00184564   -0.01249598
     atom   16 type  1   force =     0.00541431    0.00111992    0.00476975
     atom   17 type  2   force =     0.00556696    0.00336725    0.00001412
     atom   18 type  2   force =    -0.00142796    0.00024140    0.00644019
     atom   19 type  1   force =    -0.00146448   -0.00204412    0.00003449
     atom   20 type  2   force =    -0.00116209   -0.00354533   -0.00447161
     atom   21 type  1   force =    -0.00223069    0.00234719    0.00257746
     atom   22 type  2   force =    -0.00019707   -0.00210546   -0.00256881
     atom   23 type  2   force =     0.00124652    0.00070481    0.00240593
     atom   24 type  1   force =    -0.00440027    0.00021371   -0.00180046
     atom   25 type  2   force =     0.00730541    0.01070709   -0.00378820
     atom   26 type  2   force =    -0.00369379   -0.00114490   -0.00422773
     atom   27 type  1   force =    -0.00175927    0.00025688    0.00544405
     atom   28 type  2   force =     0.00199717   -0.00184142   -0.00549123
     atom   29 type  2   force =     0.00153222    0.00177315   -0.00532467
     atom   30 type  1   force =    -0.00110698   -0.00244831    0.00550209
     atom   31 type  2   force =     0.00061328    0.00105633    0.00806884
     atom   32 type  2   force =    -0.00698155    0.00293807    0.00512209
     atom   33 type  1   force =     0.00058801    0.00093785    0.00369572
     atom   34 type  2   force =    -0.00266015   -0.02011612   -0.01562700
     atom   35 type  2   force =    -0.00385666    0.00622385    0.00332338
     atom   36 type  3   force =    -0.00983255    0.02312233   -0.00636753
     The non-local contrib.  to forces
     atom    1 type  1   force =    -0.00126746    0.02136336   -0.00604087
     atom    2 type  2   force =    -0.04230413    0.07289448   -0.20022110
     atom    3 type  2   force =    -0.01093029   -0.00787420    0.26601913
     atom    4 type  1   force =    -0.00801936    0.01136012    0.00232122
     atom    5 type  2   force =     0.11895204   -0.18996103   -0.11065920
     atom    6 type  2   force =    -0.00190132    0.00252598    0.26846019
     atom    7 type  1   force =    -0.02869153    0.00137339   -0.02100446
     atom    8 type  2   force =     0.00141498   -0.00314071   -0.25922827
     atom    9 type  2   force =     0.00418299   -0.01434294    0.27481010
     atom   10 type  1   force =     0.00855966   -0.00771123   -0.01176369
     atom   11 type  2   force =     0.00796640    0.00218910   -0.26234109
     atom   12 type  2   force =    -0.01084068   -0.01996213    0.26140050
     atom   13 type  1   force =     0.00021140    0.02184586   -0.00950766
     atom   14 type  2   force =     0.00714693   -0.00986319   -0.25651963
     atom   15 type  2   force =    -0.01191401   -0.00799747    0.25537533
     atom   16 type  1   force =     0.00741060    0.04708067   -0.03421876
     atom   17 type  2   force =    -0.00793914   -0.02632869   -0.24046083
     atom   18 type  2   force =     0.00291908    0.00635494    0.27176032
     atom   19 type  1   force =     0.02250057   -0.00213574   -0.00719010
     atom   20 type  2   force =    -0.00161214   -0.02040564    0.26155649
     atom   21 type  1   force =     0.00002459    0.01958144    0.00221135
     atom   22 type  2   force =    -0.00420064    0.00645463   -0.25794395
     atom   23 type  2   force =     0.00684158   -0.01446143    0.26256420
     atom   24 type  1   force =     0.00349684    0.01503790   -0.01130098
     atom   25 type  2   force =     0.00391425    0.00091970   -0.26585657
     atom   26 type  2   force =     0.00383481   -0.01102811    0.26469360
     atom   27 type  1   force =    -0.00198329    0.01215747    0.00765724
     atom   28 type  2   force =    -0.00423240   -0.02585613   -0.27193737
     atom   29 type  2   force =     0.00480830    0.00120222    0.26318583
     atom   30 type  1   force =     0.00294016    0.01961031    0.00851690
     atom   31 type  2   force =    -0.00880681    0.00043136   -0.25923720
     atom   32 type  2   force =    -0.00163686   -0.01175663    0.27180041
     atom   33 type  1   force =    -0.00211869    0.00221681    0.00400379
     atom   34 type  2   force =    -0.00388549   -0.01891781   -0.27736490
     atom   35 type  2   force =    -0.00124146   -0.01234466    0.26593706
     atom   36 type  3   force =    -0.00901058    0.01288702   -0.01462095
     The ionic contribution  to forces
     atom    1 type  1   force =    -0.02281636    0.67528849    3.53393079
     atom    2 type  2   force =    -0.02679026   -0.72176382   39.17958099
     atom    3 type  2   force =     0.05571820   -0.00620773  -36.37377805
     atom    4 type  1   force =    -0.34973495    0.94283209    0.40705893
     atom    5 type  2   force =    -1.81605347    2.45372584   38.20399105
     atom    6 type  2   force =     0.30605887   -0.38216000  -37.89207203
     atom    7 type  1   force =    -2.68012992   -2.53917232    2.58235386
     atom    8 type  2   force =    -1.05175418    0.19156743   37.56993097
     atom    9 type  2   force =     0.29169204   -0.07254860  -37.94496702
     atom   10 type  1   force =    -0.50468856   -0.33603062    4.93721657
     atom   11 type  2   force =    -0.47785506   -1.69176603   39.02337191
     atom   12 type  2   force =     0.24955393    0.46872005  -37.80668877
     atom   13 type  1   force =     0.12683175    0.86696418    2.68460749
     atom   14 type  2   force =    -0.28056096   -0.13066795   38.64002631
     atom   15 type  2   force =    -0.02542115   -0.14343635  -37.11015302
     atom   16 type  1   force =     0.38321827    3.71650125    0.58806423
     atom   17 type  2   force =     0.85587280    1.53037064   37.92546463
     atom   18 type  2   force =    -0.24737900   -0.52608880  -38.44715297
     atom   19 type  1   force =     2.65155422   -2.43227142    0.49847329
     atom   20 type  2   force =     0.20083515   -0.11194695  -38.56914096
     atom   21 type  1   force =    -0.08117177   -0.41106525    1.55266706
     atom   22 type  2   force =     0.44091794   -1.75080982   38.48097148
     atom   23 type  2   force =    -0.06068057    0.59357995  -38.23321509
     atom   24 type  1   force =     0.04744751    0.51824382    5.07261085
     atom   25 type  2   force =     0.49908560    0.08137706   39.18241082
     atom   26 type  2   force =    -0.23513986    0.03112372  -37.28580919
[...]
     atom   27 type  1   force =    -0.00049169    0.01362478    0.00435866
     atom   28 type  2   force =    -0.00452870   -0.01261893   -0.25865459
     atom   29 type  2   force =    -0.00134094   -0.00627619    0.26776544
     atom   30 type  1   force =     0.00419310    0.02444038    0.00814790
     atom   31 type  2   force =    -0.01042924   -0.00501121   -0.26503555
     atom   32 type  2   force =     0.00450153   -0.00976520    0.26893751
     atom   33 type  1   force =     0.00173811    0.00299097    0.00315315
     atom   34 type  2   force =    -0.00231267   -0.00822033   -0.27077648
     atom   35 type  2   force =     0.00148178   -0.01495774    0.26520950
     atom   36 type  3   force =    -0.02215721   -0.00198053   -0.05551119
     The ionic contribution  to forces
     atom    1 type  1   force =    -0.54822742    0.55532580    3.80357050
     atom    2 type  2   force =    -0.01797820   -0.18928453   38.97324167
     atom    3 type  2   force =    -0.02673805   -0.06178995  -37.44188933
     atom    4 type  1   force =    -0.24251618    0.40092144   -0.63363390
     atom    5 type  2   force =    -1.63643995    1.08072218   36.54339819
     atom    6 type  2   force =     0.01210396   -0.52584397  -37.68673294
     atom    7 type  1   force =    -2.81819624   -1.13004066    3.17702585
     atom    8 type  2   force =    -1.05527265    0.46280756   38.24277732
     atom    9 type  2   force =     0.15924165    0.15443946  -38.05664927
     atom   10 type  1   force =    -0.67336532   -0.58773747    3.04508174
     atom   11 type  2   force =    -0.49633145   -1.45124504   38.41311131
     atom   12 type  2   force =     0.16407712    0.24457626  -37.51678633
     atom   13 type  1   force =     0.27889682    0.92561155    2.70656694
     atom   14 type  2   force =    -0.10990042   -0.08749174   38.73231188
     atom   15 type  2   force =     0.09604741    0.01171418  -37.26447705
     atom   16 type  1   force =    -0.82161374    3.15863755    2.60471070
     atom   17 type  2   force =     0.83451050    1.24341702   38.10428159
     atom   18 type  2   force =     0.00831576   -0.33706986  -37.70651739
     atom   19 type  1   force =     2.86063646   -2.48111419    0.78432487
     atom   20 type  2   force =    -0.04736091   -0.03430676  -38.58699975
     atom   21 type  1   force =     0.43254770   -0.41742427    1.61957084
     atom   22 type  2   force =     0.47816038   -1.51414168   38.72397783
     atom   23 type  2   force =    -0.04700738    0.43585852  -38.31783890
     atom   24 type  1   force =     0.10148681    0.14077843    1.88694980
     atom   25 type  2   force =     0.21380204    0.03269966   38.79680295
     atom   26 type  2   force =    -0.00177949    0.03392781  -37.49081270
     atom   27 type  1   force =     0.94823395    0.44917553    0.47481002
     atom   28 type  2   force =     0.33327805    0.39497883   38.11503355
     atom   29 type  2   force =     0.06036297   -0.25795306  -37.97131465
     atom   30 type  1   force =    -0.14007692   -0.37305081    1.55897182
     atom   31 type  2   force =     1.42443709    0.11816392   38.10335687
     atom   32 type  2   force =    -0.22069964   -0.10191975  -38.12928815
     atom   33 type  1   force =     0.21629054   -0.21969075    2.55203745
     atom   34 type  2   force =     0.04447882   -0.46487698   38.76773309
     atom   35 type  2   force =    -0.08373717    0.22929604  -37.50531770
     atom   36 type  3   force =     0.32033312    0.16192974    8.57861130
     The local contribution  to forces
     atom    1 type  1   force =     0.55321340   -0.56284724   -3.78488146
     atom    2 type  2   force =     0.02499630    0.18978838  -38.73499393
     atom    3 type  2   force =     0.02979483    0.07152018   37.19259039
     atom    4 type  1   force =     0.23594612   -0.42001015    0.63570865
     atom    5 type  2   force =     1.50379666   -1.08231811  -36.74664897
     atom    6 type  2   force =    -0.01824894    0.52848722   37.43306728
     atom    7 type  1   force =     2.85424412    1.12955180   -3.15196600
     atom    8 type  2   force =     1.04808329   -0.45780692  -38.00648537
     atom    9 type  2   force =    -0.15722416   -0.13305496   37.81005257
     atom   10 type  1   force =     0.67021583    0.59445021   -3.04239088
     atom   11 type  2   force =     0.49364601    1.45364849  -38.17382767
     atom   12 type  2   force =    -0.15427741   -0.22732569   37.27026915
     atom   13 type  1   force =    -0.27556871   -0.94625201   -2.69978321
     atom   14 type  2   force =     0.10440860    0.09008737  -38.49073797
     atom   15 type  2   force =    -0.09609564   -0.00208027   37.02108499
     atom   16 type  1   force =     0.82082676   -3.21246609   -2.57768501
     atom   17 type  2   force =    -0.82867944   -1.22713719  -37.88085639
     atom   18 type  2   force =    -0.00737615    0.33649444   37.45978095
     atom   19 type  1   force =    -2.88011689    2.48402437   -0.78065609
     atom   20 type  2   force =     0.04759642    0.04730107   38.34696723
     atom   21 type  1   force =    -0.42639657    0.40282550   -1.61878180
     atom   22 type  2   force =    -0.47255955    1.50695156  -38.48818024
     atom   23 type  2   force =     0.04241009   -0.42277071   38.07957657
     atom   24 type  1   force =    -0.10419672   -0.15622382   -1.88583961
     atom   25 type  2   force =    -0.21657735   -0.02672170  -38.55224180
     atom   26 type  2   force =    -0.00042290   -0.02716529   37.24335985
     atom   27 type  1   force =    -0.94807898   -0.46295786   -0.47935503
     atom   28 type  2   force =    -0.33019654   -0.38386330  -37.87667158
     atom   29 type  2   force =    -0.05945944    0.26459397   37.72495696
     atom   30 type  1   force =     0.13576188    0.34825726   -1.56701052
     atom   31 type  2   force =    -1.41442471   -0.11405367  -37.85949563
     atom   32 type  2   force =     0.21612921    0.11182995   37.88157983
     atom   33 type  1   force =    -0.21854823    0.21686437   -2.55461002
     atom   34 type  2   force =    -0.04171809    0.47254055  -38.51710718
     atom   35 type  2   force =     0.08356725   -0.21560982   37.26014143
     atom   36 type  3   force =    -0.30053482   -0.16085103   -8.52159437
     The core correction contribution to forces
     atom    1 type  1   force =     0.00000000    0.00000000    0.00000000
     atom    2 type  2   force =     0.00065406   -0.00029133    0.02032972
     atom    3 type  2   force =     0.00013440    0.00041472   -0.02107166
     atom    4 type  1   force =     0.00000000    0.00000000    0.00000000
     atom    5 type  2   force =    -0.00899712   -0.00013533   -0.00764685
     atom    6 type  2   force =    -0.00026032   -0.00036818   -0.02119379
     atom    7 type  1   force =     0.00000000    0.00000000    0.00000000
     atom    8 type  2   force =    -0.00019058    0.00081199    0.02018897
     atom    9 type  2   force =     0.00032872    0.00135301   -0.02090068
     atom   10 type  1   force =     0.00000000    0.00000000    0.00000000
     atom   11 type  2   force =     0.00001525   -0.00010846    0.02042092
     atom   12 type  2   force =     0.00077311    0.00093646   -0.02074290
     atom   13 type  1   force =     0.00000000    0.00000000    0.00000000
     atom   14 type  2   force =    -0.00050541   -0.00040387    0.02052362
     atom   15 type  2   force =     0.00004948    0.00042135   -0.02077140
     atom   16 type  1   force =     0.00000000    0.00000000    0.00000000
     atom   17 type  2   force =     0.00027898    0.00082526    0.01975116
     atom   18 type  2   force =     0.00008736   -0.00032160   -0.02077838
     atom   19 type  1   force =     0.00000000    0.00000000    0.00000000
     atom   20 type  2   force =    -0.00016723    0.00067430   -0.02113543
     atom   21 type  1   force =     0.00000000    0.00000000    0.00000000
     atom   22 type  2   force =     0.00010724   -0.00085535    0.02043716
     atom   23 type  2   force =    -0.00039629    0.00112356   -0.02069350
     atom   24 type  1   force =     0.00000000    0.00000000    0.00000000
     atom   25 type  2   force =    -0.00013473    0.00009888    0.02068889
     atom   26 type  2   force =    -0.00004765    0.00022537   -0.02096684
     atom   27 type  1   force =     0.00000000    0.00000000    0.00000000
     atom   28 type  2   force =     0.00053027    0.00070248    0.02035785
     atom   29 type  2   force =     0.00019887    0.00005854   -0.02089766
     atom   30 type  1   force =     0.00000000    0.00000000    0.00000000
     atom   31 type  2   force =     0.00073581    0.00059637    0.02073008
     atom   32 type  2   force =    -0.00043841    0.00055502   -0.02091353
     atom   33 type  1   force =     0.00000000    0.00000000    0.00000000
     atom   34 type  2   force =     0.00023136    0.00025185    0.02104474
     atom   35 type  2   force =    -0.00003229    0.00086363   -0.02086267
     atom   36 type  3   force =     0.00000000    0.00000000    0.00000000
     The Hubbard contrib.    to forces
     atom    1 type  1   force =     0.00000000    0.00000000    0.00000000
     atom    2 type  2   force =     0.00000000    0.00000000    0.00000000
     atom    3 type  2   force =     0.00000000    0.00000000    0.00000000
     atom    4 type  1   force =     0.00000000    0.00000000    0.00000000
     atom    5 type  2   force =     0.00000000    0.00000000    0.00000000
     atom    6 type  2   force =     0.00000000    0.00000000    0.00000000
     atom    7 type  1   force =     0.00000000    0.00000000    0.00000000
     atom    8 type  2   force =     0.00000000    0.00000000    0.00000000
     atom    9 type  2   force =     0.00000000    0.00000000    0.00000000
     atom   10 type  1   force =     0.00000000    0.00000000    0.00000000
     atom   11 type  2   force =     0.00000000    0.00000000    0.00000000
     atom   12 type  2   force =     0.00000000    0.00000000    0.00000000
     atom   13 type  1   force =     0.00000000    0.00000000    0.00000000
     atom   14 type  2   force =     0.00000000    0.00000000    0.00000000
     atom   15 type  2   force =     0.00000000    0.00000000    0.00000000
     atom   16 type  1   force =     0.00000000    0.00000000    0.00000000
     atom   17 type  2   force =     0.00000000    0.00000000    0.00000000
     atom   18 type  2   force =     0.00000000    0.00000000    0.00000000
     atom   19 type  1   force =     0.00000000    0.00000000    0.00000000
     atom   20 type  2   force =     0.00000000    0.00000000    0.00000000
     atom   21 type  1   force =     0.00000000    0.00000000    0.00000000
     atom   22 type  2   force =     0.00000000    0.00000000    0.00000000
     atom   23 type  2   force =     0.00000000    0.00000000    0.00000000
     atom   24 type  1   force =     0.00000000    0.00000000    0.00000000
     atom   25 type  2   force =     0.00000000    0.00000000    0.00000000
     atom   26 type  2   force =     0.00000000    0.00000000    0.00000000
     atom   27 type  1   force =     0.00000000    0.00000000    0.00000000
     atom   28 type  2   force =     0.00000000    0.00000000    0.00000000
     atom   29 type  2   force =     0.00000000    0.00000000    0.00000000
     atom   30 type  1   force =     0.00000000    0.00000000    0.00000000
     atom   31 type  2   force =     0.00000000    0.00000000    0.00000000
     atom   32 type  2   force =     0.00000000    0.00000000    0.00000000
     atom   33 type  1   force =     0.00000000    0.00000000    0.00000000
     atom   34 type  2   force =     0.00000000    0.00000000    0.00000000
     atom   35 type  2   force =     0.00000000    0.00000000    0.00000000
     atom   36 type  3   force =     0.00000000    0.00000000    0.00000000
     The SCF correction term to forces
     atom    1 type  1   force =    -0.00000842    0.00001280    0.00000120
     atom    2 type  2   force =    -0.00001105    0.00000571   -0.00001396
     atom    3 type  2   force =    -0.00000218   -0.00000113   -0.00000134
     atom    4 type  1   force =    -0.00000669   -0.00000600    0.00000245
     atom    5 type  2   force =     0.00000239   -0.00000490    0.00000650
     atom    6 type  2   force =     0.00000503   -0.00000341    0.00000558
     atom    7 type  1   force =     0.00000516   -0.00000452   -0.00000132
     atom    8 type  2   force =    -0.00001036   -0.00000881   -0.00001131
     atom    9 type  2   force =    -0.00000293    0.00000003    0.00000880
     atom   10 type  1   force =    -0.00001655   -0.00000510   -0.00001921
     atom   11 type  2   force =    -0.00000020    0.00000032   -0.00001835
     atom   12 type  2   force =     0.00000165    0.00000058    0.00000858
     atom   13 type  1   force =     0.00001489    0.00001810   -0.00000327
     atom   14 type  2   force =     0.00000190    0.00001156   -0.00001213
     atom   15 type  2   force =    -0.00000026    0.00000106    0.00000228
     atom   16 type  1   force =     0.00000310   -0.00000601    0.00000663
     atom   17 type  2   force =     0.00000121   -0.00000155    0.00000039
     atom   18 type  2   force =    -0.00000768   -0.00000532    0.00000260
     atom   19 type  1   force =     0.00001478   -0.00001338   -0.00000480
     atom   20 type  2   force =    -0.00000086    0.00000547    0.00000425
     atom   21 type  1   force =     0.00001185    0.00000541   -0.00001544
     atom   22 type  2   force =     0.00001096   -0.00000760   -0.00000944
     atom   23 type  2   force =     0.00000636    0.00000236   -0.00000046
     atom   24 type  1   force =    -0.00000768    0.00001607   -0.00002171
     atom   25 type  2   force =     0.00000897    0.00001299   -0.00001213
     atom   26 type  2   force =     0.00000271    0.00000412   -0.00000638
     atom   27 type  1   force =    -0.00000054   -0.00000467   -0.00000375
     atom   28 type  2   force =     0.00000029    0.00000970   -0.00001225
     atom   29 type  2   force =     0.00000227    0.00000181    0.00000259
     atom   30 type  1   force =    -0.00001134   -0.00001874   -0.00001626
     atom   31 type  2   force =     0.00000434   -0.00001213   -0.00000920
     atom   32 type  2   force =     0.00000022   -0.00000866    0.00000472
     atom   33 type  1   force =     0.00000862    0.00000783   -0.00003217
     atom   34 type  2   force =    -0.00001387   -0.00000185   -0.00001407
     atom   35 type  2   force =    -0.00000767    0.00000322   -0.00000298
     atom   36 type  3   force =    -0.00000206    0.00000004   -0.00000465

     Total force =     0.007117     Total SCF correction =     0.000094
     Energy error            =      9.6E-05 Ry
     Gradient error          =      2.4E-03 Ry/Bohr

     bfgs converged in  34 scf cycles and  33 bfgs steps
     (criteria: energy <  1.0E-04 Ry, force <  1.0E-02 Ry/Bohr)

     End of BFGS Geometry Optimization

     Final energy             =   -2205.5940548595 Ry

     File ./MoS2-V-O.bfgs deleted, as requested
Begin final coordinates

ATOMIC_POSITIONS (angstrom)
Mo            6.5791883538        1.7041823727        2.7858183008
S             8.1576189067        0.7933762786        4.3778870937
S             8.1349704108        0.7995043476        1.1753554522
Mo            8.1665955915        4.4597787701        2.6969521074
S             6.5821363825        3.6260500817        4.2868233691
S             6.5710825433        3.5195065431        1.1302634865
Mo            6.5111486227        7.1106584535        2.6732176465
S             8.0998418228        6.2656101391        4.3036732211
S             8.1423764880        6.2893783596        1.0995354649
Mo            8.1401626299        9.8933754495        2.7659528763
S             6.5254541072        8.8943049924        4.3212637244
S             6.5898435049        8.9844336331        1.1377470157
Mo            3.4407532303        1.7314571065        2.7580868598
S             4.9866895392        0.7659002337        4.3550902496
S             5.0105597175        0.8085682415        1.1788639747
Mo            5.0288027550        4.5250637685        2.6661643621
S             3.4719076493        3.6453936521        4.2952377603
S             3.4521722329        3.5423730018        1.1161478391
Mo            3.4487185364        7.1949074277        2.6285228456
S             4.9809214085        6.2769585512        1.0398694082
Mo            4.9894898156        9.8709713382        2.7333945601
S             3.4616874223        8.9165927219        4.3221688966
S             3.4035827687        9.0319059145        1.0989619051
Mo            0.2724455036        1.7097285469        2.7556586791
S             1.8632366589        0.8196354318        4.3580561311
S             1.8621103630        0.8191005419        1.1684042690
Mo            1.8690000401        4.4666705526        2.7045036591
S             0.2946372984        3.5755770939        4.3040543368
S             0.2871347693        3.5200942546        1.1233754480
Mo            0.2688449901        7.1830498936        2.7219568573
S             1.9108558913        6.2885918699        4.2852016124
S             1.8385495310        6.2863379203        1.0878149492
Mo            1.8593286449        9.9112957087        2.7528277364
S             0.2767216085        8.9885244907        4.3449394121
S             0.2636839517        9.0228665121        1.1640331729
H             7.0853510994        3.6678666592        5.5729228931
End final coordinates



     Writing all to output data dir ./MoS2-V-O.save/
 
     init_run     :      2.47s CPU      2.66s WALL (       1 calls)
     electrons    :   3071.97s CPU   3377.57s WALL (      34 calls)
     update_pot   :     46.28s CPU     48.22s WALL (      33 calls)
     forces       :     46.47s CPU     49.91s WALL (      34 calls)

     Called by init_run:
     wfcinit      :      0.39s CPU      0.44s WALL (       1 calls)
     potinit      :      1.37s CPU      1.45s WALL (       1 calls)
     hinit0       :      0.16s CPU      0.18s WALL (       1 calls)

     Called by electrons:
     c_bands      :    355.86s CPU    359.68s WALL (     286 calls)
     sum_band     :     93.68s CPU    102.37s WALL (     286 calls)
     v_of_rho     :    119.25s CPU    137.70s WALL (     303 calls)
     newd         :     49.03s CPU     55.10s WALL (     303 calls)
     mix_rho      :   2469.08s CPU   2735.18s WALL (     286 calls)

     Called by c_bands:
     init_us_2    :      6.30s CPU      6.55s WALL (     573 calls)
     init_us_2:cp :      6.29s CPU      6.55s WALL (     573 calls)
     regterg      :    334.59s CPU    338.14s WALL (     286 calls)

     Called by *egterg:
     rdiaghg      :     26.72s CPU     26.95s WALL (    1530 calls)
     h_psi        :    195.68s CPU    197.31s WALL (    1581 calls)
     s_psi        :     23.98s CPU     24.06s WALL (    1581 calls)
     g_psi        :      1.30s CPU      1.31s WALL (    1294 calls)

     Called by h_psi:
     h_psi:calbec :     26.18s CPU     26.30s WALL (    1581 calls)
     vloc_psi     :    142.84s CPU    144.21s WALL (    1581 calls)
     add_vuspsi   :     23.56s CPU     23.69s WALL (    1581 calls)

     General routines
     calbec       :     37.47s CPU     37.63s WALL (    2003 calls)
     fft          :     81.44s CPU     94.76s WALL (   20471 calls)
     ffts         :   1100.46s CPU   1357.61s WALL (  602660 calls)
     fftw         :    125.87s CPU    126.91s WALL (  175810 calls)
     interpolate  :      2.15s CPU      2.47s WALL (     303 calls)
 
     Parallel routines
 
     PWSCF        :  52m54.04s CPU  58m 8.59s WALL

 
   This run was terminated on:   0:33:41   4Nov2023            

=------------------------------------------------------------------------------=
   JOB DONE.
=------------------------------------------------------------------------------=
