
     Program PWSCF v.7.2 starts on  4Nov2023 at 10:56:49 

     This program is part of the open-source Quantum ESPRESSO suite
     for quantum simulation of materials; please cite
         "P. Giannozzi et al., J. Phys.:Condens. Matter 21 395502 (2009);
         "P. Giannozzi et al., J. Phys.:Condens. Matter 29 465901 (2017);
         "P. Giannozzi et al., J. Chem. Phys. 152 154105 (2020);
          URL http://www.quantum-espresso.org", 
     in publications or presentations arising from this work. More details at
     http://www.quantum-espresso.org/quote

     Parallel version (MPI & OpenMP), running on      48 processor cores
     Number of MPI processes:                48
     Threads/MPI process:                     1

     MPI processes distributed on     1 nodes
     86539 MiB available memory on the printing compute node when the environment starts
 
     Waiting for input...
     Reading input from standard input
Warning: card &CELL ignored
Warning: card CELL_DYNAMICS = 'BFGS', ignored
Warning: card CELL_DOFREE = '2DXY' ignored
Warning: card / ignored

     Current dimensions of program PWSCF are:
     Max number of different atomic species (ntypx) = 10
     Max number of k-points (npk) =  40000
     Max angular momentum in pseudopotentials (lmaxx) =  4

     IMPORTANT: XC functional enforced from input :
     Exchange-correlation= RVV10
                           (   1   4  13   4  26   0   0)
     Any further DFT definition will be discarded
     Please, verify this is what you really want


     gamma-point specific algorithms are used
     signal trapping enabled: kill the code with -SIGUSR1 to stop cleanly the simulation 
 
     R & G space division:  proc/nbgrp/npool/nimage =      48
     Subspace diagonalization in iterative solution of the eigenvalue problem:
     one sub-group per band group will be used
     scalapack distributed-memory algorithm (size of sub-group:  2*  2 procs)

 
     Parallelization info
     --------------------
     sticks:   dense  smooth     PW     G-vecs:    dense   smooth      PW
     Min         243     194     47                49060    35090    4376
     Max         246     196     50                49086    35128    4410
     Sum       11735    9389   2349              2355467  1685513  210763
 
     Using Slab Decomposition
 


     bravais-lattice index     =            0
     lattice parameter (alat)  =      17.8707  a.u.
     unit-cell volume          =   17436.2743 (a.u.)^3
     number of atoms/cell      =           36
     number of atomic types    =            3
     number of electrons       =       307.00
     number of Kohn-Sham states=          185
     kinetic-energy cutoff     =      80.0000  Ry
     charge density cutoff     =     400.0000  Ry
     scf convergence threshold =      1.0E-06
     mixing beta               =       0.7000
     number of iterations used =            8  local-TF  mixing
     energy convergence thresh.=      1.0E-04
     force convergence thresh. =      1.0E-02
     Exchange-correlation= RVV10
                           (   1   4  13   4  26   0   0)
     nstep                     =          200


     celldm(1)=  17.870686  celldm(2)=   0.000000  celldm(3)=   0.000000
     celldm(4)=   0.000000  celldm(5)=   0.000000  celldm(6)=   0.000000

     crystal axes: (cart. coord. in units of alat)
               a(1) = (   1.000000   0.000000   0.000000 )  
               a(2) = (   0.000000   1.155671   0.000000 )  
               a(3) = (   0.000000   0.000000   2.643601 )  

     reciprocal axes: (cart. coord. in units 2 pi/alat)
               b(1) = (  1.000000  0.000000  0.000000 )  
               b(2) = (  0.000000  0.865298  0.000000 )  
               b(3) = (  0.000000  0.000000  0.378272 )  


     PseudoPot. # 1 for Mo read from file:
     ../pseudo/Mo_ONCV_PBE-1.0.oncvpsp.upf
     MD5 check sum: 1b5d28e075c9ccadda658a603575cd1f
     Pseudo is Norm-conserving, Zval = 14.0
     Generated using ONCVPSP code by D. R. Hamann
     Using radial grid of 1526 points,  6 beta functions with: 
                l(1) =   0
                l(2) =   0
                l(3) =   1
                l(4) =   1
                l(5) =   2
                l(6) =   2

     PseudoPot. # 2 for S  read from file:
     ../pseudo/s_pbe_v1.4.uspp.F.UPF
     MD5 check sum: 88d86576ff6df21479756cfb9bdac1df
     Pseudo is Ultrasoft + core correction, Zval =  6.0
     Generated by new atomic code, or converted to UPF format
     Using radial grid of  907 points,  6 beta functions with: 
                l(1) =   0
                l(2) =   0
                l(3) =   1
                l(4) =   1
                l(5) =   2
                l(6) =   2
     Q(r) pseudized with  8 coefficients,  rinner =    1.300   1.300   1.300
                                                       1.300   1.300

     PseudoPot. # 3 for H  read from file:
     ../pseudo/H_ONCV_PBE-1.0.oncvpsp.upf
     MD5 check sum: 1790becc920ee074925cf490c71280fe
     Pseudo is Norm-conserving, Zval =  1.0
     Generated using ONCVPSP code by D. R. Hamann
     Using radial grid of 1166 points,  2 beta functions with: 
                l(1) =   0
                l(2) =   0

     atomic species   valence    mass     pseudopotential
        Mo            14.00    95.94000     Mo( 1.00)
        S              6.00    32.06500     S ( 1.00)
        H              1.00     1.00794     H ( 1.00)

     No symmetry found



   Cartesian axes

     site n.     atom                  positions (alat units)
         1           Mo  tau(   1) = (   0.6952221   0.1890506   0.2985846  )
         2           S   tau(   2) = (   0.8646417   0.0856217   0.4689279  )
         3           S   tau(   3) = (   0.8663890   0.0857843   0.1351291  )
         4           Mo  tau(   4) = (   0.8560186   0.4753274   0.2873942  )
         5           S   tau(   5) = (   0.6873294   0.3936244   0.4596353  )
         6           S   tau(   6) = (   0.6929804   0.3713468   0.1185692  )
         7           Mo  tau(   7) = (   0.6862796   0.7633098   0.2825370  )
         8           S   tau(   8) = (   0.8545980   0.6708292   0.4486168  )
         9           S   tau(   9) = (   0.8545123   0.6666874   0.1146125  )
        10           Mo  tau(  10) = (   0.8629403   1.0471007   0.3006803  )
        11           S   tau(  11) = (   0.6868280   0.9456650   0.4634891  )
        12           S   tau(  12) = (   0.6998113   0.9568511   0.1205389  )
        13           Mo  tau(  13) = (   0.3618216   0.1847309   0.2935964  )
        14           S   tau(  14) = (   0.5260962   0.0863870   0.4600448  )
        15           S   tau(  15) = (   0.5348379   0.0894875   0.1297123  )
        16           Mo  tau(  16) = (   0.5265817   0.4772436   0.2784130  )
        17           S   tau(  17) = (   0.3624753   0.3882513   0.4525556  )
        18           S   tau(  18) = (   0.3635411   0.3752055   0.1119148  )
        19           Mo  tau(  19) = (   0.3652268   0.7630864   0.2781795  )
        20           S   tau(  20) = (   0.5269494   0.6690381   0.1096838  )
        21           Mo  tau(  21) = (   0.5300192   1.0470394   0.2900995  )
        22           S   tau(  22) = (   0.3670346   0.9457522   0.4574073  )
        23           S   tau(  23) = (   0.3604225   0.9585725   0.1159032  )
        24           Mo  tau(  24) = (   0.0313099   0.1847895   0.3013130  )
        25           S   tau(  25) = (   0.1956761   0.0838230   0.4650863  )
        26           S   tau(  26) = (   0.1967693   0.0903508   0.1278874  )
        27           Mo  tau(  27) = (   0.1967578   0.4753919   0.2813011  )
        28           S   tau(  28) = (   0.0287851   0.3864324   0.4586755  )
        29           S   tau(  29) = (   0.0244514   0.3729871   0.1239344  )
        30           Mo  tau(  30) = (   0.0286728   0.7631204   0.2856894  )
        31           S   tau(  31) = (   0.2011512   0.6675435   0.4465001  )
        32           S   tau(  32) = (   0.1969214   0.6672839   0.1104564  )
        33           Mo  tau(  33) = (   0.1950294   1.0511147   0.2932237  )
        34           S   tau(  34) = (   0.0312912   0.9612169   0.4667423  )
        35           S   tau(  35) = (   0.0292670   0.9563028   0.1216485  )
        36           H   tau(  36) = (   0.2222222   1.1556707   0.5792558  )

     number of k points=     1  Gaussian smearing, width (Ry)=  0.0100
                       cart. coord. in units 2pi/alat
        k(    1) = (   0.0000000   0.0000000   0.0000000), wk =   2.0000000

     Dense  grid:  1177734 G-vectors     FFT dimensions: ( 120, 135, 320)

     Smooth grid:   842757 G-vectors     FFT dimensions: ( 108, 120, 270)

     Estimated max dynamical RAM per process >     146.59 MB

     Estimated total dynamical RAM >       6.87 GB

     Initial potential from superposition of free atoms

     starting charge     306.9873, renormalised to     307.0000

     negative rho (up, down):  1.406E-04 0.000E+00


---------------------------------------------------------------------------------
Carrying out rVV10 run using the following parameters:
Nqs =      20    Nr_points =    1024   r_max =   100.000
b_value =  6.30000    beta =  0.00901
     q_mesh =  0.00010000  0.00030000  0.00058939  0.00100810
               0.00161396  0.00249058  0.00375900  0.00559430
               0.00824984  0.01209221  0.01765183  0.02569619
               0.03733578  0.05417739  0.07854596  0.11380545
               0.16482331  0.23864234  0.34545298  0.50000000

Gradients computed in Reciprocal space

---------------------------------------------------------------------------------


     Starting wfcs are  213 randomized atomic wfcs

     total cpu time spent up to now is        2.7 secs

     Self-consistent Calculation

     iteration #  1     ecut=    80.00 Ry     beta= 0.70
     Davidson diagonalization with overlap
     ethr =  1.00E-02,  avg # of iterations =  2.0

     Threshold (ethr) on eigenvalues was too large:
     Diagonalizing with lowered threshold

     Davidson diagonalization with overlap
     ethr =  4.01E-04,  avg # of iterations =  4.0

     negative rho (up, down):  3.463E-08 0.000E+00

     total cpu time spent up to now is       22.3 secs

     total energy              =   -2205.62157024 Ry
     estimated scf accuracy    <       1.51798860 Ry

     iteration #  2     ecut=    80.00 Ry     beta= 0.70
     Davidson diagonalization with overlap
     ethr =  4.94E-04,  avg # of iterations =  1.0

     total cpu time spent up to now is       24.7 secs

     total energy              =   -2205.44648739 Ry
     estimated scf accuracy    <       0.62180947 Ry

     iteration #  3     ecut=    80.00 Ry     beta= 0.70
     Davidson diagonalization with overlap
     ethr =  2.03E-04,  avg # of iterations =  5.0

     total cpu time spent up to now is       27.2 secs

     total energy              =   -2205.54307679 Ry
     estimated scf accuracy    <       0.06515690 Ry

     iteration #  4     ecut=    80.00 Ry     beta= 0.70
     Davidson diagonalization with overlap
     ethr =  2.12E-05,  avg # of iterations = 11.0

     total cpu time spent up to now is       30.0 secs

     total energy              =   -2205.54752232 Ry
     estimated scf accuracy    <       0.03117240 Ry

     iteration #  5     ecut=    80.00 Ry     beta= 0.70
     Davidson diagonalization with overlap
     ethr =  1.02E-05,  avg # of iterations =  2.0

     total cpu time spent up to now is       32.2 secs

     total energy              =   -2205.54587635 Ry
     estimated scf accuracy    <       0.02006082 Ry

     iteration #  6     ecut=    80.00 Ry     beta= 0.70
     Davidson diagonalization with overlap
     ethr =  6.53E-06,  avg # of iterations =  2.0

     total cpu time spent up to now is       34.3 secs

     total energy              =   -2205.54551445 Ry
     estimated scf accuracy    <       0.01248177 Ry

     iteration #  7     ecut=    80.00 Ry     beta= 0.70
     Davidson diagonalization with overlap
     ethr =  4.07E-06,  avg # of iterations =  1.0

     total cpu time spent up to now is       36.4 secs

     total energy              =   -2205.54369191 Ry
     estimated scf accuracy    <       0.00980318 Ry

     iteration #  8     ecut=    80.00 Ry     beta= 0.70
     Davidson diagonalization with overlap
     ethr =  3.19E-06,  avg # of iterations =  2.0

     negative rho (up, down):  2.047E-03 0.000E+00

     total cpu time spent up to now is       40.6 secs

     total energy              =   -2205.54301766 Ry
     estimated scf accuracy    <       0.00481499 Ry

     iteration #  9     ecut=    80.00 Ry     beta= 0.70
     Davidson diagonalization with overlap
     c_bands:  1 eigenvalues not converged
     ethr =  1.57E-06,  avg # of iterations = 20.0

     negative rho (up, down):  3.049E-02 0.000E+00

     total cpu time spent up to now is       46.1 secs

     total energy              =   -2205.54279566 Ry
     estimated scf accuracy    <       0.00285109 Ry

     iteration # 10     ecut=    80.00 Ry     beta= 0.70
     Davidson diagonalization with overlap
     ethr =  9.29E-07,  avg # of iterations = 13.0

     negative rho (up, down):  3.029E-02 0.000E+00

     total cpu time spent up to now is       51.1 secs

     total energy              =   -2205.54275626 Ry
     estimated scf accuracy    <       0.00142253 Ry

     iteration # 11     ecut=    80.00 Ry     beta= 0.70
     Davidson diagonalization with overlap
     ethr =  4.63E-07,  avg # of iterations =  2.0

     negative rho (up, down):  2.328E-02 0.000E+00

     total cpu time spent up to now is       55.7 secs

     total energy              =   -2205.54276939 Ry
     estimated scf accuracy    <       0.00054761 Ry

     iteration # 12     ecut=    80.00 Ry     beta= 0.70
     Davidson diagonalization with overlap
     ethr =  1.78E-07,  avg # of iterations =  5.0

     negative rho (up, down):  1.155E-02 0.000E+00

     total cpu time spent up to now is       63.1 secs

     total energy              =   -2205.54284932 Ry
     estimated scf accuracy    <       0.00011817 Ry

     iteration # 13     ecut=    80.00 Ry     beta= 0.70
     Davidson diagonalization with overlap
     ethr =  3.85E-08,  avg # of iterations =  5.0

     negative rho (up, down):  2.847E-03 0.000E+00

     total cpu time spent up to now is       70.6 secs

     total energy              =   -2205.54288990 Ry
     estimated scf accuracy    <       0.00002212 Ry

     iteration # 14     ecut=    80.00 Ry     beta= 0.70
     Davidson diagonalization with overlap
     ethr =  7.21E-09,  avg # of iterations =  6.0

     negative rho (up, down):  7.187E-04 0.000E+00

     total cpu time spent up to now is       80.6 secs

     total energy              =   -2205.54288606 Ry
     estimated scf accuracy    <       0.00000592 Ry

     iteration # 15     ecut=    80.00 Ry     beta= 0.70
     Davidson diagonalization with overlap
     ethr =  1.93E-09,  avg # of iterations =  2.0

     negative rho (up, down):  4.348E-04 0.000E+00

     total cpu time spent up to now is       90.6 secs

     total energy              =   -2205.54288860 Ry
     estimated scf accuracy    <       0.00000214 Ry

     iteration # 16     ecut=    80.00 Ry     beta= 0.70
     Davidson diagonalization with overlap
     ethr =  6.96E-10,  avg # of iterations =  4.0

     negative rho (up, down):  1.365E-04 0.000E+00

     total cpu time spent up to now is       92.6 secs

     End of self-consistent calculation

          k = 0.0000 0.0000 0.0000 (105382 PWs)   bands (ev):

   -62.8702 -62.8412 -62.8108 -62.7915 -62.7881 -62.7830 -62.7721 -62.7676
   -62.7193 -62.6007 -62.5638 -62.5265 -37.1783 -37.1415 -37.1068 -37.0876
   -37.0810 -37.0645 -37.0558 -37.0418 -37.0122 -37.0072 -36.9987 -36.9806
   -36.9753 -36.9696 -36.9660 -36.9557 -36.9521 -36.9449 -36.9396 -36.9347
   -36.9007 -36.8768 -36.8646 -36.8339 -36.8304 -36.8076 -36.7977 -36.7876
   -36.7689 -36.7536 -36.7367 -36.7199 -36.7041 -36.6687 -36.5515 -36.5407
   -16.4566 -15.6871 -15.1038 -15.0190 -14.8582 -14.7780 -14.6518 -14.4230
   -14.3875 -14.3528 -14.3159 -14.2922 -14.2674 -14.2125 -14.1145 -14.0593
   -14.0382 -14.0328 -13.9488 -13.8845 -13.7537 -13.7384 -13.7155  -9.2273
    -7.5785  -7.3984  -7.3180  -7.2410  -7.1916  -7.1511  -7.0993  -7.0609
    -6.7903  -6.7381  -6.7131  -6.6294  -6.5278  -6.4653  -6.4418  -6.3646
    -6.2958  -6.2127  -6.1541  -5.9323  -5.8949  -5.8413  -5.7449  -5.7254
    -5.7064  -5.6458  -5.5953  -5.5839  -5.5329  -5.4830  -5.4693  -5.4121
    -5.3943  -5.3021  -5.2652  -5.1151  -5.0064  -4.9404  -4.9082  -4.8956
    -4.8492  -4.7548  -4.5969  -4.5762  -4.4217  -4.2986  -4.2197  -4.1605
    -4.0969  -4.0078  -3.9704  -3.8257  -3.7781  -3.7247  -3.6978  -3.6516
    -3.6204  -3.5145  -3.4869  -3.4607  -3.4445  -3.3854  -3.3700  -3.3181
    -3.2998  -3.1381  -3.0759  -2.8768  -2.8198  -2.7550  -2.6926  -2.6898
    -2.6581  -2.6048  -2.5796  -2.5393  -2.4604  -2.2059  -1.9530  -1.9232
    -1.8195  -0.6835  -0.6464  -0.5271  -0.1396  -0.0833  -0.0638  -0.0074
     0.1101   0.1876   0.2054   0.2938   0.3270   0.3305   0.4344   0.5282
     0.5436   0.6299   0.6326   0.6745   0.6788   0.7442   0.7632   0.8039
     0.8312   0.8638   0.9129   0.9498   0.9979   1.0343   1.1166   1.2090
     1.4365

     the Fermi energy is    -0.7336 ev

!    total energy              =   -2205.54289036 Ry
     estimated scf accuracy    <       0.00000089 Ry
     smearing contrib. (-TS)   =      -0.00923615 Ry
     internal energy E=F+TS    =   -2205.53365421 Ry

     The total energy is F=E-TS. E is the sum of the following terms:
     one-electron contribution =  -18046.55256835 Ry
     hartree contribution      =    9010.66612669 Ry
     xc contribution           =    -385.36820155 Ry
     ewald contribution        =    7215.72098899 Ry

     convergence has been achieved in  16 iterations

     negative rho (up, down):  1.365E-04 0.000E+00

     Forces acting on atoms (cartesian axes, Ry/au):

     atom    1 type  1   force =     0.01059082   -0.02148037    0.00976584
     atom    2 type  2   force =    -0.02216891    0.01734979   -0.00032254
     atom    3 type  2   force =    -0.00800240    0.00939763   -0.00328114
     atom    4 type  1   force =     0.00682771   -0.00037550    0.00053489
     atom    5 type  2   force =    -0.00165898   -0.00537890   -0.00638317
     atom    6 type  2   force =     0.00441419    0.01072829    0.00093798
     atom    7 type  1   force =     0.00377210   -0.00650322   -0.00848157
     atom    8 type  2   force =     0.00067321   -0.00484120    0.01803881
     atom    9 type  2   force =     0.01371172    0.00484920    0.01134365
     atom   10 type  1   force =    -0.00890647    0.01071457   -0.02819483
     atom   11 type  2   force =     0.00451192   -0.00150547   -0.00516423
     atom   12 type  2   force =     0.00016838    0.00183086    0.00492355
     atom   13 type  1   force =     0.01358662    0.00391507   -0.00116032
     atom   14 type  2   force =     0.01351039    0.00065312    0.00856209
     atom   15 type  2   force =    -0.01429652    0.00158426   -0.00873322
     atom   16 type  1   force =     0.00045134    0.00317581    0.00255785
     atom   17 type  2   force =     0.00802548    0.00768532    0.00081362
     atom   18 type  2   force =    -0.00411504   -0.00679615    0.01472952
     atom   19 type  1   force =     0.00689279   -0.00508515   -0.00456775
     atom   20 type  2   force =     0.00270311   -0.00512408    0.00103835
     atom   21 type  1   force =    -0.00776129    0.00595398   -0.00190073
     atom   22 type  2   force =    -0.00187671   -0.00214195    0.00122810
     atom   23 type  2   force =    -0.00162602    0.00208295    0.00891828
     atom   24 type  1   force =    -0.02835152    0.00396309   -0.02632249
     atom   25 type  2   force =     0.03018309    0.01212392   -0.00752190
     atom   26 type  2   force =    -0.01194183   -0.00110964   -0.00407476
     atom   27 type  1   force =    -0.00471677   -0.00777144    0.00868297
     atom   28 type  2   force =    -0.00143118    0.00562898   -0.00647670
     atom   29 type  2   force =     0.00161419   -0.00203343   -0.00269999
     atom   30 type  1   force =    -0.00296142    0.01352204   -0.00651266
     atom   31 type  2   force =     0.00124838   -0.00151428    0.01675645
     atom   32 type  2   force =    -0.01078849    0.00576710    0.00820838
     atom   33 type  1   force =     0.01030606   -0.01248183   -0.02705375
     atom   34 type  2   force =     0.00208734   -0.04551755   -0.00973799
     atom   35 type  2   force =    -0.00763563    0.00612977    0.01417588
     atom   36 type  3   force =     0.00296033    0.00260442    0.02737350
     The non-local contrib.  to forces
     atom    1 type  1   force =    -0.00136182    0.03890733   -0.00954084
     atom    2 type  2   force =    -0.01280501    0.00669567   -0.26524969
     atom    3 type  2   force =    -0.00771700    0.00289653    0.27239340
     atom    4 type  1   force =    -0.00616649    0.01232318    0.00470186
     atom    5 type  2   force =     0.00659832   -0.03390552   -0.25400061
     atom    6 type  2   force =     0.00089334    0.00940876    0.26207506
     atom    7 type  1   force =    -0.02697068   -0.00978733   -0.01714575
     atom    8 type  2   force =     0.00539017   -0.00349958   -0.25271208
     atom    9 type  2   force =     0.01041237   -0.01051927    0.27595839
     atom   10 type  1   force =     0.00116297   -0.00458691   -0.00154339
     atom   11 type  2   force =     0.01548721    0.00788843   -0.25623183
     atom   12 type  2   force =    -0.01187257   -0.01242005    0.26354447
     atom   13 type  1   force =    -0.00049849    0.02158713   -0.01679148
     atom   14 type  2   force =     0.00757312   -0.00646356   -0.25686963
     atom   15 type  2   force =    -0.01850950   -0.00106914    0.26139650
     atom   16 type  1   force =     0.00371847    0.04591309   -0.02064916
     atom   17 type  2   force =     0.00168524   -0.02716419   -0.24781725
     atom   18 type  2   force =    -0.00415071   -0.00826445    0.27424565
     atom   19 type  1   force =     0.02392054   -0.01107385   -0.01315829
     atom   20 type  2   force =    -0.00025896   -0.02151259    0.26392641
     atom   21 type  1   force =     0.00335024    0.01706025    0.00536629
     atom   22 type  2   force =    -0.01429684    0.00608711   -0.23923592
     atom   23 type  2   force =     0.00345484   -0.01383116    0.26913205
     atom   24 type  1   force =     0.00684869    0.01039364   -0.02741024
     atom   25 type  2   force =     0.06654772   -0.17333382    0.11644877
     atom   26 type  2   force =    -0.00057119   -0.01486421    0.27147857
     atom   27 type  1   force =     0.00109594    0.02007032    0.00896819
     atom   28 type  2   force =    -0.00390053   -0.02204559   -0.26984566
     atom   29 type  2   force =     0.00519322   -0.00182286    0.26566925
     atom   30 type  1   force =    -0.00134895    0.01188788    0.00756590
     atom   31 type  2   force =    -0.00679696   -0.00130069   -0.25154892
     atom   32 type  2   force =    -0.00586633   -0.01233713    0.27241524
     atom   33 type  1   force =    -0.00233441   -0.00297814    0.00260036
     atom   34 type  2   force =     0.00341926   -0.03905175   -0.26073657
     atom   35 type  2   force =    -0.00032539   -0.01117084    0.27334089
     atom   36 type  3   force =    -0.01151464    0.03732048   -0.04794032
     The ionic contribution  to forces
     atom    1 type  1   force =     0.41429891    0.31831807    5.62944782
     atom    2 type  2   force =    -0.82519691    0.45928506   39.22696382
     atom    3 type  2   force =    -0.19189221    0.02919834  -36.11970312
     atom    4 type  1   force =     0.05302534    0.63680776    0.66735693
     atom    5 type  2   force =    -0.95659793    1.54494715   38.74521198
     atom    6 type  2   force =     0.34825999   -0.48107248  -38.02207129
     atom    7 type  1   force =    -2.60039601   -2.85027675    2.55916401
     atom    8 type  2   force =    -1.00931552   -0.00070920   37.38816560
     atom    9 type  2   force =     0.33369177   -0.04549080  -37.99517909
     atom   10 type  1   force =    -1.26871713   -0.40063539    5.51886635
     atom   11 type  2   force =    -0.53788709   -1.66758486   39.12181954
     atom   12 type  2   force =     0.44610120    0.67303231  -37.86500498
     atom   13 type  1   force =     0.68331790    1.27224523    2.47040382
     atom   14 type  2   force =     0.29656513    0.07263495   38.42475327
     atom   15 type  2   force =     0.19068886   -0.04858088  -36.84647489
     atom   16 type  1   force =     0.02627754    4.01018883    0.47179147
     atom   17 type  2   force =     0.86306447    1.63368365   37.89841361
     atom   18 type  2   force =    -0.14854612   -0.61423670  -38.58204338
     atom   19 type  1   force =     2.78185399   -2.59866298    0.56746356
     atom   20 type  2   force =     0.23942262   -0.20789322  -38.47252273
     atom   21 type  1   force =     0.25326770   -0.05085842    0.96584586
     atom   22 type  2   force =     0.67680656   -2.04364000   38.25583221
     atom   23 type  2   force =    -0.06358481    0.62813383  -38.34657114
     atom   24 type  1   force =    -0.78396370    1.38720449    5.52672527
     atom   25 type  2   force =     0.32804097    1.32546695   37.86340101
     atom   26 type  2   force =    -0.29583659    0.09221769  -37.43752384
     atom   27 type  1   force =     0.01507797    0.50895098   -2.30685190
     atom   28 type  2   force =    -0.00898345    1.12324374   38.18027487
     atom   29 type  2   force =    -0.28158285   -0.39677629  -37.27971444
     atom   30 type  1   force =    -0.41696891   -1.04311105   -0.10497630
     atom   31 type  2   force =     1.22112063   -0.12011200   37.30976736
     atom   32 type  2   force =    -0.48266490   -0.02146631  -38.64012916
     atom   33 type  1   force =     0.71823674   -1.15232180    1.31923865
     atom   34 type  2   force =    -0.01067766   -1.70834248   39.21484517
     atom   35 type  2   force =    -0.32860886    0.44276127  -37.86311762
     atom   36 type  3   force =     0.32230237   -0.70654870    8.55613170
     The local contribution  to forces
     atom    1 type  1   force =    -0.40226054   -0.37858775   -5.60893273
     atom    2 type  2   force =     0.81572545   -0.44821573  -38.98192356
     atom    3 type  2   force =     0.19135238   -0.02241451   35.86543025
     atom    4 type  1   force =    -0.03989349   -0.64960677   -0.67031464
     atom    5 type  2   force =     0.94902625   -1.51841759  -38.51736597
     atom    6 type  2   force =    -0.34478791    0.48330591   37.78208580
     atom    7 type  1   force =     2.63132293    2.85359552   -2.54928306
     atom    8 type  2   force =     1.00488423   -0.00112288  -37.13711515
     atom    9 type  2   force =    -0.32996960    0.06019304   37.75183305
     atom   10 type  1   force =     1.25882163    0.41599079   -5.54430544
     atom   11 type  2   force =     0.52768921    1.65891386  -38.89058167
     atom   12 type  2   force =    -0.43513102   -0.65985226   37.62753392
     atom   13 type  1   force =    -0.66925720   -1.28983607   -2.45351448
     atom   14 type  2   force =    -0.29052375   -0.06532249  -38.17903241
     atom   15 type  2   force =    -0.18748588    0.05114354   36.59731388
     atom   16 type  1   force =    -0.02956425   -4.05314703   -0.44733992
     atom   17 type  2   force =    -0.85687526   -1.60051890  -37.66925952
     atom   18 type  2   force =     0.14840714    0.61580829   38.34393013
     atom   19 type  1   force =    -2.79907604    2.60470559   -0.55768723
     atom   20 type  2   force =    -0.23661324    0.22347339   38.23100572
     atom   21 type  1   force =    -0.26445695    0.03981454   -0.97194698
     atom   22 type  2   force =    -0.66521774    2.03641609  -38.03410421
     atom   23 type  2   force =     0.05884048   -0.61334235   38.10763725
     atom   24 type  1   force =     0.74869745   -1.39356338   -5.52435887
     atom   25 type  2   force =    -0.36051545   -1.15159518  -37.98437790
     atom   26 type  2   force =     0.28467741   -0.07923945   37.18365069
     atom   27 type  1   force =    -0.02099371   -0.53689533    2.30770168
     atom   28 type  2   force =     0.01127659   -1.09744784  -37.93700897
     atom   29 type  2   force =     0.27851220    0.39685578   37.03243790
     atom   30 type  1   force =     0.41536301    1.04474726    0.09207763
     atom   31 type  2   force =    -1.21356861    0.11973986  -37.06128495
     atom   32 type  2   force =     0.47761896    0.03880057   38.39721080
     atom   33 type  1   force =    -0.70567971    1.14283084   -1.34759504
     atom   34 type  2   force =     0.00943845    1.70098816  -38.98358845
     atom   35 type  2   force =     0.32148492   -0.42644685   37.62551280
     atom   36 type  3   force =    -0.30783814    0.67184582   -8.48075471
     The core correction contribution to forces
     atom    1 type  1   force =     0.00000000    0.00000000    0.00000000
     atom    2 type  2   force =     0.00019105   -0.00037179    0.02039749
     atom    3 type  2   force =     0.00029975   -0.00025166   -0.02099436
     atom    4 type  1   force =     0.00000000    0.00000000    0.00000000
     atom    5 type  2   force =    -0.00065474    0.00196445    0.02035075
     atom    6 type  2   force =     0.00007684   -0.00095015   -0.02080827
     atom    7 type  1   force =     0.00000000    0.00000000    0.00000000
     atom    8 type  2   force =    -0.00023770    0.00047300    0.02028392
     atom    9 type  2   force =    -0.00035118    0.00065131   -0.02092949
     atom   10 type  1   force =     0.00000000    0.00000000    0.00000000
     atom   11 type  2   force =    -0.00073654   -0.00074138    0.02040025
     atom   12 type  2   force =     0.00110115    0.00107655   -0.02082427
     atom   13 type  1   force =     0.00000000    0.00000000    0.00000000
     atom   14 type  2   force =    -0.00015944   -0.00015984    0.02024555
     atom   15 type  2   force =     0.00099786    0.00011884   -0.02059321
     atom   16 type  1   force =     0.00000000    0.00000000    0.00000000
     atom   17 type  2   force =     0.00012638    0.00161232    0.02004477
     atom   18 type  2   force =     0.00014446   -0.00013781   -0.02104854
     atom   19 type  1   force =     0.00000000    0.00000000    0.00000000
     atom   20 type  2   force =     0.00014880    0.00079796   -0.02109616
     atom   21 type  1   force =     0.00000000    0.00000000    0.00000000
     atom   22 type  2   force =     0.00075312   -0.00096367    0.01930825
     atom   23 type  2   force =    -0.00036721    0.00113300   -0.02093790
     atom   24 type  1   force =     0.00000000    0.00000000    0.00000000
     atom   25 type  2   force =    -0.00392607    0.01160175   -0.00237161
     atom   26 type  2   force =    -0.00025095    0.00079566   -0.02130052
     atom   27 type  1   force =     0.00000000    0.00000000    0.00000000
     atom   28 type  2   force =     0.00017016    0.00182597    0.02064848
     atom   29 type  2   force =    -0.00051232   -0.00031649   -0.02070416
     atom   30 type  1   force =     0.00000000    0.00000000    0.00000000
     atom   31 type  2   force =     0.00043553    0.00015923    0.02039351
     atom   32 type  2   force =     0.00006353    0.00075422   -0.02096152
     atom   33 type  1   force =     0.00000000    0.00000000    0.00000000
     atom   34 type  2   force =    -0.00005784    0.00089657    0.02030738
     atom   35 type  2   force =    -0.00018815    0.00096948   -0.02120416
     atom   36 type  3   force =     0.00000000    0.00000000    0.00000000
     The Hubbard contrib.    to forces
     atom    1 type  1   force =     0.00000000    0.00000000    0.00000000
     atom    2 type  2   force =     0.00000000    0.00000000    0.00000000
     atom    3 type  2   force =     0.00000000    0.00000000    0.00000000
     atom    4 type  1   force =     0.00000000    0.00000000    0.00000000
     atom    5 type  2   force =     0.00000000    0.00000000    0.00000000
     atom    6 type  2   force =     0.00000000    0.00000000    0.00000000
     atom    7 type  1   force =     0.00000000    0.00000000    0.00000000
     atom    8 type  2   force =     0.00000000    0.00000000    0.00000000
     atom    9 type  2   force =     0.00000000    0.00000000    0.00000000
     atom   10 type  1   force =     0.00000000    0.00000000    0.00000000
     atom   11 type  2   force =     0.00000000    0.00000000    0.00000000
     atom   12 type  2   force =     0.00000000    0.00000000    0.00000000
     atom   13 type  1   force =     0.00000000    0.00000000    0.00000000
     atom   14 type  2   force =     0.00000000    0.00000000    0.00000000
     atom   15 type  2   force =     0.00000000    0.00000000    0.00000000
     atom   16 type  1   force =     0.00000000    0.00000000    0.00000000
     atom   17 type  2   force =     0.00000000    0.00000000    0.00000000
     atom   18 type  2   force =     0.00000000    0.00000000    0.00000000
     atom   19 type  1   force =     0.00000000    0.00000000    0.00000000
     atom   20 type  2   force =     0.00000000    0.00000000    0.00000000
     atom   21 type  1   force =     0.00000000    0.00000000    0.00000000
     atom   22 type  2   force =     0.00000000    0.00000000    0.00000000
     atom   23 type  2   force =     0.00000000    0.00000000    0.00000000
     atom   24 type  1   force =     0.00000000    0.00000000    0.00000000
     atom   25 type  2   force =     0.00000000    0.00000000    0.00000000
     atom   26 type  2   force =     0.00000000    0.00000000    0.00000000
     atom   27 type  1   force =     0.00000000    0.00000000    0.00000000
     atom   28 type  2   force =     0.00000000    0.00000000    0.00000000
     atom   29 type  2   force =     0.00000000    0.00000000    0.00000000
     atom   30 type  1   force =     0.00000000    0.00000000    0.00000000
     atom   31 type  2   force =     0.00000000    0.00000000    0.00000000
     atom   32 type  2   force =     0.00000000    0.00000000    0.00000000
     atom   33 type  1   force =     0.00000000    0.00000000    0.00000000
     atom   34 type  2   force =     0.00000000    0.00000000    0.00000000
     atom   35 type  2   force =     0.00000000    0.00000000    0.00000000
     atom   36 type  3   force =     0.00000000    0.00000000    0.00000000
     The SCF correction term to forces
     atom    1 type  1   force =    -0.00008537   -0.00012191   -0.00117717
     atom    2 type  2   force =    -0.00008312   -0.00004732   -0.00047935
     atom    3 type  2   force =    -0.00004495   -0.00003497   -0.00037605
     atom    4 type  1   force =    -0.00013728    0.00009644   -0.00117801
     atom    5 type  2   force =    -0.00003051    0.00002871   -0.00054807
     atom    6 type  2   force =    -0.00002770    0.00003235   -0.00031207
     atom    7 type  1   force =    -0.00018377   -0.00003856   -0.00118552
     atom    8 type  2   force =    -0.00004760    0.00001356   -0.00055224
     atom    9 type  2   force =    -0.00007128    0.00001103   -0.00030797
     atom   10 type  1   force =    -0.00017357   -0.00005781   -0.00118111
     atom   11 type  2   force =    -0.00004050    0.00001458   -0.00053928
     atom   12 type  2   force =    -0.00003002   -0.00000958   -0.00029434
     atom   13 type  1   force =     0.00002477   -0.00008511   -0.00122693
     atom   14 type  2   force =     0.00005569   -0.00003983   -0.00050345
     atom   15 type  2   force =     0.00001251   -0.00003199   -0.00034425
     atom   16 type  1   force =     0.00001994    0.00021702   -0.00121329
     atom   17 type  2   force =     0.00002502    0.00006854   -0.00053673
     atom   18 type  2   force =     0.00003055    0.00003062   -0.00032309
     atom   19 type  1   force =     0.00019466   -0.00005781   -0.00115455
     atom   20 type  2   force =     0.00000427    0.00000649   -0.00024365
     atom   21 type  1   force =     0.00007808   -0.00006628   -0.00113465
     atom   22 type  2   force =     0.00007855   -0.00004538   -0.00054097
     atom   23 type  2   force =     0.00003104   -0.00001426   -0.00031074
     atom   24 type  1   force =     0.00006641   -0.00007555   -0.00124740
     atom   25 type  2   force =     0.00003628   -0.00001967   -0.00059092
     atom   26 type  2   force =     0.00003986   -0.00002322   -0.00034841
     atom   27 type  1   force =     0.00010339    0.00009870   -0.00110376
     atom   28 type  2   force =     0.00000640    0.00004882   -0.00051416
     atom   29 type  2   force =     0.00000431    0.00002253   -0.00035730
     atom   30 type  1   force =    -0.00000621   -0.00000595   -0.00114865
     atom   31 type  2   force =     0.00005816   -0.00000457   -0.00053930
     atom   32 type  2   force =     0.00006062    0.00001187   -0.00029572
     atom   33 type  1   force =     0.00008381   -0.00001663   -0.00126648
     atom   34 type  2   force =    -0.00003450   -0.00001194   -0.00053427
     atom   35 type  2   force =     0.00000222    0.00001282   -0.00032479
     atom   36 type  3   force =     0.00001111   -0.00001708   -0.00003192

     Total force =     0.115096     Total SCF correction =     0.004647

     BFGS Geometry Optimization
     Energy error            =      0.0E+00 Ry
     Gradient error          =      4.6E-02 Ry/Bohr

     number of scf cycles    =   1
     number of bfgs steps    =   0

     energy             new  =   -2205.5428903629 Ry

     new trust radius        =       0.0465943387 bohr
     new conv_thr            =       0.0000010000 Ry


ATOMIC_POSITIONS (angstrom)
Mo            6.5801528277        1.7764393079        2.8288108925
S             8.1649780578        0.8188851355        4.4343676741
S             8.1889983999        0.8162147562        1.2761471229
Mo            8.0987756360        4.4948582360        2.7181014456
S             6.4990313608        3.7195650952        4.3432828212
S             6.5556856871        3.5174147240        1.1217765877
Mo            6.4919778074        7.2149959261        2.6673962315
S             8.0820839762        6.3413091384        4.2520072896
S             8.0881735774        6.3072684033        1.0898658011
Mo            8.1559059489        9.9078503205        2.8285416993
S             6.4975552027        8.9421301537        4.3803727411
S             6.6180363000        9.0496800612        1.1425127331
Mo            3.4288493945        1.7490276170        2.7758571477
S             4.9823148803        0.8172868250        4.3550639564
S             5.0502683595        0.8471004625        1.2220370385
Mo            4.9799955215        4.5148585709        2.6342381074
S             3.4320885637        3.6756665835        4.2801401299
S             3.4357429929        3.5446323282        1.0661462105
Mo            3.4575092453        7.2136335920        2.6282597143
S             4.9846646181        6.3242207420        1.0378032011
Mo            5.0081568207        9.9047507630        2.7423951392
S             3.4699650056        8.9426177961        4.3262411972
S             3.4075687111        9.0660922353        1.1007876475
Mo            0.2810875101        1.7496067074        2.8355154466
S             1.8664344150        0.7991097094        4.3942290196
S             1.8544806924        0.8538387209        1.2072445834
Mo            1.8581953005        4.4915542900        2.6647922074
S             0.2714564990        3.6573775542        4.3341567794
S             0.2320854014        3.5261731791        1.1705891118
Mo            0.2695850347        7.2238016483        2.6982500773
S             1.9028988642        6.3119975125        4.2313112502
S             1.8565291924        6.3133956315        1.0489029725
Mo            1.8498003972        9.9335340524        2.7586300232
S             0.2970174730        9.0659109789        4.4087163460
S             0.2727307983        9.0467694511        1.1579023302
H             2.1030687610       10.9302782013        5.4923688602



     Writing config-only to output data dir ./MoS2-V-O.save/
     NEW-OLD atomic charge density approx. for the potential

     negative rho (up, down):  1.412E-04 0.000E+00

     total cpu time spent up to now is       95.9 secs

     Self-consistent Calculation

     iteration #  1     ecut=    80.00 Ry     beta= 0.70
     Davidson diagonalization with overlap
     ethr =  1.00E-06,  avg # of iterations = 12.0

     negative rho (up, down):  1.312E-04 0.000E+00

     total cpu time spent up to now is      108.8 secs

     total energy              =   -2205.55345969 Ry
     estimated scf accuracy    <       0.00112087 Ry

     iteration #  2     ecut=    80.00 Ry     beta= 0.70
     Davidson diagonalization with overlap
     ethr =  3.65E-07,  avg # of iterations =  2.0

     negative rho (up, down):  1.425E-04 0.000E+00

     total cpu time spent up to now is      123.2 secs

     total energy              =   -2205.55349129 Ry
     estimated scf accuracy    <       0.00028310 Ry

     iteration #  3     ecut=    80.00 Ry     beta= 0.70
     Davidson diagonalization with overlap
     ethr =  9.22E-08,  avg # of iterations =  2.0

     negative rho (up, down):  1.472E-04 0.000E+00

     total cpu time spent up to now is      140.2 secs

     total energy              =   -2205.55351209 Ry
     estimated scf accuracy    <       0.00011558 Ry

     iteration #  4     ecut=    80.00 Ry     beta= 0.70
     Davidson diagonalization with overlap
     ethr =  3.76E-08,  avg # of iterations =  5.0

     negative rho (up, down):  1.494E-04 0.000E+00

     total cpu time spent up to now is      156.2 secs

     total energy              =   -2205.55352704 Ry
     estimated scf accuracy    <       0.00000487 Ry

     iteration #  5     ecut=    80.00 Ry     beta= 0.70
     Davidson diagonalization with overlap
     ethr =  1.59E-09,  avg # of iterations =  7.0

     negative rho (up, down):  1.472E-04 0.000E+00

     total cpu time spent up to now is      175.3 secs

     total energy              =   -2205.55353016 Ry
     estimated scf accuracy    <       0.00000270 Ry

     iteration #  6     ecut=    80.00 Ry     beta= 0.70
     Davidson diagonalization with overlap
     ethr =  8.80E-10,  avg # of iterations =  2.0

     negative rho (up, down):  1.369E-04 0.000E+00

     total cpu time spent up to now is      177.2 secs

     End of self-consistent calculation

          k = 0.0000 0.0000 0.0000 (105382 PWs)   bands (ev):

   -62.8690 -62.8443 -62.8090 -62.7932 -62.7891 -62.7826 -62.7702 -62.7682
   -62.7163 -62.5983 -62.5655 -62.5280 -37.1733 -37.1371 -37.1100 -37.0882
   -37.0796 -37.0631 -37.0588 -37.0419 -37.0130 -37.0060 -36.9970 -36.9796
   -36.9741 -36.9706 -36.9671 -36.9539 -36.9500 -36.9465 -36.9416 -36.9366
   -36.9015 -36.8775 -36.8649 -36.8341 -36.8278 -36.8066 -36.7991 -36.7874
   -36.7690 -36.7512 -36.7380 -36.7223 -36.7062 -36.6712 -36.5530 -36.5412
   -16.3867 -15.6755 -15.1107 -15.0202 -14.8628 -14.7815 -14.6478 -14.4257
   -14.3808 -14.3526 -14.3195 -14.3017 -14.2752 -14.2181 -14.1155 -14.0670
   -14.0387 -14.0356 -13.9545 -13.8791 -13.7566 -13.7441 -13.7205  -9.1397
    -7.5747  -7.3685  -7.3179  -7.2435  -7.1970  -7.1579  -7.1112  -7.0683
    -6.7942  -6.7366  -6.7144  -6.6354  -6.5220  -6.4687  -6.4428  -6.3657
    -6.2925  -6.2215  -6.1542  -5.9228  -5.8938  -5.8442  -5.7529  -5.7273
    -5.7073  -5.6529  -5.5981  -5.5876  -5.5445  -5.4811  -5.4788  -5.4118
    -5.3789  -5.2855  -5.2562  -5.1138  -5.0059  -4.9354  -4.9153  -4.8992
    -4.8619  -4.7639  -4.5920  -4.5690  -4.4258  -4.3036  -4.2197  -4.1593
    -4.1154  -4.0115  -3.9842  -3.8337  -3.7819  -3.7227  -3.6994  -3.6477
    -3.6158  -3.5299  -3.4825  -3.4601  -3.4551  -3.3872  -3.3809  -3.3150
    -3.3055  -3.1433  -3.0753  -2.8657  -2.8230  -2.7470  -2.6923  -2.6856
    -2.6633  -2.6219  -2.5893  -2.5372  -2.4607  -2.1983  -1.9491  -1.9294
    -1.8389  -0.6802  -0.6460  -0.5338  -0.1347  -0.0741  -0.0578  -0.0065
     0.1221   0.1877   0.2075   0.3020   0.3326   0.3392   0.4360   0.5282
     0.5482   0.6340   0.6404   0.6751   0.6781   0.7356   0.7674   0.8048
     0.8292   0.8630   0.9113   0.9528   1.0044   1.0511   1.1124   1.2002
     1.4454

     the Fermi energy is    -0.7321 ev

!    total energy              =   -2205.55353055 Ry
     estimated scf accuracy    <       0.00000037 Ry
     smearing contrib. (-TS)   =      -0.00933416 Ry
     internal energy E=F+TS    =   -2205.54419639 Ry

     The total energy is F=E-TS. E is the sum of the following terms:
     one-electron contribution =  -18049.10449958 Ry
     hartree contribution      =    9011.94384134 Ry
     xc contribution           =    -385.36958041 Ry
     ewald contribution        =    7216.98604226 Ry

     convergence has been achieved in   6 iterations

     negative rho (up, down):  1.369E-04 0.000E+00

     Forces acting on atoms (cartesian axes, Ry/au):

     atom    1 type  1   force =     0.00209989   -0.01173030    0.00095165
     atom    2 type  2   force =    -0.01476784    0.01116242   -0.00150260
     atom    3 type  2   force =    -0.01018477    0.00783112   -0.01030506
     atom    4 type  1   force =     0.00582506    0.00143821    0.00166840
     atom    5 type  2   force =     0.00000139   -0.00536587   -0.00525000
     atom    6 type  2   force =     0.00373298    0.00694644    0.00272315
     atom    7 type  1   force =     0.00414042   -0.00545687   -0.00174675
     atom    8 type  2   force =     0.00050740   -0.00355786    0.01195307
     atom    9 type  2   force =     0.01201641    0.00402858    0.00742878
     atom   10 type  1   force =    -0.00295691    0.00869585   -0.00973284
     atom   11 type  2   force =     0.00378101   -0.00081149   -0.00819998
     atom   12 type  2   force =    -0.00240484    0.00148163    0.00049525
     atom   13 type  1   force =     0.01113327    0.00336808   -0.00091645
     atom   14 type  2   force =     0.01037515   -0.00027166    0.00714561
     atom   15 type  2   force =    -0.00979736    0.00157154   -0.00714344
     atom   16 type  1   force =     0.00115000    0.00321395    0.00138983
     atom   17 type  2   force =     0.00718016    0.00603451    0.00195444
     atom   18 type  2   force =    -0.00311184   -0.00505161    0.01192344
     atom   19 type  1   force =     0.00416656   -0.00453219    0.00066757
     atom   20 type  2   force =     0.00261360   -0.00492056   -0.00179596
     atom   21 type  1   force =    -0.00480031    0.00391996    0.00144978
     atom   22 type  2   force =    -0.00167669   -0.00227592   -0.00132124
     atom   23 type  2   force =     0.00055785   -0.00020655    0.00272283
     atom   24 type  1   force =    -0.01611901    0.00165930   -0.01149188
     atom   25 type  2   force =     0.01978040    0.00245379   -0.00331766
     atom   26 type  2   force =    -0.00838240    0.00051281   -0.00370643
     atom   27 type  1   force =    -0.00344134   -0.00396795    0.00745373
     atom   28 type  2   force =    -0.00210431    0.00204791   -0.00545476
     atom   29 type  2   force =     0.00062256    0.00018481   -0.00494256
     atom   30 type  1   force =    -0.00228174    0.00334462    0.00281023
     atom   31 type  2   force =     0.00084403   -0.00051373    0.01012261
     atom   32 type  2   force =    -0.00868470    0.00382409    0.00712662
     atom   33 type  1   force =     0.00450771   -0.00759179   -0.00860596
     atom   34 type  2   force =     0.00062817   -0.03238163   -0.01543408
     atom   35 type  2   force =    -0.00693132    0.00620256    0.00462810
     atom   36 type  3   force =     0.00198134    0.00871380    0.01625253
     The non-local contrib.  to forces
     atom    1 type  1   force =     0.00048723    0.03535744   -0.01024840
     atom    2 type  2   force =    -0.00921773    0.00227277   -0.26356707
     atom    3 type  2   force =    -0.00818017    0.00062666    0.26624750
     atom    4 type  1   force =    -0.00495006    0.01330813    0.00411543
     atom    5 type  2   force =     0.00790151   -0.03473946   -0.25406606
     atom    6 type  2   force =     0.00051504    0.00566615    0.26396646
     atom    7 type  1   force =    -0.02695831   -0.01016025   -0.01902829
     atom    8 type  2   force =     0.00572735   -0.00298418   -0.25680532
     atom    9 type  2   force =     0.00882983   -0.01109992    0.27391393
     atom   10 type  1   force =     0.00049954   -0.00423876   -0.00249752
     atom   11 type  2   force =     0.01370584    0.00808838   -0.25868269
     atom   12 type  2   force =    -0.01325819   -0.01244300    0.26199467
     atom   13 type  1   force =     0.00095804    0.02265727   -0.01722916
     atom   14 type  2   force =     0.00532424   -0.00688812   -0.25748503
     atom   15 type  2   force =    -0.01481121   -0.00153502    0.26174811
     atom   16 type  1   force =     0.00311845    0.04715761   -0.02149909
     atom   17 type  2   force =     0.00081045   -0.02803292   -0.24720364
     atom   18 type  2   force =    -0.00335944   -0.00667024    0.27247520
     atom   19 type  1   force =     0.02529746   -0.01061242   -0.01402372
     atom   20 type  2   force =    -0.00012481   -0.02080915    0.26231646
     atom   21 type  1   force =     0.00212370    0.01751413    0.00389144
     atom   22 type  2   force =    -0.01260485    0.00494552   -0.24098110
     atom   23 type  2   force =     0.00478479   -0.01525222    0.26548513
     atom   24 type  1   force =     0.00265746    0.01211685   -0.02641516
     atom   25 type  2   force =     0.06284910   -0.18404437    0.12055234
     atom   26 type  2   force =     0.00130910   -0.01381488    0.27312486
     atom   27 type  1   force =     0.00035335    0.01861874    0.00803591
     atom   28 type  2   force =    -0.00440057   -0.02291536   -0.26938810
     atom   29 type  2   force =     0.00406085   -0.00193337    0.26467435
     atom   30 type  1   force =    -0.00150107    0.01364158    0.00633747
     atom   31 type  2   force =    -0.00697056   -0.00132214   -0.25647749
     atom   32 type  2   force =    -0.00377076   -0.01336396    0.27223691
     atom   33 type  1   force =    -0.00103504   -0.00534318    0.00144797
     atom   34 type  2   force =     0.00180718   -0.02898302   -0.26524089
     atom   35 type  2   force =    -0.00017811   -0.01036074    0.26768431
     atom   36 type  3   force =    -0.01016217    0.03570036   -0.04649883
     The ionic contribution  to forces
     atom    1 type  1   force =     0.14454158    0.59670964    5.78999462
     atom    2 type  2   force =    -0.56842802    0.29653015   39.34686121
     atom    3 type  2   force =    -0.21871860    0.02875892  -36.27026796
     atom    4 type  1   force =    -0.04091401    0.72288264    0.74261846
     atom    5 type  2   force =    -0.95618648    1.56352492   38.69272329
     atom    6 type  2   force =     0.29405119   -0.51467150  -37.95385966
     atom    7 type  1   force =    -2.60441550   -2.78261293    2.47150405
     atom    8 type  2   force =    -1.01786931    0.02839273   37.48487700
     atom    9 type  2   force =     0.31564748   -0.08868004  -37.95228904
     atom   10 type  1   force =    -1.03338868   -0.45391537    5.22136604
     atom   11 type  2   force =    -0.50159240   -1.67513017   39.07740485
     atom   12 type  2   force =     0.35873770    0.61615559  -37.85096946
     atom   13 type  1   force =     0.44477999    1.22605624    2.55448105
     atom   14 type  2   force =     0.19811221    0.04928824   38.52971859
     atom   15 type  2   force =     0.21381149    0.00519124  -36.91388226
     atom   16 type  1   force =     0.04852988    3.95211355    0.53346311
     atom   17 type  2   force =     0.82790351    1.60188295   37.92396843
     atom   18 type  2   force =    -0.15203571   -0.56478318  -38.50093731
     atom   19 type  1   force =     2.71864838   -2.66119228    0.55454476
     atom   20 type  2   force =     0.21731095   -0.22564406  -38.50276749
     atom   21 type  1   force =     0.25814015   -0.15964335    1.07327455
     atom   22 type  2   force =     0.63628502   -2.01871385   38.29155871
     atom   23 type  2   force =    -0.00015994    0.56409982  -38.35631997
     atom   24 type  1   force =    -0.28958220    1.13338388    5.24437743
     atom   25 type  2   force =     0.15375589    1.23255847   37.71530677
     atom   26 type  2   force =    -0.23790183    0.15622702  -37.34204377
     atom   27 type  1   force =     0.08268096    0.59708368   -2.04035095
     atom   28 type  2   force =     0.03827818    1.01055320   38.20317357
     atom   29 type  2   force =    -0.22445650   -0.30924102  -37.34217041
     atom   30 type  1   force =    -0.35047005   -1.23242679   -0.11102428
     atom   31 type  2   force =     1.21838452   -0.09495274   37.34944611
     atom   32 type  2   force =    -0.44057101   -0.09021771  -38.55751006
     atom   33 type  1   force =     0.52554082   -0.81287441    1.07454110
     atom   34 type  2   force =    -0.02229449   -1.44686635   39.14064581
     atom   35 type  2   force =    -0.31641350    0.43433523  -37.83647153
     atom   36 type  3   force =     0.28025831   -0.68416235    8.51501464
     The local contribution  to forces
     atom    1 type  1   force =    -0.14262695   -0.64413118   -5.77907664
     atom    2 type  2   force =     0.56275268   -0.28738628  -39.10541104
     atom    3 type  2   force =     0.21635157   -0.02136943   36.01444368
     atom    4 type  1   force =     0.05177302   -0.73466736   -0.74544417
     atom    5 type  2   force =     0.94905139   -1.53623015  -38.46449001
     atom    6 type  2   force =    -0.29084123    0.51670570   37.71323528
     atom    7 type  1   force =     2.63566681    2.78739023   -2.45461661
     atom    8 type  2   force =     1.01298244   -0.02935619  -37.23669575
     atom    9 type  2   force =    -0.31214035    0.10315338   37.70655211
     atom   10 type  1   force =     1.02978877    0.46690763   -5.22902597
     atom   11 type  2   force =     0.49235563    1.66702302  -38.84761969
     atom   12 type  2   force =    -0.34901272   -0.60320742   37.61004988
     atom   13 type  1   force =    -0.43439194   -1.24554075   -2.53854775
     atom   14 type  2   force =    -0.19293043   -0.04256400  -38.28559257
     atom   15 type  2   force =    -0.20958422   -0.00229081   36.66539237
     atom   16 type  1   force =    -0.05032237   -3.99604617   -0.51092592
     atom   17 type  2   force =    -0.82170387   -1.56947941  -37.69497012
     atom   18 type  2   force =     0.15216703    0.56654800   38.26117810
     atom   19 type  1   force =    -2.73982580    2.66742299   -0.54020993
     atom   20 type  2   force =    -0.21470887    0.24083453   38.25945854
     atom   21 type  1   force =    -0.26507988    0.14605734   -1.07615736
     atom   22 type  2   force =    -0.62604736    2.01238842  -38.07147958
     atom   23 type  2   force =    -0.00363177   -0.55020331   38.11428697
     atom   24 type  1   force =     0.27038849   -1.14393749   -5.23000651
     atom   25 type  2   force =    -0.19310452   -1.05816614  -37.83657967
     atom   26 type  2   force =     0.22847116   -0.14271070   37.08636639
     atom   27 type  1   force =    -0.08671207   -0.61954362    2.03947610
     atom   28 type  2   force =    -0.03620895   -0.98737281  -37.96009253
     atom   29 type  2   force =     0.22140338    0.31157743   37.09305907
     atom   30 type  1   force =     0.34962267    1.22221548    0.10727783
     atom   31 type  2   force =    -1.21105058    0.09564062  -37.10352477
     atom   32 type  2   force =     0.43565419    0.10667705   38.31322780
     atom   33 type  1   force =    -0.51989274    0.81039940   -1.08501687
     atom   34 type  2   force =     0.02109723    1.44286338  -38.91146251
     atom   35 type  2   force =     0.30983095   -0.41870614   37.59434372
     atom   36 type  3   force =    -0.26812449    0.65716178   -8.45227737
     The core correction contribution to forces
     atom    1 type  1   force =     0.00000000    0.00000000    0.00000000
     atom    2 type  2   force =     0.00015923   -0.00029578    0.02040019
     atom    3 type  2   force =     0.00027244   -0.00014656   -0.02087405
     atom    4 type  1   force =     0.00000000    0.00000000    0.00000000
     atom    5 type  2   force =    -0.00071318    0.00200044    0.02031408
     atom    6 type  2   force =     0.00007665   -0.00081792   -0.02081788
     atom    7 type  1   force =     0.00000000    0.00000000    0.00000000
     atom    8 type  2   force =    -0.00023929    0.00045574    0.02040935
     atom    9 type  2   force =    -0.00026350    0.00063048   -0.02089906
     atom   10 type  1   force =     0.00000000    0.00000000    0.00000000
     atom   11 type  2   force =    -0.00060864   -0.00075291    0.02046248
     atom   12 type  2   force =     0.00108624    0.00104516   -0.02077557
     atom   13 type  1   force =     0.00000000    0.00000000    0.00000000
     atom   14 type  2   force =    -0.00010188   -0.00015343    0.02030475
     atom   15 type  2   force =     0.00087833    0.00017499   -0.02061809
     atom   16 type  1   force =     0.00000000    0.00000000    0.00000000
     atom   17 type  2   force =     0.00016571    0.00165739    0.02002847
     atom   18 type  2   force =     0.00009807   -0.00017093   -0.02100855
     atom   19 type  1   force =     0.00000000    0.00000000    0.00000000
     atom   20 type  2   force =     0.00013809    0.00075570   -0.02106560
     atom   21 type  1   force =     0.00000000    0.00000000    0.00000000
     atom   22 type  2   force =     0.00063676   -0.00091328    0.01938871
     atom   23 type  2   force =    -0.00035223    0.00114420   -0.02086973
     atom   24 type  1   force =     0.00000000    0.00000000    0.00000000
     atom   25 type  2   force =    -0.00377848    0.01205464   -0.00274302
     atom   26 type  2   force =    -0.00029143    0.00080757   -0.02130896
     atom   27 type  1   force =     0.00000000    0.00000000    0.00000000
     atom   28 type  2   force =     0.00020451    0.00177673    0.02067991
     atom   29 type  2   force =    -0.00042525   -0.00023412   -0.02071665
     atom   30 type  1   force =     0.00000000    0.00000000    0.00000000
     atom   31 type  2   force =     0.00042283    0.00020335    0.02050461
     atom   32 type  2   force =    -0.00003148    0.00074434   -0.02093049
     atom   33 type  1   force =     0.00000000    0.00000000    0.00000000
     atom   34 type  2   force =    -0.00000650    0.00059744    0.02046322
     atom   35 type  2   force =    -0.00021304    0.00092206   -0.02105577
     atom   36 type  3   force =     0.00000000    0.00000000    0.00000000
     The Hubbard contrib.    to forces
     atom    1 type  1   force =     0.00000000    0.00000000    0.00000000
     atom    2 type  2   force =     0.00000000    0.00000000    0.00000000
     atom    3 type  2   force =     0.00000000    0.00000000    0.00000000
     atom    4 type  1   force =     0.00000000    0.00000000    0.00000000
     atom    5 type  2   force =     0.00000000    0.00000000    0.00000000
     atom    6 type  2   force =     0.00000000    0.00000000    0.00000000
     atom    7 type  1   force =     0.00000000    0.00000000    0.00000000
     atom    8 type  2   force =     0.00000000    0.00000000    0.00000000
     atom    9 type  2   force =     0.00000000    0.00000000    0.00000000
     atom   10 type  1   force =     0.00000000    0.00000000    0.00000000
     atom   11 type  2   force =     0.00000000    0.00000000    0.00000000
     atom   12 type  2   force =     0.00000000    0.00000000    0.00000000
     atom   13 type  1   force =     0.00000000    0.00000000    0.00000000
     atom   14 type  2   force =     0.00000000    0.00000000    0.00000000
     atom   15 type  2   force =     0.00000000    0.00000000    0.00000000
     atom   16 type  1   force =     0.00000000    0.00000000    0.00000000
     atom   17 type  2   force =     0.00000000    0.00000000    0.00000000
     atom   18 type  2   force =     0.00000000    0.00000000    0.00000000
     atom   19 type  1   force =     0.00000000    0.00000000    0.00000000
     atom   20 type  2   force =     0.00000000    0.00000000    0.00000000
     atom   21 type  1   force =     0.00000000    0.00000000    0.00000000
     atom   22 type  2   force =     0.00000000    0.00000000    0.00000000
     atom   23 type  2   force =     0.00000000    0.00000000    0.00000000
     atom   24 type  1   force =     0.00000000    0.00000000    0.00000000
     atom   25 type  2   force =     0.00000000    0.00000000    0.00000000
     atom   26 type  2   force =     0.00000000    0.00000000    0.00000000
     atom   27 type  1   force =     0.00000000    0.00000000    0.00000000
     atom   28 type  2   force =     0.00000000    0.00000000    0.00000000
     atom   29 type  2   force =     0.00000000    0.00000000    0.00000000
     atom   30 type  1   force =     0.00000000    0.00000000    0.00000000
     atom   31 type  2   force =     0.00000000    0.00000000    0.00000000
     atom   32 type  2   force =     0.00000000    0.00000000    0.00000000
     atom   33 type  1   force =     0.00000000    0.00000000    0.00000000
     atom   34 type  2   force =     0.00000000    0.00000000    0.00000000
     atom   35 type  2   force =     0.00000000    0.00000000    0.00000000
     atom   36 type  3   force =     0.00000000    0.00000000    0.00000000
     The SCF correction term to forces
     atom    1 type  1   force =    -0.00030166    0.00033127    0.00028113
     atom    2 type  2   force =    -0.00003370    0.00003902    0.00021318
     atom    3 type  2   force =     0.00009030   -0.00004101    0.00014484
     atom    4 type  1   force =    -0.00008359   -0.00008774    0.00037774
     atom    5 type  2   force =    -0.00005156    0.00007584    0.00026776
     atom    6 type  2   force =    -0.00006836    0.00006148    0.00019802
     atom    7 type  1   force =    -0.00015228   -0.00007645    0.00039317
     atom    8 type  2   force =    -0.00009348   -0.00006850    0.00016685
     atom    9 type  2   force =    -0.00005675    0.00002215    0.00014991
     atom   10 type  1   force =     0.00014376   -0.00006019    0.00042368
     atom   11 type  2   force =    -0.00007911   -0.00004236    0.00023413
     atom   12 type  2   force =     0.00004242   -0.00007122    0.00019478
     atom   13 type  1   force =    -0.00021251    0.00019278    0.00037847
     atom   14 type  2   force =    -0.00002869    0.00004311    0.00019893
     atom   15 type  2   force =    -0.00009145    0.00002861    0.00021550
     atom   16 type  1   force =    -0.00017567   -0.00001358    0.00035081
     atom   17 type  2   force =     0.00000466    0.00000395    0.00013035
     atom   18 type  2   force =     0.00001851    0.00002220    0.00021506
     atom   19 type  1   force =     0.00004682   -0.00015302    0.00035553
     atom   20 type  2   force =    -0.00000145   -0.00006012    0.00026119
     atom   21 type  1   force =     0.00001602   -0.00001070    0.00044021
     atom   22 type  2   force =     0.00005403    0.00001474    0.00019107
     atom   23 type  2   force =    -0.00008270    0.00000242    0.00013949
     atom   24 type  1   force =     0.00041754    0.00009352    0.00055142
     atom   25 type  2   force =     0.00005872    0.00004866    0.00014499
     atom   26 type  2   force =     0.00003091    0.00000126    0.00015412
     atom   27 type  1   force =     0.00023672   -0.00012928    0.00029175
     atom   28 type  2   force =     0.00002282    0.00000362    0.00017146
     atom   29 type  2   force =     0.00004038    0.00001336    0.00021015
     atom   30 type  1   force =     0.00006701   -0.00008818    0.00021828
     atom   31 type  2   force =     0.00005813   -0.00008536    0.00017322
     atom   32 type  2   force =     0.00003468   -0.00001817    0.00010152
     atom   33 type  1   force =    -0.00010503    0.00022386    0.00042091
     atom   34 type  2   force =     0.00002505    0.00000438    0.00015935
     atom   35 type  2   force =     0.00004268    0.00000961    0.00012643
     atom   36 type  3   force =     0.00000999    0.00001147    0.00001314

     Total force =     0.075273     Total SCF correction =     0.001844
     Energy error            =      1.1E-02 Ry
     Gradient error          =      3.2E-02 Ry/Bohr

     number of scf cycles    =   2
     number of bfgs steps    =   1

     energy             old  =   -2205.5428903629 Ry
     energy             new  =   -2205.5535305502 Ry

     CASE: energy            _new < energy            _old

     new trust radius        =       0.0512537726 bohr
     new conv_thr            =       0.0000000324 Ry


ATOMIC_POSITIONS (angstrom)
Mo            6.5825212563        1.7669215715        2.8303735468
S             8.1534759168        0.8276375900        4.4333878175
S             8.1817837729        0.8220817942        1.2693217706
Mo            8.1031237281        4.4957286888        2.7192068366
S             6.4988687843        3.7156494831        4.3393413708
S             6.5584759651        3.5228546745        1.1235872021
Mo            6.4949619000        7.2109121218        2.6654584387
S             8.0824704575        6.3385872832        4.2613264975
S             8.0971064148        6.3102880484        1.0956707166
Mo            8.1531627325        9.9143927201        2.8196227174
S             6.5003854097        8.9414698038        4.3746900741
S             6.6165355348        9.0507952990        1.1433103165
Mo            3.4372126822        1.7515384764        2.7751645830
S             4.9901923163        0.8171797699        4.3604161407
S             5.0426780297        0.8482481350        1.2166693630
Mo            4.9807655940        4.5171993429        2.6353670535
S             3.4374096758        3.6802313238        4.2814534632
S             3.4333741077        3.5407753638        1.0751206707
Mo            3.4608173024        7.2102729411        2.6282308788
S             4.9865800253        6.3206112074        1.0367723295
Mo            5.0043633240        9.9078107277        2.7431226149
S             3.4687221737        8.9409707453        4.3255285497
S             3.4077604846        9.0661671397        1.1033843323
Mo            0.2681236803        1.7510441279        2.8256710619
S             1.8818888882        0.8018524884        4.3913946028
S             1.8480151475        0.8540529526        1.2045045057
Mo            1.8555592270        4.4882849806        2.6703507160
S             0.2699877544        3.6592243103        4.3300769206
S             0.2326372508        3.5260894364        1.1672045393
Mo            0.2678535702        7.2272442567        2.6993815456
S             1.9035544131        6.3115241693        4.2393491691
S             1.8499865452        6.3163766927        1.0542083293
Mo            1.8536600023        9.9275141437        2.7505344850
S             0.2976194854        9.0409947806        4.3980186199
S             0.2676051054        9.0512869621        1.1622191841
H             2.1046105759       10.9360328581        5.5053205730



     Writing config-only to output data dir ./MoS2-V-O.save/
     NEW-OLD atomic charge density approx. for the potential

     negative rho (up, down):  1.423E-04 0.000E+00

     total cpu time spent up to now is      180.5 secs

     Self-consistent Calculation

     iteration #  1     ecut=    80.00 Ry     beta= 0.70
     Davidson diagonalization with overlap
     ethr =  1.00E-06,  avg # of iterations = 17.0

     negative rho (up, down):  1.181E-04 0.000E+00

     total cpu time spent up to now is      194.9 secs

     total energy              =   -2205.56014436 Ry
     estimated scf accuracy    <       0.00080013 Ry

     iteration #  2     ecut=    80.00 Ry     beta= 0.70
     Davidson diagonalization with overlap
     ethr =  2.61E-07,  avg # of iterations =  2.0

     negative rho (up, down):  1.210E-04 0.000E+00

     total cpu time spent up to now is      205.7 secs

     total energy              =   -2205.56019223 Ry
     estimated scf accuracy    <       0.00021539 Ry

     iteration #  3     ecut=    80.00 Ry     beta= 0.70
     Davidson diagonalization with overlap
     ethr =  7.02E-08,  avg # of iterations =  2.0

     negative rho (up, down):  1.161E-04 0.000E+00

     total cpu time spent up to now is      220.0 secs

     total energy              =   -2205.56020577 Ry
     estimated scf accuracy    <       0.00006494 Ry

     iteration #  4     ecut=    80.00 Ry     beta= 0.70
     Davidson diagonalization with overlap
     ethr =  2.12E-08,  avg # of iterations =  6.0

     negative rho (up, down):  1.172E-04 0.000E+00

     total cpu time spent up to now is      230.0 secs

     total energy              =   -2205.56021633 Ry
     estimated scf accuracy    <       0.00000215 Ry

     iteration #  5     ecut=    80.00 Ry     beta= 0.70
     Davidson diagonalization with overlap
     ethr =  6.99E-10,  avg # of iterations =  7.0

     negative rho (up, down):  1.193E-04 0.000E+00

     total cpu time spent up to now is      246.3 secs

     total energy              =   -2205.56021866 Ry
     estimated scf accuracy    <       0.00000139 Ry

     iteration #  6     ecut=    80.00 Ry     beta= 0.70
     Davidson diagonalization with overlap
     ethr =  4.52E-10,  avg # of iterations =  2.0

     negative rho (up, down):  1.233E-04 0.000E+00

     total cpu time spent up to now is      261.2 secs

     total energy              =   -2205.56021868 Ry
     estimated scf accuracy    <       0.00000025 Ry

     iteration #  7     ecut=    80.00 Ry     beta= 0.70
     Davidson diagonalization with overlap
     ethr =  8.01E-11,  avg # of iterations =  5.0

     negative rho (up, down):  1.246E-04 0.000E+00

     total cpu time spent up to now is      274.5 secs

     total energy              =   -2205.56021873 Ry
     estimated scf accuracy    <       0.00000006 Ry

     iteration #  8     ecut=    80.00 Ry     beta= 0.70
     Davidson diagonalization with overlap
     ethr =  1.99E-11,  avg # of iterations =  5.0

     negative rho (up, down):  1.371E-04 0.000E+00

     total cpu time spent up to now is      276.5 secs

     End of self-consistent calculation

          k = 0.0000 0.0000 0.0000 (105382 PWs)   bands (ev):

   -62.8695 -62.8475 -62.8071 -62.7933 -62.7887 -62.7825 -62.7698 -62.7648
   -62.7112 -62.5940 -62.5644 -62.5267 -37.1709 -37.1333 -37.1135 -37.0897
   -37.0786 -37.0618 -37.0610 -37.0393 -37.0133 -37.0037 -36.9956 -36.9787
   -36.9740 -36.9704 -36.9657 -36.9522 -36.9473 -36.9459 -36.9415 -36.9375
   -36.9016 -36.8767 -36.8640 -36.8343 -36.8233 -36.8043 -36.7989 -36.7862
   -36.7673 -36.7469 -36.7364 -36.7219 -36.7058 -36.6712 -36.5512 -36.5389
   -16.3432 -15.6675 -15.1163 -15.0220 -14.8644 -14.7808 -14.6454 -14.4265
   -14.3745 -14.3568 -14.3260 -14.3082 -14.2749 -14.2221 -14.1139 -14.0755
   -14.0385 -14.0315 -13.9599 -13.8793 -13.7568 -13.7512 -13.7167  -9.0838
    -7.5736  -7.3477  -7.3179  -7.2428  -7.2014  -7.1619  -7.1184  -7.0709
    -6.7949  -6.7397  -6.7162  -6.6375  -6.5139  -6.4727  -6.4416  -6.3675
    -6.2911  -6.2285  -6.1566  -5.9179  -5.8929  -5.8461  -5.7615  -5.7318
    -5.7054  -5.6543  -5.5955  -5.5876  -5.5514  -5.4905  -5.4762  -5.4102
    -5.3677  -5.2736  -5.2483  -5.1134  -5.0046  -4.9356  -4.9212  -4.8974
    -4.8771  -4.7686  -4.5849  -4.5589  -4.4264  -4.3085  -4.2202  -4.1580
    -4.1319  -4.0131  -3.9878  -3.8443  -3.7833  -3.7234  -3.6984  -3.6415
    -3.6109  -3.5424  -3.4860  -3.4705  -3.4381  -3.3970  -3.3790  -3.3136
    -3.3042  -3.1499  -3.0763  -2.8560  -2.8275  -2.7366  -2.6917  -2.6831
    -2.6657  -2.6341  -2.5986  -2.5315  -2.4591  -2.1922  -1.9471  -1.9306
    -1.8497  -0.6748  -0.6430  -0.5356  -0.1293  -0.0687  -0.0560  -0.0031
     0.1323   0.1871   0.2085   0.3009   0.3374   0.3497   0.4336   0.5289
     0.5523   0.6381   0.6455   0.6771   0.6802   0.7286   0.7751   0.8023
     0.8312   0.8702   0.9108   0.9529   1.0104   1.0558   1.1100   1.1983
     1.4470

     the Fermi energy is    -0.7282 ev

!    total energy              =   -2205.56021868 Ry
     estimated scf accuracy    <       0.00000001 Ry
     smearing contrib. (-TS)   =      -0.00940892 Ry
     internal energy E=F+TS    =   -2205.55080976 Ry

     The total energy is F=E-TS. E is the sum of the following terms:
     one-electron contribution =  -18051.16326802 Ry
     hartree contribution      =    9012.98389780 Ry
     xc contribution           =    -385.37316439 Ry
     ewald contribution        =    7218.00172485 Ry

     convergence has been achieved in   8 iterations

     negative rho (up, down):  1.371E-04 0.000E+00

     Forces acting on atoms (cartesian axes, Ry/au):

     atom    1 type  1   force =    -0.00352665   -0.00379653   -0.00518770
     atom    2 type  2   force =    -0.00827017    0.00627654   -0.00141234
     atom    3 type  2   force =    -0.01005912    0.00574555   -0.01277606
     atom    4 type  1   force =     0.00436620    0.00208066    0.00137881
     atom    5 type  2   force =     0.00127778   -0.00490786   -0.00388365
     atom    6 type  2   force =     0.00302270    0.00434750    0.00320255
     atom    7 type  1   force =     0.00386740   -0.00415612    0.00069990
     atom    8 type  2   force =     0.00002457   -0.00300191    0.00834141
     atom    9 type  2   force =     0.00953576    0.00313219    0.00452603
     atom   10 type  1   force =    -0.00049982    0.00679094   -0.00117584
     atom   11 type  2   force =     0.00314625   -0.00022497   -0.00827206
     atom   12 type  2   force =    -0.00364910    0.00106983   -0.00084052
     atom   13 type  1   force =     0.00738773    0.00196734    0.00011090
     atom   14 type  2   force =     0.00717865   -0.00072219    0.00557598
     atom   15 type  2   force =    -0.00624399    0.00070457   -0.00564201
     atom   16 type  1   force =     0.00151139    0.00300207    0.00069381
     atom   17 type  2   force =     0.00619132    0.00445470    0.00287716
     atom   18 type  2   force =    -0.00205023   -0.00287552    0.00885624
     atom   19 type  1   force =     0.00231047   -0.00379558    0.00218713
     atom   20 type  2   force =     0.00245916   -0.00389300   -0.00265105
     atom   21 type  1   force =    -0.00231345    0.00236762    0.00143596
     atom   22 type  2   force =    -0.00117789   -0.00246798   -0.00187782
     atom   23 type  2   force =     0.00176288   -0.00207432   -0.00031735
     atom   24 type  1   force =    -0.00709622    0.00000381   -0.00255312
     atom   25 type  2   force =     0.01015522   -0.00287695   -0.00168706
     atom   26 type  2   force =    -0.00486627    0.00120783   -0.00137264
     atom   27 type  1   force =    -0.00196938   -0.00144423    0.00531653
     atom   28 type  2   force =    -0.00235733   -0.00088724   -0.00330960
     atom   29 type  2   force =     0.00013655    0.00167238   -0.00504138
     atom   30 type  1   force =    -0.00161339   -0.00253006    0.00520294
     atom   31 type  2   force =     0.00085015   -0.00048631    0.00619911
     atom   32 type  2   force =    -0.00615921    0.00203557    0.00663853
     atom   33 type  1   force =     0.00075872   -0.00371897    0.00029947
     atom   34 type  2   force =    -0.00036462   -0.02004292   -0.01473488
     atom   35 type  2   force =    -0.00554498    0.00477508   -0.00037625
     atom   36 type  3   force =     0.00181894    0.01226847    0.00956887
     The non-local contrib.  to forces
     atom    1 type  1   force =     0.00147445    0.03246337   -0.01052175
     atom    2 type  2   force =    -0.00533239   -0.00180693   -0.26134758
     atom    3 type  2   force =    -0.00736609   -0.00130434    0.26275528
     atom    4 type  1   force =    -0.00387129    0.01434021    0.00387997
     atom    5 type  2   force =     0.00888558   -0.03482144   -0.25413499
     atom    6 type  2   force =     0.00015661    0.00274362    0.26515041
     atom    7 type  1   force =    -0.02678446   -0.01042053   -0.02009533
     atom    8 type  2   force =     0.00611036   -0.00271696   -0.25904578
     atom    9 type  2   force =     0.00639250   -0.01183688    0.27204998
     atom   10 type  1   force =     0.00029249   -0.00359635   -0.00230758
     atom   11 type  2   force =     0.01233450    0.00833312   -0.25944133
     atom   12 type  2   force =    -0.01368895   -0.01265863    0.26234086
     atom   13 type  1   force =     0.00273867    0.02385554   -0.01747963
     atom   14 type  2   force =     0.00253972   -0.00718321   -0.25779951
     atom   15 type  2   force =    -0.01149784   -0.00221916    0.26177178
     atom   16 type  1   force =     0.00273530    0.04842649   -0.02208838
     atom   17 type  2   force =    -0.00028193   -0.02884904   -0.24659988
     atom   18 type  2   force =    -0.00256320   -0.00474036    0.27064026
     atom   19 type  1   force =     0.02650431   -0.01018277   -0.01434396
     atom   20 type  2   force =    -0.00004377   -0.01940333    0.26164197
     atom   21 type  1   force =     0.00106261    0.01783666    0.00311872
     atom   22 type  2   force =    -0.01099205    0.00395008   -0.24153672
     atom   23 type  2   force =     0.00556794   -0.01653225    0.26357977
     atom   24 type  1   force =    -0.00097836    0.01356894   -0.02500854
     atom   25 type  2   force =     0.05882744   -0.18871823    0.12497735
     atom   26 type  2   force =     0.00348891   -0.01311620    0.27592248
     atom   27 type  1   force =    -0.00031808    0.01740565    0.00758141
     atom   28 type  2   force =    -0.00431895   -0.02389166   -0.26793013
     atom   29 type  2   force =     0.00334131   -0.00231777    0.26487857
     atom   30 type  1   force =    -0.00175693    0.01479085    0.00605022
     atom   31 type  2   force =    -0.00706240   -0.00183261   -0.25948422
     atom   32 type  2   force =    -0.00117254   -0.01454527    0.27228568
     atom   33 type  1   force =    -0.00017685   -0.00734842    0.00125379
     atom   34 type  2   force =     0.00069523   -0.01898868   -0.26549042
     atom   35 type  2   force =     0.00055078   -0.01115997    0.26486945
     atom   36 type  3   force =    -0.00916772    0.03460585   -0.04596249
     The ionic contribution  to forces
     atom    1 type  1   force =    -0.02871078    0.80841727    5.77090529
     atom    2 type  2   force =    -0.35767555    0.17983583   39.43908702
     atom    3 type  2   force =    -0.20684503    0.00779146  -36.44245086
     atom    4 type  1   force =    -0.14062556    0.74465805    0.80632810
     atom    5 type  2   force =    -0.95220818    1.56714676   38.63201488
     atom    6 type  2   force =     0.25561404   -0.52492669  -37.89369531
     atom    7 type  1   force =    -2.64873886   -2.67560404    2.40074955
     atom    8 type  2   force =    -1.04787994    0.04775205   37.60228302
     atom    9 type  2   force =     0.28855918   -0.10548276  -37.92781559
     atom   10 type  1   force =    -0.86063168   -0.49042861    5.03670882
     atom   11 type  2   force =    -0.48051980   -1.67824742   39.00506319
     atom   12 type  2   force =     0.29839660    0.56090294  -37.82762170
     atom   13 type  1   force =     0.16446556    1.15483650    2.60861121
     atom   14 type  2   force =     0.11103235    0.03116415   38.63783083
     atom   15 type  2   force =     0.21692240    0.01610925  -37.00525480
     atom   16 type  1   force =     0.05312210    3.91385175    0.55542158
[...]
     atom   27 type  1   force =     0.00287532    0.01373599    0.00388315
     atom   28 type  2   force =     0.00226987   -0.02592020   -0.26127106
     atom   29 type  2   force =     0.00003663   -0.00957096    0.26803542
     atom   30 type  1   force =    -0.00637410    0.01280387    0.00475447
     atom   31 type  2   force =    -0.00993064   -0.00158858   -0.26421656
     atom   32 type  2   force =     0.00473511   -0.01661374    0.26620682
     atom   33 type  1   force =     0.00016856   -0.01795970   -0.01506738
     atom   34 type  2   force =     0.00740139   -0.00164463   -0.26359019
     atom   35 type  2   force =     0.00195326   -0.01401090    0.26758286
     atom   36 type  3   force =    -0.00289936   -0.00694057   -0.06231512
     The ionic contribution  to forces
     atom    1 type  1   force =    -0.13689940    0.58166976    2.86420890
     atom    2 type  2   force =    -0.18646735   -0.13413955   38.98926186
     atom    3 type  2   force =     0.17961357   -0.15658107  -37.49392039
     atom    4 type  1   force =    -0.57752791    0.61722537    0.97489845
     atom    5 type  2   force =    -0.85794856    1.32668313   38.38468481
     atom    6 type  2   force =     0.12636200   -0.31445783  -37.93839484
     atom    7 type  1   force =    -3.14819080   -2.07411219    1.05608604
     atom    8 type  2   force =    -1.36998723    0.17739525   38.29457899
     atom    9 type  2   force =     0.27019588   -0.03729774  -38.08092149
     atom   10 type  1   force =    -0.14256545   -0.27286152    2.81094058
     atom   11 type  2   force =    -0.55409877   -1.51109000   38.51621731
     atom   12 type  2   force =     0.11626361    0.40197741  -38.08466038
     atom   13 type  1   force =    -0.26140433    0.00221559    2.45421145
     atom   14 type  2   force =    -0.02900213   -0.29829506   38.63604134
     atom   15 type  2   force =    -0.15466248   -0.25042086  -37.49370230
     atom   16 type  1   force =     0.59915350    3.84630606    1.65734753
     atom   17 type  2   force =     0.84344567    1.29958186   38.64281372
     atom   18 type  2   force =    -0.29034654   -0.42467577  -38.32442988
     atom   19 type  1   force =     3.07554732   -1.43675358    2.15258230
     atom   20 type  2   force =     0.06855404    0.07059994  -38.60137679
     atom   21 type  1   force =    -0.45898899   -0.41215259    1.18019166
     atom   22 type  2   force =     0.65817443   -1.45370364   38.47302967
     atom   23 type  2   force =    -0.14024004    0.42146376  -37.79952763
     atom   24 type  1   force =     0.50283281   -0.23587511    2.73016007
     atom   25 type  2   force =     0.08284895   -0.32719681   35.92937951
     atom   26 type  2   force =    -0.05494166   -0.19185205  -36.61090599
     atom   27 type  1   force =     0.14585018    0.27017620    0.29066429
     atom   28 type  2   force =    -0.00104107    0.59355810   38.39128891
     atom   29 type  2   force =     0.07927322   -0.22593432  -37.77923540
     atom   30 type  1   force =     0.10303589   -0.53260281    2.04788815
     atom   31 type  2   force =     1.15578542    0.27650104   38.24827195
     atom   32 type  2   force =    -0.28208050    0.11424771  -38.00371044
     atom   33 type  1   force =     0.56771570    0.16669613    3.35039477
     atom   34 type  2   force =    -0.05742536   -0.39550416   38.90635794
     atom   35 type  2   force =     0.05146691    0.38058019  -37.48310746
     atom   36 type  3   force =     0.07769945    0.13862916    8.71239278
     The local contribution  to forces
     atom    1 type  1   force =     0.13839429   -0.60989727   -2.85797797
     atom    2 type  2   force =     0.18041544    0.13763634  -38.75183503
     atom    3 type  2   force =    -0.17574308    0.16379945   37.24809407
     atom    4 type  1   force =     0.58223924   -0.63498683   -0.97834007
     atom    5 type  2   force =     0.85241628   -1.30337562  -38.15112697
     atom    6 type  2   force =    -0.12723449    0.31905612   37.69389442
     atom    7 type  1   force =     3.17829336    2.07575685   -1.05058892
     atom    8 type  2   force =     1.35631938   -0.17572370  -38.05124542
     atom    9 type  2   force =    -0.26632198    0.04739662   37.83500138
     atom   10 type  1   force =     0.14670139    0.27244747   -2.81242237
     atom   11 type  2   force =     0.54699577    1.50262519  -38.28103942
     atom   12 type  2   force =    -0.11226067   -0.39111520   37.84294653
     atom   13 type  1   force =     0.24529364   -0.03040552   -2.44525146
     atom   14 type  2   force =     0.03562097    0.30158809  -38.40072588
     atom   15 type  2   force =     0.15352986    0.25639039   37.25311832
     atom   16 type  1   force =    -0.60857626   -3.90523648   -1.62968547
     atom   17 type  2   force =    -0.83747412   -1.27016267  -38.41662851
     atom   18 type  2   force =     0.29367009    0.42918499   38.08352076
     atom   19 type  1   force =    -3.11622372    1.44413803   -2.13145799
     atom   20 type  2   force =    -0.06839603   -0.05819467   38.36048258
     atom   21 type  1   force =     0.45411297    0.39768074   -1.18264424
     atom   22 type  2   force =    -0.64924045    1.44510107  -38.23938353
     atom   23 type  2   force =     0.13436368   -0.40516421   37.55489059
     atom   24 type  1   force =    -0.48724385    0.21040514   -2.71928879
     atom   25 type  2   force =    -0.09234799    0.29222646  -36.18306447
     atom   26 type  2   force =     0.05142795    0.20133222   36.34596539
     atom   27 type  1   force =    -0.14883767   -0.28357863   -0.29440299
     atom   28 type  2   force =    -0.00038110   -0.57054083  -38.15002677
     atom   29 type  2   force =    -0.07860431    0.23498277   37.53217109
     atom   30 type  1   force =    -0.09664129    0.51972928   -2.05323285
     atom   31 type  2   force =    -1.14631573   -0.27497825  -38.00383416
     atom   32 type  2   force =     0.27890394   -0.09774508   37.75802453
     atom   33 type  1   force =    -0.56792201   -0.14878393   -3.33471654
     atom   34 type  2   force =     0.05014186    0.39698230  -38.66335596
     atom   35 type  2   force =    -0.05329267   -0.36699799   37.23712890
     atom   36 type  3   force =    -0.07681049   -0.13252599   -8.64916623
     The core correction contribution to forces
     atom    1 type  1   force =     0.00000000    0.00000000    0.00000000
     atom    2 type  2   force =    -0.00064146   -0.00005423    0.02029489
     atom    3 type  2   force =     0.00013600    0.00017447   -0.02098785
     atom    4 type  1   force =     0.00000000    0.00000000    0.00000000
     atom    5 type  2   force =    -0.00057216    0.00129056    0.02022952
     atom    6 type  2   force =    -0.00002640   -0.00004790   -0.02073834
     atom    7 type  1   force =     0.00000000    0.00000000    0.00000000
     atom    8 type  2   force =    -0.00096875    0.00042059    0.02074734
     atom    9 type  2   force =     0.00044376    0.00055022   -0.02083123
     atom   10 type  1   force =     0.00000000    0.00000000    0.00000000
     atom   11 type  2   force =    -0.00025509   -0.00094992    0.02030327
     atom   12 type  2   force =     0.00047602    0.00086760   -0.02074884
     atom   13 type  1   force =     0.00000000    0.00000000    0.00000000
     atom   14 type  2   force =     0.00062992   -0.00028081    0.02025607
     atom   15 type  2   force =    -0.00000853    0.00005297   -0.02070415
     atom   16 type  1   force =     0.00000000    0.00000000    0.00000000
     atom   17 type  2   force =     0.00061144    0.00189180    0.01984253
     atom   18 type  2   force =     0.00000933    0.00001297   -0.02080278
     atom   19 type  1   force =     0.00000000    0.00000000    0.00000000
     atom   20 type  2   force =     0.00013902    0.00058196   -0.02106295
     atom   21 type  1   force =     0.00000000    0.00000000    0.00000000
     atom   22 type  2   force =     0.00060233   -0.00095804    0.02010847
     atom   23 type  2   force =    -0.00038409    0.00088840   -0.02087193
     atom   24 type  1   force =     0.00000000    0.00000000    0.00000000
     atom   25 type  2   force =    -0.00075150   -0.00261348   -0.01081236
     atom   26 type  2   force =    -0.00021976    0.00032472   -0.02155020
     atom   27 type  1   force =     0.00000000    0.00000000    0.00000000
     atom   28 type  2   force =    -0.00019354    0.00185875    0.02046673
     atom   29 type  2   force =    -0.00004445    0.00045835   -0.02092432
     atom   30 type  1   force =     0.00000000    0.00000000    0.00000000
     atom   31 type  2   force =     0.00053850    0.00034104    0.02069153
     atom   32 type  2   force =    -0.00054229    0.00094148   -0.02079684
     atom   33 type  1   force =     0.00000000    0.00000000    0.00000000
     atom   34 type  2   force =    -0.00063184   -0.00022698    0.02065204
     atom   35 type  2   force =    -0.00018465    0.00078185   -0.02102052
     atom   36 type  3   force =     0.00000000    0.00000000    0.00000000
     The Hubbard contrib.    to forces
     atom    1 type  1   force =     0.00000000    0.00000000    0.00000000
     atom    2 type  2   force =     0.00000000    0.00000000    0.00000000
     atom    3 type  2   force =     0.00000000    0.00000000    0.00000000
     atom    4 type  1   force =     0.00000000    0.00000000    0.00000000
     atom    5 type  2   force =     0.00000000    0.00000000    0.00000000
     atom    6 type  2   force =     0.00000000    0.00000000    0.00000000
     atom    7 type  1   force =     0.00000000    0.00000000    0.00000000
     atom    8 type  2   force =     0.00000000    0.00000000    0.00000000
     atom    9 type  2   force =     0.00000000    0.00000000    0.00000000
     atom   10 type  1   force =     0.00000000    0.00000000    0.00000000
     atom   11 type  2   force =     0.00000000    0.00000000    0.00000000
     atom   12 type  2   force =     0.00000000    0.00000000    0.00000000
     atom   13 type  1   force =     0.00000000    0.00000000    0.00000000
     atom   14 type  2   force =     0.00000000    0.00000000    0.00000000
     atom   15 type  2   force =     0.00000000    0.00000000    0.00000000
     atom   16 type  1   force =     0.00000000    0.00000000    0.00000000
     atom   17 type  2   force =     0.00000000    0.00000000    0.00000000
     atom   18 type  2   force =     0.00000000    0.00000000    0.00000000
     atom   19 type  1   force =     0.00000000    0.00000000    0.00000000
     atom   20 type  2   force =     0.00000000    0.00000000    0.00000000
     atom   21 type  1   force =     0.00000000    0.00000000    0.00000000
     atom   22 type  2   force =     0.00000000    0.00000000    0.00000000
     atom   23 type  2   force =     0.00000000    0.00000000    0.00000000
     atom   24 type  1   force =     0.00000000    0.00000000    0.00000000
     atom   25 type  2   force =     0.00000000    0.00000000    0.00000000
     atom   26 type  2   force =     0.00000000    0.00000000    0.00000000
     atom   27 type  1   force =     0.00000000    0.00000000    0.00000000
     atom   28 type  2   force =     0.00000000    0.00000000    0.00000000
     atom   29 type  2   force =     0.00000000    0.00000000    0.00000000
     atom   30 type  1   force =     0.00000000    0.00000000    0.00000000
     atom   31 type  2   force =     0.00000000    0.00000000    0.00000000
     atom   32 type  2   force =     0.00000000    0.00000000    0.00000000
     atom   33 type  1   force =     0.00000000    0.00000000    0.00000000
     atom   34 type  2   force =     0.00000000    0.00000000    0.00000000
     atom   35 type  2   force =     0.00000000    0.00000000    0.00000000
     atom   36 type  3   force =     0.00000000    0.00000000    0.00000000
     The SCF correction term to forces
     atom    1 type  1   force =     0.00006787   -0.00003775    0.00007118
     atom    2 type  2   force =     0.00001343    0.00003149   -0.00000238
     atom    3 type  2   force =     0.00000541   -0.00000852    0.00002887
     atom    4 type  1   force =     0.00003414   -0.00002404    0.00007247
     atom    5 type  2   force =     0.00001682   -0.00001668    0.00003055
     atom    6 type  2   force =     0.00000657    0.00000514    0.00000626
     atom    7 type  1   force =    -0.00002190    0.00000960   -0.00005612
     atom    8 type  2   force =     0.00001671   -0.00001001    0.00002017
     atom    9 type  2   force =     0.00001307    0.00001341   -0.00001089
     atom   10 type  1   force =     0.00001788    0.00005399   -0.00003788
     atom   11 type  2   force =     0.00000586    0.00000194   -0.00000609
     atom   12 type  2   force =     0.00000728   -0.00000449   -0.00000878
     atom   13 type  1   force =     0.00001616    0.00004499    0.00005853
     atom   14 type  2   force =     0.00002318    0.00001918    0.00000084
     atom   15 type  2   force =     0.00000906   -0.00002022   -0.00000108
     atom   16 type  1   force =    -0.00002548    0.00001929    0.00001882
     atom   17 type  2   force =    -0.00001955   -0.00000901    0.00001663
     atom   18 type  2   force =    -0.00000158    0.00000354    0.00002376
     atom   19 type  1   force =     0.00002887    0.00004334   -0.00002292
     atom   20 type  2   force =    -0.00000639    0.00001722    0.00000034
     atom   21 type  1   force =     0.00002316    0.00000700   -0.00004569
     atom   22 type  2   force =     0.00000469   -0.00001614   -0.00002288
     atom   23 type  2   force =    -0.00000937   -0.00001506   -0.00000362
     atom   24 type  1   force =    -0.00006637    0.00003130    0.00006677
     atom   25 type  2   force =    -0.00004163    0.00004644    0.00004420
     atom   26 type  2   force =    -0.00001540   -0.00000914   -0.00001224
     atom   27 type  1   force =    -0.00004041   -0.00008407    0.00006650
     atom   28 type  2   force =     0.00000395   -0.00002192    0.00002446
     atom   29 type  2   force =    -0.00000109   -0.00001258    0.00002962
     atom   30 type  1   force =    -0.00005658    0.00006589   -0.00003736
     atom   31 type  2   force =    -0.00000413   -0.00001393    0.00002438
     atom   32 type  2   force =     0.00000123    0.00002232   -0.00001150
     atom   33 type  1   force =    -0.00006663   -0.00004497   -0.00006997
     atom   34 type  2   force =    -0.00000291   -0.00000448   -0.00001217
     atom   35 type  2   force =     0.00000400   -0.00001187    0.00000153
     atom   36 type  3   force =    -0.00000431    0.00000542    0.00000031

     Total force =     0.005795     Total SCF correction =     0.000320
     Energy error            =      8.5E-05 Ry
     Gradient error          =      2.0E-03 Ry/Bohr

     bfgs converged in  29 scf cycles and  28 bfgs steps
     (criteria: energy <  1.0E-04 Ry, force <  1.0E-02 Ry/Bohr)

     End of BFGS Geometry Optimization

     Final energy             =   -2205.5909054186 Ry

     File ./MoS2-V-O.bfgs deleted, as requested
Begin final coordinates

ATOMIC_POSITIONS (angstrom)
Mo            6.5673292175        1.7364203935        2.7706034793
S             8.1267955534        0.8269757641        4.3806665440
S             8.1463818290        0.8257057326        1.1827884681
Mo            8.1228075336        4.4735796919        2.7218480179
S             6.5147462444        3.6519217708        4.3170832848
S             6.5669249462        3.5398958812        1.1174644019
Mo            6.5457094664        7.1849799531        2.6424341337
S             8.0706480972        6.2892061323        4.3050103401
S             8.1576889750        6.2898746235        1.1055397141
Mo            8.1501464963        9.9186290552        2.7702693602
S             6.5366121226        8.9270635804        4.3249211826
S             6.6026754064        9.0348146302        1.1177817395
Mo            3.4681953954        1.7645794970        2.7695420420
S             5.0138505456        0.7897750184        4.3542974270
S             5.0071326559        0.8177916924        1.1745321666
Mo            4.9804273272        4.5112771053        2.6566142263
S             3.4694581735        3.6669162716        4.3324357141
S             3.4361680713        3.5374454559        1.1029217541
Mo            3.4714113910        7.1244712400        2.6637211367
S             5.0111499294        6.2858014067        1.0382059105
Mo            5.0046540034        9.8812265418        2.7336384881
S             3.4932678154        8.8731852242        4.3312272317
S             3.4078091260        8.9935408270        1.1311899175
Mo            0.2418231449        1.7434300487        2.7849838944
S             1.8787660557        0.8285194364        4.2863482834
S             1.8557972992        0.8123937229        1.2209476900
Mo            1.8607533573        4.4542483900        2.7131716768
S             0.2545257998        3.6057511502        4.3295278669
S             0.2540264715        3.5317302048        1.1473464297
Mo            0.2641504503        7.1832481503        2.7399904709
S             1.9046847203        6.2636435625        4.3029803268
S             1.8382960242        6.2796119440        1.1099271338
Mo            1.8684850292        9.8612179445        2.7843246533
S             0.2640489055        8.9784060462        4.3679600875
S             0.2795847481        9.0173704176        1.1759833450
H             1.9369169061       11.9051979031        5.6465329976
End final coordinates



     Writing all to output data dir ./MoS2-V-O.save/
 
     init_run     :      2.38s CPU      2.57s WALL (       1 calls)
     electrons    :   2764.10s CPU   3035.77s WALL (      29 calls)
     update_pot   :     39.17s CPU     40.79s WALL (      28 calls)
     forces       :     39.13s CPU     41.95s WALL (      29 calls)

     Called by init_run:
     wfcinit      :      0.39s CPU      0.43s WALL (       1 calls)
     potinit      :      1.32s CPU      1.41s WALL (       1 calls)
     hinit0       :      0.16s CPU      0.18s WALL (       1 calls)

     Called by electrons:
     c_bands      :    309.58s CPU    313.08s WALL (     256 calls)
     sum_band     :     85.05s CPU     92.85s WALL (     256 calls)
     v_of_rho     :    106.80s CPU    123.31s WALL (     274 calls)
     newd         :     43.62s CPU     49.13s WALL (     274 calls)
     mix_rho      :   2231.48s CPU   2468.42s WALL (     256 calls)

     Called by c_bands:
     init_us_2    :      5.62s CPU      5.84s WALL (     513 calls)
     init_us_2:cp :      5.62s CPU      5.84s WALL (     513 calls)
     regterg      :    291.08s CPU    294.34s WALL (     256 calls)

     Called by *egterg:
     rdiaghg      :     23.64s CPU     23.81s WALL (    1397 calls)
     h_psi        :    167.29s CPU    168.75s WALL (    1437 calls)
     s_psi        :     21.35s CPU     21.43s WALL (    1437 calls)
     g_psi        :      1.14s CPU      1.16s WALL (    1180 calls)

     Called by h_psi:
     h_psi:calbec :     23.18s CPU     23.28s WALL (    1437 calls)
     vloc_psi     :    120.41s CPU    121.64s WALL (    1437 calls)
     add_vuspsi   :     20.93s CPU     21.04s WALL (    1437 calls)

     General routines
     calbec       :     33.05s CPU     33.19s WALL (    1809 calls)
     fft          :     70.71s CPU     82.62s WALL (   18406 calls)
     ffts         :    987.79s CPU   1216.75s WALL (  544912 calls)
     fftw         :    105.71s CPU    106.65s WALL (  156072 calls)
     interpolate  :      1.97s CPU      2.31s WALL (     274 calls)
 
     Parallel routines
 
     PWSCF        :  47m30.62s CPU  52m 8.97s WALL

 
   This run was terminated on:  11:48:58   4Nov2023            

=------------------------------------------------------------------------------=
   JOB DONE.
=------------------------------------------------------------------------------=
