
     Program PWSCF v.7.2 starts on  4Nov2023 at 10:26:59 

     This program is part of the open-source Quantum ESPRESSO suite
     for quantum simulation of materials; please cite
         "P. Giannozzi et al., J. Phys.:Condens. Matter 21 395502 (2009);
         "P. Giannozzi et al., J. Phys.:Condens. Matter 29 465901 (2017);
         "P. Giannozzi et al., J. Chem. Phys. 152 154105 (2020);
          URL http://www.quantum-espresso.org", 
     in publications or presentations arising from this work. More details at
     http://www.quantum-espresso.org/quote

     Parallel version (MPI & OpenMP), running on      48 processor cores
     Number of MPI processes:                48
     Threads/MPI process:                     1

     MPI processes distributed on     1 nodes
     20285 MiB available memory on the printing compute node when the environment starts
 
     Waiting for input...
     Reading input from standard input
Warning: card &CELL ignored
Warning: card CELL_DYNAMICS = 'BFGS', ignored
Warning: card CELL_DOFREE = '2DXY' ignored
Warning: card / ignored

     Current dimensions of program PWSCF are:
     Max number of different atomic species (ntypx) = 10
     Max number of k-points (npk) =  40000
     Max angular momentum in pseudopotentials (lmaxx) =  4

     IMPORTANT: XC functional enforced from input :
     Exchange-correlation= RVV10
                           (   1   4  13   4  26   0   0)
     Any further DFT definition will be discarded
     Please, verify this is what you really want


     gamma-point specific algorithms are used
     signal trapping enabled: kill the code with -SIGUSR1 to stop cleanly the simulation 
 
     R & G space division:  proc/nbgrp/npool/nimage =      48
     Subspace diagonalization in iterative solution of the eigenvalue problem:
     one sub-group per band group will be used
     scalapack distributed-memory algorithm (size of sub-group:  2*  2 procs)

 
     Parallelization info
     --------------------
     sticks:   dense  smooth     PW     G-vecs:    dense   smooth      PW
     Min         243     194     47                49060    35090    4376
     Max         246     196     50                49086    35128    4410
     Sum       11735    9389   2349              2355467  1685513  210763
 
     Using Slab Decomposition
 


     bravais-lattice index     =            0
     lattice parameter (alat)  =      17.8707  a.u.
     unit-cell volume          =   17436.2743 (a.u.)^3
     number of atoms/cell      =           36
     number of atomic types    =            3
     number of electrons       =       307.00
     number of Kohn-Sham states=          185
     kinetic-energy cutoff     =      80.0000  Ry
     charge density cutoff     =     400.0000  Ry
     scf convergence threshold =      1.0E-06
     mixing beta               =       0.7000
     number of iterations used =            8  local-TF  mixing
     energy convergence thresh.=      1.0E-04
     force convergence thresh. =      1.0E-02
     Exchange-correlation= RVV10
                           (   1   4  13   4  26   0   0)
     nstep                     =          200


     celldm(1)=  17.870686  celldm(2)=   0.000000  celldm(3)=   0.000000
     celldm(4)=   0.000000  celldm(5)=   0.000000  celldm(6)=   0.000000

     crystal axes: (cart. coord. in units of alat)
               a(1) = (   1.000000   0.000000   0.000000 )  
               a(2) = (   0.000000   1.155671   0.000000 )  
               a(3) = (   0.000000   0.000000   2.643601 )  

     reciprocal axes: (cart. coord. in units 2 pi/alat)
               b(1) = (  1.000000  0.000000  0.000000 )  
               b(2) = (  0.000000  0.865298  0.000000 )  
               b(3) = (  0.000000  0.000000  0.378272 )  


     PseudoPot. # 1 for Mo read from file:
     ../pseudo/Mo_ONCV_PBE-1.0.oncvpsp.upf
     MD5 check sum: 1b5d28e075c9ccadda658a603575cd1f
     Pseudo is Norm-conserving, Zval = 14.0
     Generated using ONCVPSP code by D. R. Hamann
     Using radial grid of 1526 points,  6 beta functions with: 
                l(1) =   0
                l(2) =   0
                l(3) =   1
                l(4) =   1
                l(5) =   2
                l(6) =   2

     PseudoPot. # 2 for S  read from file:
     ../pseudo/s_pbe_v1.4.uspp.F.UPF
     MD5 check sum: 88d86576ff6df21479756cfb9bdac1df
     Pseudo is Ultrasoft + core correction, Zval =  6.0
     Generated by new atomic code, or converted to UPF format
     Using radial grid of  907 points,  6 beta functions with: 
                l(1) =   0
                l(2) =   0
                l(3) =   1
                l(4) =   1
                l(5) =   2
                l(6) =   2
     Q(r) pseudized with  8 coefficients,  rinner =    1.300   1.300   1.300
                                                       1.300   1.300

     PseudoPot. # 3 for H  read from file:
     ../pseudo/H_ONCV_PBE-1.0.oncvpsp.upf
     MD5 check sum: 1790becc920ee074925cf490c71280fe
     Pseudo is Norm-conserving, Zval =  1.0
     Generated using ONCVPSP code by D. R. Hamann
     Using radial grid of 1166 points,  2 beta functions with: 
                l(1) =   0
                l(2) =   0

     atomic species   valence    mass     pseudopotential
        Mo            14.00    95.94000     Mo( 1.00)
        S              6.00    32.06500     S ( 1.00)
        H              1.00     1.00794     H ( 1.00)

     No symmetry found



   Cartesian axes

     site n.     atom                  positions (alat units)
         1           Mo  tau(   1) = (   0.6952221   0.1890506   0.2985846  )
         2           S   tau(   2) = (   0.8646417   0.0856217   0.4689279  )
         3           S   tau(   3) = (   0.8663890   0.0857843   0.1351291  )
         4           Mo  tau(   4) = (   0.8560186   0.4753274   0.2873942  )
         5           S   tau(   5) = (   0.6873294   0.3936244   0.4596353  )
         6           S   tau(   6) = (   0.6929804   0.3713468   0.1185692  )
         7           Mo  tau(   7) = (   0.6862796   0.7633098   0.2825370  )
         8           S   tau(   8) = (   0.8545980   0.6708292   0.4486168  )
         9           S   tau(   9) = (   0.8545123   0.6666874   0.1146125  )
        10           Mo  tau(  10) = (   0.8629403   1.0471007   0.3006803  )
        11           S   tau(  11) = (   0.6868280   0.9456650   0.4634891  )
        12           S   tau(  12) = (   0.6998113   0.9568511   0.1205389  )
        13           Mo  tau(  13) = (   0.3618216   0.1847309   0.2935964  )
        14           S   tau(  14) = (   0.5260962   0.0863870   0.4600448  )
        15           S   tau(  15) = (   0.5348379   0.0894875   0.1297123  )
        16           Mo  tau(  16) = (   0.5265817   0.4772436   0.2784130  )
        17           S   tau(  17) = (   0.3624753   0.3882513   0.4525556  )
        18           S   tau(  18) = (   0.3635411   0.3752055   0.1119148  )
        19           Mo  tau(  19) = (   0.3652268   0.7630864   0.2781795  )
        20           S   tau(  20) = (   0.5269494   0.6690381   0.1096838  )
        21           Mo  tau(  21) = (   0.5300192   1.0470394   0.2900995  )
        22           S   tau(  22) = (   0.3670346   0.9457522   0.4574073  )
        23           S   tau(  23) = (   0.3604225   0.9585725   0.1159032  )
        24           Mo  tau(  24) = (   0.0313099   0.1847895   0.3013130  )
        25           S   tau(  25) = (   0.1956761   0.0838230   0.4650863  )
        26           S   tau(  26) = (   0.1967693   0.0903508   0.1278874  )
        27           Mo  tau(  27) = (   0.1967578   0.4753919   0.2813011  )
        28           S   tau(  28) = (   0.0287851   0.3864324   0.4586755  )
        29           S   tau(  29) = (   0.0244514   0.3729871   0.1239344  )
        30           Mo  tau(  30) = (   0.0286728   0.7631204   0.2856894  )
        31           S   tau(  31) = (   0.2011512   0.6675435   0.4465001  )
        32           S   tau(  32) = (   0.1969214   0.6672839   0.1104564  )
        33           Mo  tau(  33) = (   0.1950294   1.0511147   0.2932237  )
        34           S   tau(  34) = (   0.0312912   0.9612169   0.4667423  )
        35           S   tau(  35) = (   0.0292670   0.9563028   0.1216485  )
        36           H   tau(  36) = (   0.8888889   0.0000000   0.5407634  )

     number of k points=     1  Gaussian smearing, width (Ry)=  0.0100
                       cart. coord. in units 2pi/alat
        k(    1) = (   0.0000000   0.0000000   0.0000000), wk =   2.0000000

     Dense  grid:  1177734 G-vectors     FFT dimensions: ( 120, 135, 320)

     Smooth grid:   842757 G-vectors     FFT dimensions: ( 108, 120, 270)

     Estimated max dynamical RAM per process >     146.59 MB

     Estimated total dynamical RAM >       6.87 GB

     Initial potential from superposition of free atoms

     starting charge     306.9873, renormalised to     307.0000

     negative rho (up, down):  1.419E-04 0.000E+00


---------------------------------------------------------------------------------
Carrying out rVV10 run using the following parameters:
Nqs =      20    Nr_points =    1024   r_max =   100.000
b_value =  6.30000    beta =  0.00901
     q_mesh =  0.00010000  0.00030000  0.00058939  0.00100810
               0.00161396  0.00249058  0.00375900  0.00559430
               0.00824984  0.01209221  0.01765183  0.02569619
               0.03733578  0.05417739  0.07854596  0.11380545
               0.16482331  0.23864234  0.34545298  0.50000000

Gradients computed in Reciprocal space

---------------------------------------------------------------------------------


     Starting wfcs are  213 randomized atomic wfcs

     total cpu time spent up to now is        2.8 secs

     Self-consistent Calculation

     iteration #  1     ecut=    80.00 Ry     beta= 0.70
     Davidson diagonalization with overlap
     ethr =  1.00E-02,  avg # of iterations =  2.0

     Threshold (ethr) on eigenvalues was too large:
     Diagonalizing with lowered threshold

     Davidson diagonalization with overlap
     ethr =  3.86E-04,  avg # of iterations =  4.0

     negative rho (up, down):  2.353E-08 0.000E+00

     total cpu time spent up to now is       24.1 secs

     total energy              =   -2205.50338161 Ry
     estimated scf accuracy    <       1.47662737 Ry

     iteration #  2     ecut=    80.00 Ry     beta= 0.70
     Davidson diagonalization with overlap
     ethr =  4.81E-04,  avg # of iterations =  1.0

     total cpu time spent up to now is       26.5 secs

     total energy              =   -2205.33639922 Ry
     estimated scf accuracy    <       0.60010208 Ry

     iteration #  3     ecut=    80.00 Ry     beta= 0.70
     Davidson diagonalization with overlap
     ethr =  1.95E-04,  avg # of iterations =  2.0

     total cpu time spent up to now is       29.0 secs

     total energy              =   -2205.41889385 Ry
     estimated scf accuracy    <       0.08529261 Ry

     iteration #  4     ecut=    80.00 Ry     beta= 0.70
     Davidson diagonalization with overlap
     ethr =  2.78E-05,  avg # of iterations = 13.0

     total cpu time spent up to now is       32.0 secs

     total energy              =   -2205.42460035 Ry
     estimated scf accuracy    <       0.03364843 Ry

     iteration #  5     ecut=    80.00 Ry     beta= 0.70
     Davidson diagonalization with overlap
     ethr =  1.10E-05,  avg # of iterations =  2.0

     total cpu time spent up to now is       34.3 secs

     total energy              =   -2205.42413013 Ry
     estimated scf accuracy    <       0.02001894 Ry

     iteration #  6     ecut=    80.00 Ry     beta= 0.70
     Davidson diagonalization with overlap
     ethr =  6.52E-06,  avg # of iterations =  2.0

     total cpu time spent up to now is       36.6 secs

     total energy              =   -2205.42358116 Ry
     estimated scf accuracy    <       0.01322354 Ry

     iteration #  7     ecut=    80.00 Ry     beta= 0.70
     Davidson diagonalization with overlap
     ethr =  4.31E-06,  avg # of iterations =  1.0

     total cpu time spent up to now is       38.9 secs

     total energy              =   -2205.42155725 Ry
     estimated scf accuracy    <       0.00907153 Ry

     iteration #  8     ecut=    80.00 Ry     beta= 0.70
     Davidson diagonalization with overlap
     ethr =  2.95E-06,  avg # of iterations =  2.0

     negative rho (up, down):  7.007E-03 0.000E+00

     total cpu time spent up to now is       43.1 secs

     total energy              =   -2205.42111312 Ry
     estimated scf accuracy    <       0.00457853 Ry

     iteration #  9     ecut=    80.00 Ry     beta= 0.70
     Davidson diagonalization with overlap
     c_bands:  1 eigenvalues not converged
     ethr =  1.49E-06,  avg # of iterations = 20.0

     negative rho (up, down):  2.559E-02 0.000E+00

     total cpu time spent up to now is       48.9 secs

     total energy              =   -2205.42073579 Ry
     estimated scf accuracy    <       0.00291433 Ry

     iteration # 10     ecut=    80.00 Ry     beta= 0.70
     Davidson diagonalization with overlap
     c_bands:  1 eigenvalues not converged
     ethr =  9.49E-07,  avg # of iterations = 20.0

     negative rho (up, down):  2.939E-02 0.000E+00

     total cpu time spent up to now is       54.9 secs

     total energy              =   -2205.42076773 Ry
     estimated scf accuracy    <       0.00123076 Ry

     iteration # 11     ecut=    80.00 Ry     beta= 0.70
     Davidson diagonalization with overlap
     ethr =  4.01E-07,  avg # of iterations =  2.0

     negative rho (up, down):  1.925E-02 0.000E+00

     total cpu time spent up to now is       60.5 secs

     total energy              =   -2205.42082558 Ry
     estimated scf accuracy    <       0.00042008 Ry

     iteration # 12     ecut=    80.00 Ry     beta= 0.70
     Davidson diagonalization with overlap
     ethr =  1.37E-07,  avg # of iterations =  2.0

     negative rho (up, down):  7.604E-03 0.000E+00

     total cpu time spent up to now is       66.3 secs

     total energy              =   -2205.42087175 Ry
     estimated scf accuracy    <       0.00013315 Ry

     iteration # 13     ecut=    80.00 Ry     beta= 0.70
     Davidson diagonalization with overlap
     ethr =  4.34E-08,  avg # of iterations =  6.0

     negative rho (up, down):  2.538E-03 0.000E+00

     total cpu time spent up to now is       72.8 secs

     total energy              =   -2205.42091267 Ry
     estimated scf accuracy    <       0.00001551 Ry

     iteration # 14     ecut=    80.00 Ry     beta= 0.70
     Davidson diagonalization with overlap
     ethr =  5.05E-09,  avg # of iterations =  5.0

     negative rho (up, down):  8.013E-04 0.000E+00

     total cpu time spent up to now is       80.8 secs

     total energy              =   -2205.42091247 Ry
     estimated scf accuracy    <       0.00000573 Ry

     iteration # 15     ecut=    80.00 Ry     beta= 0.70
     Davidson diagonalization with overlap
     ethr =  1.87E-09,  avg # of iterations =  2.0

     negative rho (up, down):  4.124E-04 0.000E+00

     total cpu time spent up to now is       92.0 secs

     total energy              =   -2205.42091360 Ry
     estimated scf accuracy    <       0.00000175 Ry

     iteration # 16     ecut=    80.00 Ry     beta= 0.70
     Davidson diagonalization with overlap
     ethr =  5.70E-10,  avg # of iterations =  2.0

     negative rho (up, down):  1.377E-04 0.000E+00

     total cpu time spent up to now is       94.2 secs

     End of self-consistent calculation

          k = 0.0000 0.0000 0.0000 (105382 PWs)   bands (ev):

   -62.8888 -62.8429 -62.8272 -62.8178 -62.8092 -62.7949 -62.7790 -62.7749
   -62.7281 -62.5920 -62.5634 -62.4992 -37.1883 -37.1452 -37.1246 -37.1049
   -37.0905 -37.0801 -37.0732 -37.0459 -37.0444 -37.0257 -37.0058 -37.0056
   -36.9967 -36.9768 -36.9735 -36.9683 -36.9635 -36.9548 -36.9512 -36.9465
   -36.9129 -36.8904 -36.8673 -36.8505 -36.8403 -36.8108 -36.8027 -36.7977
   -36.7690 -36.7523 -36.7368 -36.7154 -36.6870 -36.6444 -36.5366 -36.5269
   -17.4766 -15.8024 -15.1156 -15.0352 -14.9057 -14.8019 -14.6729 -14.4363
   -14.4056 -14.3850 -14.3458 -14.3054 -14.2907 -14.2194 -14.1253 -14.0897
   -14.0502 -14.0254 -13.9651 -13.9055 -13.7677 -13.7594 -13.7248  -9.8632
    -7.5696  -7.4252  -7.3336  -7.2386  -7.2184  -7.1358  -7.1207  -7.1090
    -6.8080  -6.7540  -6.7172  -6.6630  -6.5449  -6.4984  -6.4427  -6.3862
    -6.2837  -6.2581  -6.1874  -5.9427  -5.8968  -5.8465  -5.7908  -5.7629
    -5.7184  -5.6791  -5.6008  -5.5888  -5.5439  -5.5086  -5.4896  -5.4240
    -5.4011  -5.3032  -5.2583  -5.1362  -5.0189  -4.9875  -4.9201  -4.9011
    -4.8750  -4.7572  -4.6152  -4.5317  -4.4199  -4.3207  -4.2377  -4.1885
    -4.1733  -4.0509  -3.9692  -3.8658  -3.8052  -3.7147  -3.6859  -3.6697
    -3.6257  -3.5531  -3.5103  -3.4757  -3.4464  -3.4248  -3.3719  -3.3221
    -3.3152  -3.1690  -3.0894  -2.8700  -2.8283  -2.7844  -2.7196  -2.6714
    -2.6566  -2.6433  -2.6078  -2.5408  -2.4597  -2.1972  -1.9540  -1.9309
    -1.8241  -0.7103  -0.6068  -0.4681  -0.1387  -0.0946  -0.0400   0.0073
     0.0671   0.1849   0.2116   0.2443   0.3013   0.3339   0.4047   0.5221
     0.5675   0.5779   0.6267   0.6337   0.6781   0.7260   0.7537   0.7877
     0.8378   0.8712   0.9000   0.9400   1.0137   1.0347   1.0833   1.2664
     1.4244

     the Fermi energy is    -0.7338 ev

!    total energy              =   -2205.42091468 Ry
     estimated scf accuracy    <       0.00000084 Ry
     smearing contrib. (-TS)   =      -0.00796246 Ry
     internal energy E=F+TS    =   -2205.41295221 Ry

     The total energy is F=E-TS. E is the sum of the following terms:
     one-electron contribution =  -18058.10607075 Ry
     hartree contribution      =    9016.31212182 Ry
     xc contribution           =    -385.57456205 Ry
     ewald contribution        =    7221.95555876 Ry

     convergence has been achieved in  16 iterations

     negative rho (up, down):  1.377E-04 0.000E+00

     Forces acting on atoms (cartesian axes, Ry/au):

     atom    1 type  1   force =    -0.01707558   -0.01074556   -0.01407967
     atom    2 type  2   force =    -0.11788872    0.43117474   -0.32022884
     atom    3 type  2   force =    -0.01354596    0.00854554   -0.00176263
     atom    4 type  1   force =     0.00956002   -0.00799797    0.00132595
     atom    5 type  2   force =    -0.00455299   -0.00054654   -0.00635870
     atom    6 type  2   force =     0.00177543    0.00642378    0.00405608
     atom    7 type  1   force =     0.00188725    0.00204705   -0.01169508
     atom    8 type  2   force =     0.00150861   -0.00642432    0.01831251
     atom    9 type  2   force =     0.01370170    0.00471658    0.01234385
     atom   10 type  1   force =    -0.01704702   -0.01625398   -0.06574232
     atom   11 type  2   force =     0.00170494   -0.00446851   -0.00496106
     atom   12 type  2   force =     0.00074518    0.00103445    0.00834509
     atom   13 type  1   force =     0.00602697    0.00578849   -0.00001340
     atom   14 type  2   force =     0.00269587    0.00205415    0.00750517
     atom   15 type  2   force =    -0.00819288    0.00030836   -0.00898656
     atom   16 type  1   force =    -0.00179562    0.00225336    0.00155102
     atom   17 type  2   force =     0.00523979    0.00225527    0.00157070
     atom   18 type  2   force =    -0.00498210   -0.00531285    0.01554228
     atom   19 type  1   force =     0.00832447   -0.00575472   -0.00322147
     atom   20 type  2   force =     0.00389555   -0.00507272    0.00099751
     atom   21 type  1   force =    -0.00105967    0.00736512   -0.00331242
     atom   22 type  2   force =    -0.00278911   -0.00124081   -0.00094453
     atom   23 type  2   force =    -0.00035530    0.00094731    0.00852064
     atom   24 type  1   force =     0.01260766   -0.00645972   -0.01899872
     atom   25 type  2   force =     0.01985851    0.01980634    0.00513399
     atom   26 type  2   force =    -0.01449951   -0.00071327   -0.00397978
     atom   27 type  1   force =    -0.00549630   -0.00790716    0.00911271
     atom   28 type  2   force =     0.00244080    0.00510975   -0.00679556
     atom   29 type  2   force =     0.00252595    0.00085579   -0.00260390
     atom   30 type  1   force =    -0.00757746    0.01379431   -0.00535687
     atom   31 type  2   force =     0.00220384   -0.00120937    0.01626485
     atom   32 type  2   force =    -0.01074868    0.00534818    0.00761603
     atom   33 type  1   force =     0.01288315   -0.00237925   -0.01082753
     atom   34 type  2   force =     0.00972008   -0.05006302   -0.01088512
     atom   35 type  2   force =    -0.00902262    0.00710840    0.01535207
     atom   36 type  3   force =     0.11732378   -0.39438720    0.36720369
     The non-local contrib.  to forces
     atom    1 type  1   force =    -0.00980288    0.02940077   -0.02113184
     atom    2 type  2   force =    -0.03252560    0.13324289   -0.25192303
     atom    3 type  2   force =    -0.01395499   -0.00244250    0.27747532
     atom    4 type  1   force =    -0.00478364    0.01830148    0.00505449
     atom    5 type  2   force =     0.00823127   -0.02597168   -0.24983149
     atom    6 type  2   force =    -0.00240119    0.00599967    0.26297143
     atom    7 type  1   force =    -0.03143758   -0.01469443   -0.01514160
     atom    8 type  2   force =     0.00392457   -0.00419555   -0.25136409
     atom    9 type  2   force =     0.01174410   -0.01268648    0.27652285
     atom   10 type  1   force =     0.00034042   -0.00947719   -0.00665558
     atom   11 type  2   force =     0.01798719    0.00797592   -0.24971830
     atom   12 type  2   force =    -0.01049993   -0.01431117    0.26310783
     atom   13 type  1   force =    -0.00030215    0.02430467   -0.00847652
     atom   14 type  2   force =     0.00790841   -0.00438830   -0.25679250
     atom   15 type  2   force =    -0.00984503    0.00241889    0.26461876
     atom   16 type  1   force =     0.00178676    0.04961374   -0.01923990
     atom   17 type  2   force =     0.00101101   -0.03049924   -0.25153814
     atom   18 type  2   force =    -0.00493234   -0.00675391    0.27322787
     atom   19 type  1   force =     0.02606180   -0.01248405   -0.01211488
     atom   20 type  2   force =     0.00018698   -0.02085431    0.26366664
     atom   21 type  1   force =    -0.00025027    0.01259242    0.00565875
     atom   22 type  2   force =    -0.00758658    0.00618818   -0.25805544
     atom   23 type  2   force =     0.00635826   -0.01073945    0.26872418
     atom   24 type  1   force =     0.00389667    0.01836316   -0.01827192
     atom   25 type  2   force =     0.00386653    0.00851551   -0.25895639
     atom   26 type  2   force =    -0.00531704   -0.00572750    0.26427738
     atom   27 type  1   force =     0.00531757    0.01705706    0.00930023
     atom   28 type  2   force =    -0.00447270   -0.02644915   -0.27060560
     atom   29 type  2   force =     0.00783424   -0.00043799    0.26423152
     atom   30 type  1   force =     0.00445449    0.00962109    0.00479454
     atom   31 type  2   force =    -0.00787122   -0.00002646   -0.25231554
     atom   32 type  2   force =    -0.00736219   -0.01254783    0.27275077
     atom   33 type  1   force =    -0.00082791    0.00061417    0.00698284
     atom   34 type  2   force =     0.00179081   -0.04564884   -0.25494846
     atom   35 type  2   force =    -0.00457180   -0.01118121    0.27309336
     atom   36 type  3   force =    -0.02674640    0.09687234   -0.07900966
     The ionic contribution  to forces
     atom    1 type  1   force =     0.09850238    0.53636616    5.37854722
     atom    2 type  2   force =    -1.26824993    2.54600810   37.50853358
     atom    3 type  2   force =    -0.17284750    0.05369156  -36.22850998
     atom    4 type  1   force =     0.07807137    0.70467744    0.63045318
     atom    5 type  2   force =    -1.02886482    1.61359299   38.74356097
     atom    6 type  2   force =     0.32649225   -0.46343506  -38.04180152
     atom    7 type  1   force =    -2.70346759   -2.93928065    2.51256047
     atom    8 type  2   force =    -0.99404669   -0.04432270   37.38835050
     atom    9 type  2   force =     0.33880432   -0.05546382  -38.00981694
     atom   10 type  1   force =    -1.21281695   -0.80383468    4.66736273
     atom   11 type  2   force =    -0.80698525   -1.87431281   39.06480922
     atom   12 type  2   force =     0.40671165    0.64806751  -37.91351376
     atom   13 type  1   force =     0.51215515    1.08457327    2.80061538
     atom   14 type  2   force =    -0.10678719    0.04950554   38.49033740
     atom   15 type  2   force =     0.12264005   -0.04716647  -36.84339745
     atom   16 type  1   force =    -0.06588537    4.00903358    0.49592488
     atom   17 type  2   force =     0.82018505    1.55094033   37.94329229
     atom   18 type  2   force =    -0.15812543   -0.62403630  -38.56126517
     atom   19 type  1   force =     2.73051977   -2.52359837    0.66021431
     atom   20 type  2   force =     0.21947081   -0.20868452  -38.46950578
     atom   21 type  1   force =    -0.15727887   -0.04494719    1.02993200
     atom   22 type  2   force =     0.47431659   -1.77900585   38.43084611
     atom   23 type  2   force =    -0.08094786    0.64291435  -38.30263412
     atom   24 type  1   force =    -0.26418171    1.53164627    5.40519513
     atom   25 type  2   force =     0.92452625    0.36788324   39.21621089
     atom   26 type  2   force =    -0.24607373    0.08375074  -37.38281034
     atom   27 type  1   force =     0.07981897    0.47651364   -2.24867252
     atom   28 type  2   force =     0.10790718    1.15549151   38.19490024
     atom   29 type  2   force =    -0.24977461   -0.38562529  -37.28798745
     atom   30 type  1   force =    -0.26665113   -1.09238793   -0.11014318
     atom   31 type  2   force =     1.25854511   -0.09066698   37.33736713
     atom   32 type  2   force =    -0.46882830   -0.01851616  -38.62876349
     atom   33 type  1   force =     1.07033829   -0.97761145    1.85990191
     atom   34 type  2   force =     0.54945225   -1.87721022   39.21204793
     atom   35 type  2   force =    -0.26936594    0.42759757  -37.88621018
     atom   36 type  3   force =     0.40272142   -1.63214733    8.94406842
     The local contribution  to forces
     atom    1 type  1   force =    -0.10589218   -0.57626462   -5.37043622
     atom    2 type  2   force =     1.18227957   -2.24424612  -37.59366068
     atom    3 type  2   force =     0.17264726   -0.04263338   35.97107302
     atom    4 type  1   force =    -0.06362605   -0.73093148   -0.63301985
     atom    5 type  2   force =     1.01689647   -1.58978503  -38.51980033
     atom    6 type  2   force =    -0.32253403    0.46468104   37.80422230
     atom    7 type  1   force =     2.73684462    2.95580677   -2.50799029
     atom    8 type  2   force =     0.99187583    0.04150583  -37.13846041
     atom    9 type  2   force =    -0.33637326    0.07201888   37.76707583
     atom   10 type  1   force =     1.19549419    0.79695957   -4.72523273
     atom   11 type  2   force =     0.79179353    1.86286971  -38.83952214
     atom   12 type  2   force =    -0.39652757   -0.63394191   37.67997768
     atom   13 type  1   force =    -0.50580171   -1.10281469   -2.79102182
     atom   14 type  2   force =     0.10215910   -0.04272496  -38.24592695
     atom   15 type  2   force =    -0.12156300    0.04513182   36.59099471
     atom   16 type  1   force =     0.06223499   -4.05647901   -0.47397490
     atom   17 type  2   force =    -0.81605295   -1.51980225  -37.71003212
     atom   18 type  2   force =     0.15789811    0.62577296   38.32505256
     atom   19 type  1   force =    -2.74839494    2.53012519   -0.65015770
     atom   20 type  2   force =    -0.21591486    0.22362848   38.22834930
     atom   21 type  1   force =     0.15642346    0.03968195   -1.03778272
     atom   22 type  2   force =    -0.46975075    1.77215030  -38.19374868
     atom   23 type  2   force =     0.07476384   -0.63230284   38.06383140
     atom   24 type  1   force =     0.27298772   -1.55616520   -5.40477581
     atom   25 type  2   force =    -0.90898179   -0.35595789  -38.97220951
     atom   26 type  2   force =     0.23689004   -0.07898662   37.13596243
     atom   27 type  1   force =    -0.09066373   -0.50139881    2.24966371
     atom   28 type  2   force =    -0.10135853   -1.12589061  -37.95139964
     atom   29 type  2   force =     0.24509584    0.38736874   37.04232919
     atom   30 type  1   force =     0.25469996    1.09625870    0.10115961
     atom   31 type  2   force =    -1.24899245    0.08932758  -37.08881654
     atom   32 type  2   force =     0.46529543    0.03562033   38.38512398
     atom   33 type  1   force =    -1.05664159    0.97450074   -1.87653901
     atom   34 type  2   force =    -0.54215558    1.87173981  -38.98748412
     atom   35 type  2   force =     0.26489678   -0.41038432   37.65012075
     atom   36 type  3   force =    -0.25864942    1.14089038   -8.49777863
     The core correction contribution to forces
     atom    1 type  1   force =     0.00000000    0.00000000    0.00000000
     atom    2 type  2   force =     0.00066490   -0.00383780    0.01728143
     atom    3 type  2   force =     0.00061874    0.00001559   -0.02134674
     atom    4 type  1   force =     0.00000000    0.00000000    0.00000000
     atom    5 type  2   force =    -0.00082856    0.00170760    0.02010315
     atom    6 type  2   force =     0.00020917   -0.00074933   -0.02085504
     atom    7 type  1   force =     0.00000000    0.00000000    0.00000000
     atom    8 type  2   force =    -0.00016761    0.00049393    0.02021490
     atom    9 type  2   force =    -0.00041607    0.00076875   -0.02095859
     atom   10 type  1   force =     0.00000000    0.00000000    0.00000000
     atom   11 type  2   force =    -0.00110793   -0.00104455    0.01991601
     atom   12 type  2   force =     0.00102320    0.00117403   -0.02080594
     atom   13 type  1   force =     0.00000000    0.00000000    0.00000000
     atom   14 type  2   force =    -0.00060178   -0.00028448    0.02028892
     atom   15 type  2   force =     0.00056951   -0.00002350   -0.02072425
     atom   16 type  1   force =     0.00000000    0.00000000    0.00000000
     atom   17 type  2   force =     0.00009400    0.00169020    0.02026327
     atom   18 type  2   force =     0.00018582   -0.00022478   -0.02097265
     atom   19 type  1   force =     0.00000000    0.00000000    0.00000000
     atom   20 type  2   force =     0.00009624    0.00076933   -0.02107126
     atom   21 type  1   force =     0.00000000    0.00000000    0.00000000
     atom   22 type  2   force =     0.00023380   -0.00069291    0.02042537
     atom   23 type  2   force =    -0.00051373    0.00096343   -0.02091027
     atom   24 type  1   force =     0.00000000    0.00000000    0.00000000
     atom   25 type  2   force =     0.00043246   -0.00055226    0.02047991
     atom   26 type  2   force =     0.00000348    0.00034008   -0.02091110
     atom   27 type  1   force =     0.00000000    0.00000000    0.00000000
     atom   28 type  2   force =     0.00038123    0.00204323    0.02068976
     atom   29 type  2   force =    -0.00062252   -0.00036928   -0.02064935
     atom   30 type  1   force =     0.00000000    0.00000000    0.00000000
     atom   31 type  2   force =     0.00051611    0.00009886    0.02043846
     atom   32 type  2   force =     0.00014662    0.00074963   -0.02097456
     atom   33 type  1   force =     0.00000000    0.00000000    0.00000000
     atom   34 type  2   force =     0.00064620    0.00095612    0.01990878
     atom   35 type  2   force =     0.00004064    0.00095070   -0.02117745
     atom   36 type  3   force =     0.00000000    0.00000000    0.00000000
     The Hubbard contrib.    to forces
     atom    1 type  1   force =     0.00000000    0.00000000    0.00000000
     atom    2 type  2   force =     0.00000000    0.00000000    0.00000000
     atom    3 type  2   force =     0.00000000    0.00000000    0.00000000
     atom    4 type  1   force =     0.00000000    0.00000000    0.00000000
     atom    5 type  2   force =     0.00000000    0.00000000    0.00000000
     atom    6 type  2   force =     0.00000000    0.00000000    0.00000000
     atom    7 type  1   force =     0.00000000    0.00000000    0.00000000
     atom    8 type  2   force =     0.00000000    0.00000000    0.00000000
     atom    9 type  2   force =     0.00000000    0.00000000    0.00000000
     atom   10 type  1   force =     0.00000000    0.00000000    0.00000000
     atom   11 type  2   force =     0.00000000    0.00000000    0.00000000
     atom   12 type  2   force =     0.00000000    0.00000000    0.00000000
     atom   13 type  1   force =     0.00000000    0.00000000    0.00000000
     atom   14 type  2   force =     0.00000000    0.00000000    0.00000000
     atom   15 type  2   force =     0.00000000    0.00000000    0.00000000
     atom   16 type  1   force =     0.00000000    0.00000000    0.00000000
     atom   17 type  2   force =     0.00000000    0.00000000    0.00000000
     atom   18 type  2   force =     0.00000000    0.00000000    0.00000000
     atom   19 type  1   force =     0.00000000    0.00000000    0.00000000
     atom   20 type  2   force =     0.00000000    0.00000000    0.00000000
     atom   21 type  1   force =     0.00000000    0.00000000    0.00000000
     atom   22 type  2   force =     0.00000000    0.00000000    0.00000000
     atom   23 type  2   force =     0.00000000    0.00000000    0.00000000
     atom   24 type  1   force =     0.00000000    0.00000000    0.00000000
     atom   25 type  2   force =     0.00000000    0.00000000    0.00000000
     atom   26 type  2   force =     0.00000000    0.00000000    0.00000000
     atom   27 type  1   force =     0.00000000    0.00000000    0.00000000
     atom   28 type  2   force =     0.00000000    0.00000000    0.00000000
     atom   29 type  2   force =     0.00000000    0.00000000    0.00000000
     atom   30 type  1   force =     0.00000000    0.00000000    0.00000000
     atom   31 type  2   force =     0.00000000    0.00000000    0.00000000
     atom   32 type  2   force =     0.00000000    0.00000000    0.00000000
     atom   33 type  1   force =     0.00000000    0.00000000    0.00000000
     atom   34 type  2   force =     0.00000000    0.00000000    0.00000000
     atom   35 type  2   force =     0.00000000    0.00000000    0.00000000
     atom   36 type  3   force =     0.00000000    0.00000000    0.00000000
     The SCF correction term to forces
     atom    1 type  1   force =     0.00011778   -0.00025206   -0.00102616
     atom    2 type  2   force =    -0.00005699    0.00000348   -0.00042747
     atom    3 type  2   force =    -0.00000878   -0.00008993   -0.00042157
     atom    4 type  1   force =    -0.00010098   -0.00004960   -0.00112919
     atom    5 type  2   force =     0.00001334   -0.00009462   -0.00035833
     atom    6 type  2   force =     0.00000991   -0.00007673   -0.00044843
     atom    7 type  1   force =    -0.00005152    0.00021117   -0.00109098
     atom    8 type  2   force =    -0.00007679    0.00008998   -0.00039572
     atom    9 type  2   force =    -0.00005672    0.00007506   -0.00044661
     atom   10 type  1   force =    -0.00006399    0.00009413   -0.00118407
     atom   11 type  2   force =     0.00001808    0.00003903   -0.00041318
     atom   12 type  2   force =     0.00003851    0.00004180   -0.00038804
     atom   13 type  1   force =    -0.00002364   -0.00027895   -0.00109777
     atom   14 type  2   force =     0.00001802   -0.00005784   -0.00036902
     atom   15 type  2   force =     0.00000627   -0.00005658   -0.00044565
     atom   16 type  1   force =     0.00006868    0.00008085   -0.00112639
     atom   17 type  2   force =     0.00000337   -0.00007797   -0.00038193
     atom   18 type  2   force =    -0.00000758   -0.00007501   -0.00046766
     atom   19 type  1   force =     0.00013852    0.00019833   -0.00113052
     atom   20 type  2   force =     0.00005706    0.00006411   -0.00040871
     atom   21 type  1   force =     0.00004669    0.00003374   -0.00108777
     atom   22 type  2   force =    -0.00000149    0.00011527   -0.00037921
     atom   23 type  2   force =    -0.00001513    0.00010763   -0.00045787
     atom   24 type  1   force =    -0.00009432   -0.00030815   -0.00111344
     atom   25 type  2   force =     0.00001576   -0.00008645   -0.00035823
     atom   26 type  2   force =    -0.00000158   -0.00009417   -0.00046547
     atom   27 type  1   force =     0.00003158   -0.00008324   -0.00114603
     atom   28 type  2   force =    -0.00001569   -0.00008943   -0.00034765
     atom   29 type  2   force =    -0.00000631   -0.00008459   -0.00049514
     atom   30 type  1   force =    -0.00008010    0.00029825   -0.00113516
     atom   31 type  2   force =     0.00000697    0.00005343   -0.00037598
     atom   32 type  2   force =     0.00000043    0.00003802   -0.00048799
     atom   33 type  1   force =     0.00001505    0.00011309   -0.00114059
     atom   34 type  2   force =    -0.00001292    0.00009593   -0.00037656
     atom   35 type  2   force =    -0.00002162    0.00012147   -0.00044173
     atom   36 type  3   force =    -0.00000113   -0.00000679   -0.00004377

     Total force =     0.787687     Total SCF correction =     0.004439

     BFGS Geometry Optimization
     Energy error            =      0.0E+00 Ry
     Gradient error          =      4.3E-01 Ry/Bohr

     number of scf cycles    =   1
     number of bfgs steps    =   0

     energy             new  =   -2205.4209146760 Ry

     new trust radius        =       0.5000000000 bohr
     new conv_thr            =       0.0000010000 Ry


ATOMIC_POSITIONS (angstrom)
Mo            6.5663560967        1.7826508566        2.8168880626
S             8.1201501363        1.0165677476        4.2809028923
S             8.1867341720        0.8153416200        1.2770377718
Mo            8.0997491530        4.4912197768        2.7184545417
S             6.4977248811        3.7221492752        4.3436099496
S             6.5542015926        3.5148194795        1.1232262022
Mo            6.4908871366        7.2194193944        2.6662735631
S             8.0824515116        6.3407888131        4.2512473130
S             8.0874912787        6.3069651781        1.0897851812
Mo            8.1524404368        9.8943822802        2.8119207165
S             6.4959855693        8.9407829670        4.3807253789
S             6.6183047109        9.0492075105        1.1439110097
Mo            3.4245512088        1.7497329800        2.7764647329
S             4.9764588823        0.8179267234        4.3541338307
S             5.0539030738        0.8464100477        1.2223469982
Mo            4.9788951995        4.5142590913        2.6336286790
S             3.4303555456        3.6726816900        4.2804631488
S             3.4355303300        3.5456797653        1.0658083655
Mo            3.4578555514        7.2135636119        2.6291313050
S             4.9851031515        6.3244985566        1.0377323056
Mo            5.0117555232        9.9051335988        2.7418117698
S             3.4696199921        8.9431559695        4.3251381587
S             3.4082587031        9.0654444722        1.1001562290
Mo            0.3021392371        1.7444103665        2.8403297385
S             1.8599896855        0.8021964491        4.4006725596
S             1.8538436358        0.8540837129        1.2074914839
Mo            1.8580543630        4.4918731633        2.6645693648
S             0.2733848682        3.6568503181        4.3343238081
S             0.2324430753        3.5276598051        1.1707686188
Mo            0.2675167305        7.2232641593        2.6991263733
S             1.9032955775        6.3122186176        4.2302474734
S             1.8570813425        6.3129096949        1.0482132081
Mo            1.8505275805        9.9389976644        2.7677515539
S             0.3005762785        9.0659792046        4.4086471377
S             0.2724426374        9.0469360972        1.1577662090
H             8.4622970520       -0.1892142479        5.2900419415



     Writing config-only to output data dir ./MoS2-V-O.save/
     NEW-OLD atomic charge density approx. for the potential

     negative rho (up, down):  1.529E-04 0.000E+00

     total cpu time spent up to now is       97.7 secs

     Self-consistent Calculation

     iteration #  1     ecut=    80.00 Ry     beta= 0.70
     Davidson diagonalization with overlap
     ethr =  1.00E-06,  avg # of iterations = 20.0

     negative rho (up, down):  5.947E-04 0.000E+00

     total cpu time spent up to now is      114.4 secs

     total energy              =   -2205.50330487 Ry
     estimated scf accuracy    <       0.07355625 Ry

     iteration #  2     ecut=    80.00 Ry     beta= 0.70
     Davidson diagonalization with overlap
     ethr =  2.40E-05,  avg # of iterations =  3.0

     negative rho (up, down):  1.664E-03 0.000E+00

     total cpu time spent up to now is      127.4 secs

     total energy              =   -2205.50571521 Ry
     estimated scf accuracy    <       0.01239584 Ry

     iteration #  3     ecut=    80.00 Ry     beta= 0.70
     Davidson diagonalization with overlap
     ethr =  4.04E-06,  avg # of iterations =  5.0

     negative rho (up, down):  2.071E-03 0.000E+00

     total cpu time spent up to now is      142.1 secs

     total energy              =   -2205.50675601 Ry
     estimated scf accuracy    <       0.00239140 Ry

     iteration #  4     ecut=    80.00 Ry     beta= 0.70
     Davidson diagonalization with overlap
     ethr =  7.79E-07,  avg # of iterations =  2.0

     negative rho (up, down):  2.390E-03 0.000E+00

     total cpu time spent up to now is      155.3 secs

     total energy              =   -2205.50697132 Ry
     estimated scf accuracy    <       0.00078777 Ry

     iteration #  5     ecut=    80.00 Ry     beta= 0.70
     Davidson diagonalization with overlap
     ethr =  2.57E-07,  avg # of iterations =  2.0

     negative rho (up, down):  2.451E-03 0.000E+00

     total cpu time spent up to now is      166.0 secs

     total energy              =   -2205.50700412 Ry
     estimated scf accuracy    <       0.00010279 Ry

     iteration #  6     ecut=    80.00 Ry     beta= 0.70
     Davidson diagonalization with overlap
     ethr =  3.35E-08,  avg # of iterations =  6.0

     negative rho (up, down):  2.232E-03 0.000E+00

     total cpu time spent up to now is      179.4 secs

     total energy              =   -2205.50701613 Ry
     estimated scf accuracy    <       0.00003719 Ry

     iteration #  7     ecut=    80.00 Ry     beta= 0.70
     Davidson diagonalization with overlap
     ethr =  1.21E-08,  avg # of iterations =  2.0

     negative rho (up, down):  1.904E-03 0.000E+00

     total cpu time spent up to now is      189.9 secs

     total energy              =   -2205.50701657 Ry
     estimated scf accuracy    <       0.00001075 Ry

     iteration #  8     ecut=    80.00 Ry     beta= 0.70
     Davidson diagonalization with overlap
     ethr =  3.50E-09,  avg # of iterations =  4.0

     negative rho (up, down):  1.474E-03 0.000E+00

     total cpu time spent up to now is      200.3 secs

     total energy              =   -2205.50701515 Ry
     estimated scf accuracy    <       0.00000414 Ry

     iteration #  9     ecut=    80.00 Ry     beta= 0.70
     Davidson diagonalization with overlap
     ethr =  1.35E-09,  avg # of iterations =  5.0

     negative rho (up, down):  8.448E-04 0.000E+00

     total cpu time spent up to now is      210.2 secs

     total energy              =   -2205.50701301 Ry
     estimated scf accuracy    <       0.00000160 Ry

     iteration # 10     ecut=    80.00 Ry     beta= 0.70
     Davidson diagonalization with overlap
     ethr =  5.23E-10,  avg # of iterations =  5.0

     negative rho (up, down):  1.375E-04 0.000E+00

     total cpu time spent up to now is      212.6 secs

     End of self-consistent calculation

          k = 0.0000 0.0000 0.0000 (105382 PWs)   bands (ev):

   -62.8622 -62.8540 -62.8408 -62.8310 -62.8270 -62.8190 -62.8094 -62.7946
   -62.7410 -62.6575 -62.6412 -62.5738 -37.1963 -37.1654 -37.1329 -37.1242
   -37.1079 -37.0997 -37.0821 -37.0742 -37.0478 -37.0441 -37.0353 -37.0182
   -37.0168 -37.0110 -36.9981 -36.9937 -36.9896 -36.9847 -36.9803 -36.9718
   -36.9311 -36.9140 -36.8928 -36.8632 -36.8612 -36.8543 -36.8385 -36.8282
   -36.8108 -36.8075 -36.8007 -36.7919 -36.7560 -36.7157 -36.6036 -36.5986
   -16.1784 -15.5272 -15.1643 -15.0386 -14.9307 -14.8247 -14.6575 -14.4723
   -14.4349 -14.4094 -14.3849 -14.3449 -14.3204 -14.2589 -14.1474 -14.1258
   -14.0845 -14.0735 -14.0027 -13.9231 -13.8089 -13.7870 -13.7688  -8.5967
    -7.6205  -7.4547  -7.3764  -7.2951  -7.2542  -7.1966  -7.1667  -7.0277
    -6.8628  -6.7975  -6.7522  -6.7042  -6.5989  -6.5258  -6.4554  -6.4161
    -6.3425  -6.2752  -6.1013  -5.9768  -5.9338  -5.8647  -5.8391  -5.8129
    -5.7484  -5.7093  -5.6427  -5.6356  -5.5891  -5.5478  -5.5215  -5.4302
    -5.3965  -5.3272  -5.2661  -5.1422  -5.0897  -5.0193  -4.9466  -4.9405
    -4.9167  -4.7993  -4.6743  -4.5180  -4.4026  -4.3058  -4.2679  -4.2165
    -4.2026  -4.0793  -4.0102  -3.9002  -3.8449  -3.7364  -3.6928  -3.6779
    -3.6491  -3.5902  -3.5530  -3.4950  -3.4862  -3.4502  -3.4013  -3.3687
    -3.3343  -3.1851  -3.0934  -2.8979  -2.8628  -2.8121  -2.7639  -2.7034
    -2.6865  -2.6729  -2.6132  -2.5801  -2.5110  -2.2236  -1.9842  -1.9734
    -1.8702  -0.7644  -0.6463  -0.6217  -0.1666  -0.1329  -0.0419  -0.0177
     0.0613   0.1652   0.1918   0.2704   0.2816   0.3143   0.4457   0.4890
     0.5206   0.5352   0.6010   0.6255   0.6412   0.6667   0.7417   0.7600
     0.7973   0.8314   0.9111   0.9268   0.9925   1.0223   1.0507   1.2318
     1.4106

     the Fermi energy is    -0.7905 ev

!    total energy              =   -2205.50701234 Ry
     estimated scf accuracy    <       0.00000057 Ry
     smearing contrib. (-TS)   =      -0.00848480 Ry
     internal energy E=F+TS    =   -2205.49852754 Ry

     The total energy is F=E-TS. E is the sum of the following terms:
     one-electron contribution =  -18075.72547599 Ry
     hartree contribution      =    9024.83429729 Ry
     xc contribution           =    -385.40111303 Ry
     ewald contribution        =    7230.79376418 Ry

     convergence has been achieved in  10 iterations

     negative rho (up, down):  1.375E-04 0.000E+00

     Forces acting on atoms (cartesian axes, Ry/au):

     atom    1 type  1   force =    -0.04918738    0.01544978   -0.04727106
     atom    2 type  2   force =     0.04504458   -0.10506113    0.13692917
     atom    3 type  2   force =    -0.01008534    0.00499620   -0.01954527
     atom    4 type  1   force =     0.00645986   -0.00024124    0.00095394
     atom    5 type  2   force =    -0.00601333    0.00274481   -0.00518782
     atom    6 type  2   force =     0.00098676    0.00904339   -0.00083055
     atom    7 type  1   force =     0.00093907   -0.00503870   -0.00221525
     atom    8 type  2   force =    -0.00016530   -0.00603620    0.01149428
     atom    9 type  2   force =     0.01283995    0.00374095    0.00866774
     atom   10 type  1   force =    -0.01043298    0.01275228   -0.02244149
     atom   11 type  2   force =     0.00294270   -0.00116749   -0.00851762
     atom   12 type  2   force =    -0.00366669   -0.00077273   -0.00144868
     atom   13 type  1   force =     0.00391404    0.00476607   -0.00428948
     atom   14 type  2   force =     0.00260485   -0.00006167    0.01000094
     atom   15 type  2   force =    -0.01246805   -0.00311193   -0.01238164
     atom   16 type  1   force =    -0.00093957    0.00554060    0.00183656
     atom   17 type  2   force =     0.00517070    0.00205377    0.00182619
     atom   18 type  2   force =    -0.00436822   -0.00425156    0.01235900
     atom   19 type  1   force =     0.00712987   -0.00353826    0.00089684
     atom   20 type  2   force =     0.00318139   -0.00459720   -0.00170677
     atom   21 type  1   force =    -0.00221503    0.00142134    0.00025827
     atom   22 type  2   force =    -0.00100525   -0.00072795   -0.00301764
     atom   23 type  2   force =     0.00110538   -0.00015525    0.00449235
     atom   24 type  1   force =     0.02099632    0.01868328   -0.04098656
     atom   25 type  2   force =     0.01053093    0.01338697    0.00357481
     atom   26 type  2   force =    -0.00492039   -0.00252920   -0.00605883
     atom   27 type  1   force =    -0.00257658   -0.00175065    0.00640433
     atom   28 type  2   force =     0.00499472    0.00395597   -0.00310867
     atom   29 type  2   force =     0.00367025    0.00204855   -0.00468256
     atom   30 type  1   force =    -0.00189168    0.00170866   -0.00249355
     atom   31 type  2   force =     0.00077317   -0.00028908    0.01078550
     atom   32 type  2   force =    -0.00984697    0.00435863    0.00770993
     atom   33 type  1   force =     0.00467908   -0.00367689    0.00058724
     atom   34 type  2   force =    -0.00201274   -0.02334779   -0.00611584
     atom   35 type  2   force =    -0.00489825    0.00670721    0.00582198
     atom   36 type  3   force =    -0.01126987    0.05299644   -0.03229979
     The non-local contrib.  to forces
     atom    1 type  1   force =    -0.00051848    0.02611281   -0.01768529
     atom    2 type  2   force =     0.06975196   -0.30978079    0.05736432
     atom    3 type  2   force =    -0.01247453   -0.00492624    0.26862826
     atom    4 type  1   force =    -0.00223220    0.01635543    0.00470475
     atom    5 type  2   force =     0.00611933   -0.02454450   -0.25308646
     atom    6 type  2   force =    -0.00091246    0.01043069    0.26003827
     atom    7 type  1   force =    -0.02619475   -0.01158910   -0.01668502
     atom    8 type  2   force =     0.00214208   -0.00534382   -0.25434839
     atom    9 type  2   force =     0.00930646   -0.01293867    0.27449547
     atom   10 type  1   force =    -0.00018807   -0.00672941   -0.00216531
     atom   11 type  2   force =     0.01207984    0.00643412   -0.25423533
     atom   12 type  2   force =    -0.01174736   -0.01394697    0.25816446
     atom   13 type  1   force =    -0.00082391    0.02212010   -0.01210205
     atom   14 type  2   force =     0.00852374   -0.00514701   -0.25665333
     atom   15 type  2   force =    -0.01162414   -0.00540862    0.25940239
     atom   16 type  1   force =     0.00066892    0.04523204   -0.02142766
     atom   17 type  2   force =     0.00087347   -0.02984798   -0.24983303
     atom   18 type  2   force =    -0.00401771   -0.00437951    0.27141293
     atom   19 type  1   force =     0.02242427   -0.01063367   -0.01401533
     atom   20 type  2   force =     0.00043899   -0.01995612    0.26284601
     atom   21 type  1   force =     0.00083720    0.01606496    0.00351281
     atom   22 type  2   force =    -0.00515028    0.00443731   -0.25973216
     atom   23 type  2   force =     0.00811013   -0.01257626    0.26555827
     atom   24 type  1   force =     0.00276793    0.00987311   -0.01168813
     atom   25 type  2   force =     0.00200785    0.00301442   -0.25825816
     atom   26 type  2   force =     0.00217211   -0.01316800    0.25922759
     atom   27 type  1   force =     0.00193209    0.01419601    0.00908901
     atom   28 type  2   force =    -0.00270056   -0.02574299   -0.27400418
     atom   29 type  2   force =     0.00694954   -0.00054176    0.26323641
     atom   30 type  1   force =     0.00083957    0.01371411    0.00405972
     atom   31 type  2   force =    -0.00708664    0.00052773   -0.25590149
     atom   32 type  2   force =    -0.00455595   -0.01305093    0.27351090
     atom   33 type  1   force =    -0.00326861    0.00138832    0.00549460
     atom   34 type  2   force =    -0.01555535   -0.00243806   -0.24324117
     atom   35 type  2   force =    -0.00301833   -0.01041230    0.26753671
     atom   36 type  3   force =    -0.00567432    0.02185834   -0.02033897
     The ionic contribution  to forces
     atom    1 type  1   force =    -0.88410582    0.70723210    4.45134543
     atom    2 type  2   force =    -0.46750275    0.11507401   37.47675521
     atom    3 type  2   force =    -0.08859800    0.03662674  -36.34830754
     atom    4 type  1   force =     0.00648424    1.08248108    0.69312478
     atom    5 type  2   force =    -1.10677079    1.75975543   38.80236779
     atom    6 type  2   force =     0.29750053   -0.36263269  -38.06095243
     atom    7 type  1   force =    -2.69105944   -2.97861064    2.51947245
     atom    8 type  2   force =    -1.02332802    0.04728808   37.50666417
     atom    9 type  2   force =     0.32237411   -0.10923146  -37.93953493
     atom   10 type  1   force =    -0.75953414   -0.40195532    4.71874339
     atom   11 type  2   force =    -0.60186082   -1.67064290   39.15181229
     atom   12 type  2   force =     0.24765749    0.56074062  -37.95005703
     atom   13 type  1   force =     0.36233767    0.92539156    2.94799733
     atom   14 type  2   force =    -0.12116197   -0.10242759   38.71548258
     atom   15 type  2   force =     0.02089551   -0.08503542  -36.96446579
     atom   16 type  1   force =    -0.08510075    4.17438258    0.58826017
     atom   17 type  2   force =     0.80206472    1.57029292   38.04075513
     atom   18 type  2   force =    -0.17248670   -0.55191445  -38.51585991
     atom   19 type  1   force =     2.60912609   -2.49993040    0.74260395
     atom   20 type  2   force =     0.19018338   -0.21395129  -38.48437009
     atom   21 type  1   force =    -0.19637728   -0.20243198    1.33164486
     atom   22 type  2   force =     0.46108932   -1.75947124   38.48950533
     atom   23 type  2   force =    -0.08289466    0.58426789  -38.25575679
     atom   24 type  1   force =     0.58235140    1.10361267    5.01097478
     atom   25 type  2   force =     0.66067756    0.15699872   39.34828193
     atom   26 type  2   force =    -0.16259267    0.03665200  -37.38397798
     atom   27 type  1   force =     0.16726104    0.75505725   -1.97149646
     atom   28 type  2   force =     0.20700594    1.16236054   38.31410904
     atom   29 type  2   force =    -0.20791468   -0.30245918  -37.37282181
     atom   30 type  1   force =    -0.11957043   -1.18520085    0.03128328
     atom   31 type  2   force =     1.24763160   -0.01610583   37.39451331
     atom   32 type  2   force =    -0.43221388   -0.03504195  -38.52925784
     atom   33 type  1   force =     0.76872910   -0.87175194    2.14507297
     atom   34 type  2   force =     0.30304110   -1.39274586   39.15814418
     atom   35 type  2   force =    -0.11108044    0.41005460  -37.81808285
     atom   36 type  3   force =     0.05774244   -0.44672780    8.01602710
     The local contribution  to forces
     atom    1 type  1   force =     0.83532994   -0.71783462   -4.48072753
     atom    2 type  2   force =     0.44689119    0.07225325  -37.39989838
     atom    3 type  2   force =     0.09037739   -0.02702613   36.08097178
     atom    4 type  1   force =     0.00239215   -1.09913913   -0.69651975
     atom    5 type  2   force =     1.09537189   -1.73400927  -38.57434943
     atom    6 type  2   force =    -0.29571565    0.36219598   37.82071713
     atom    7 type  1   force =     2.71859778    2.98521115   -2.50481492
     atom    8 type  2   force =     1.02123084   -0.04863761  -37.26071676
     atom    9 type  2   force =    -0.31845309    0.12515143   37.69450525
     atom   10 type  1   force =     0.74934040    0.42148476   -4.73861979
     atom   11 type  2   force =     0.59352606    1.66398153  -38.92594620
     atom   12 type  2   force =    -0.24039718   -0.54859554   37.71109725
     atom   13 type  1   force =    -0.35754131   -0.94262784   -2.93989957
     atom   14 type  2   force =     0.11588366    0.10780768  -38.46884454
     atom   15 type  2   force =    -0.02232190    0.08698670   36.71317998
     atom   16 type  1   force =     0.08350358   -4.21440182   -0.56472000
     atom   17 type  2   force =    -0.79789585   -1.54004789  -37.80895976
     atom   18 type  2   force =     0.17198494    0.55235346   38.27766461
     atom   19 type  1   force =    -2.62474953    2.50697956   -0.72745551
     atom   20 type  2   force =    -0.18752691    0.22852219   38.24061114
     atom   21 type  1   force =     0.19345330    0.18806590   -1.33464165
     atom   22 type  2   force =    -0.45708717    1.75493355  -38.25290200
     atom   23 type  2   force =     0.07645218   -0.57284337   38.01537003
     atom   24 type  1   force =    -0.56411747   -1.09470323   -5.04001311
     atom   25 type  2   force =    -0.65252798   -0.14624297  -39.10662566
     atom   26 type  2   force =     0.15580610   -0.02670403   37.13932354
     atom   27 type  1   force =    -0.17197668   -0.77106075    1.96915911
     atom   28 type  2   force =    -0.19959778   -1.13441921  -38.06383145
     atom   29 type  2   force =     0.20517711    0.30548922   37.12550695
     atom   30 type  1   force =     0.11673694    1.17313919   -0.03759202
     atom   31 type  2   force =    -1.24032161    0.01510320  -37.14793510
     atom   32 type  2   force =     0.42681828    0.05166781   38.28432501
     atom   33 type  1   force =    -0.76094983    0.86666376   -2.14973628
     atom   34 type  2   force =    -0.29090888    1.37259246  -38.94004896
     atom   35 type  2   force =     0.10901980   -0.39386567   37.57743168
     atom   36 type  3   force =    -0.06335221    0.47787920   -8.02795580
     The core correction contribution to forces
     atom    1 type  1   force =     0.00000000    0.00000000    0.00000000
     atom    2 type  2   force =    -0.00409108    0.01705203    0.00317617
     atom    3 type  2   force =     0.00057729    0.00024426   -0.02083397
     atom    4 type  1   force =     0.00000000    0.00000000    0.00000000
     atom    5 type  2   force =    -0.00069536    0.00156179    0.02023669
     atom    6 type  2   force =     0.00016187   -0.00094941   -0.02071322
     atom    7 type  1   force =     0.00000000    0.00000000    0.00000000
     atom    8 type  2   force =    -0.00007811    0.00056430    0.02028714
     atom    9 type  2   force =    -0.00027594    0.00070005   -0.02091460
     atom   10 type  1   force =     0.00000000    0.00000000    0.00000000
     atom   11 type  2   force =    -0.00068421   -0.00082649    0.02019770
     atom   12 type  2   force =     0.00092553    0.00114144   -0.02073532
     atom   13 type  1   force =     0.00000000    0.00000000    0.00000000
     atom   14 type  2   force =    -0.00064068   -0.00026825    0.02032265
     atom   15 type  2   force =     0.00058803    0.00034303   -0.02054150
     atom   16 type  1   force =     0.00000000    0.00000000    0.00000000
     atom   17 type  2   force =     0.00009262    0.00164582    0.02022098
     atom   18 type  2   force =     0.00011526   -0.00033065   -0.02094440
     atom   19 type  1   force =     0.00000000    0.00000000    0.00000000
     atom   20 type  2   force =     0.00008048    0.00070914   -0.02107991
     atom   21 type  1   force =     0.00000000    0.00000000    0.00000000
     atom   22 type  2   force =     0.00011394   -0.00060143    0.02052350
     atom   23 type  2   force =    -0.00057793    0.00105336   -0.02082110
     atom   24 type  1   force =     0.00000000    0.00000000    0.00000000
     atom   25 type  2   force =     0.00040310   -0.00037322    0.02049325
     atom   26 type  2   force =    -0.00028457    0.00069351   -0.02069975
     atom   27 type  1   force =     0.00000000    0.00000000    0.00000000
     atom   28 type  2   force =     0.00027597    0.00187913    0.02090190
     atom   29 type  2   force =    -0.00056044   -0.00036172   -0.02063473
     atom   30 type  1   force =     0.00000000    0.00000000    0.00000000
     atom   31 type  2   force =     0.00044248    0.00010262    0.02050285
     atom   32 type  2   force =    -0.00000171    0.00072362   -0.02098017
     atom   33 type  1   force =     0.00000000    0.00000000    0.00000000
     atom   34 type  2   force =     0.00128412   -0.00072763    0.01929199
     atom   35 type  2   force =     0.00009085    0.00091033   -0.02104478
     atom   36 type  3   force =     0.00000000    0.00000000    0.00000000
     The Hubbard contrib.    to forces
     atom    1 type  1   force =     0.00000000    0.00000000    0.00000000
     atom    2 type  2   force =     0.00000000    0.00000000    0.00000000
     atom    3 type  2   force =     0.00000000    0.00000000    0.00000000
     atom    4 type  1   force =     0.00000000    0.00000000    0.00000000
     atom    5 type  2   force =     0.00000000    0.00000000    0.00000000
     atom    6 type  2   force =     0.00000000    0.00000000    0.00000000
     atom    7 type  1   force =     0.00000000    0.00000000    0.00000000
     atom    8 type  2   force =     0.00000000    0.00000000    0.00000000
     atom    9 type  2   force =     0.00000000    0.00000000    0.00000000
     atom   10 type  1   force =     0.00000000    0.00000000    0.00000000
     atom   11 type  2   force =     0.00000000    0.00000000    0.00000000
     atom   12 type  2   force =     0.00000000    0.00000000    0.00000000
     atom   13 type  1   force =     0.00000000    0.00000000    0.00000000
     atom   14 type  2   force =     0.00000000    0.00000000    0.00000000
     atom   15 type  2   force =     0.00000000    0.00000000    0.00000000
     atom   16 type  1   force =     0.00000000    0.00000000    0.00000000
     atom   17 type  2   force =     0.00000000    0.00000000    0.00000000
     atom   18 type  2   force =     0.00000000    0.00000000    0.00000000
     atom   19 type  1   force =     0.00000000    0.00000000    0.00000000
     atom   20 type  2   force =     0.00000000    0.00000000    0.00000000
     atom   21 type  1   force =     0.00000000    0.00000000    0.00000000
     atom   22 type  2   force =     0.00000000    0.00000000    0.00000000
     atom   23 type  2   force =     0.00000000    0.00000000    0.00000000
     atom   24 type  1   force =     0.00000000    0.00000000    0.00000000
     atom   25 type  2   force =     0.00000000    0.00000000    0.00000000
     atom   26 type  2   force =     0.00000000    0.00000000    0.00000000
     atom   27 type  1   force =     0.00000000    0.00000000    0.00000000
     atom   28 type  2   force =     0.00000000    0.00000000    0.00000000
     atom   29 type  2   force =     0.00000000    0.00000000    0.00000000
     atom   30 type  1   force =     0.00000000    0.00000000    0.00000000
     atom   31 type  2   force =     0.00000000    0.00000000    0.00000000
     atom   32 type  2   force =     0.00000000    0.00000000    0.00000000
     atom   33 type  1   force =     0.00000000    0.00000000    0.00000000
     atom   34 type  2   force =     0.00000000    0.00000000    0.00000000
     atom   35 type  2   force =     0.00000000    0.00000000    0.00000000
     atom   36 type  3   force =     0.00000000    0.00000000    0.00000000
     The SCF correction term to forces
     atom    1 type  1   force =     0.00010542   -0.00006529   -0.00018231
     atom    2 type  2   force =    -0.00000630    0.00033560   -0.00044679
     atom    3 type  2   force =     0.00003095    0.00007278    0.00001756
     atom    4 type  1   force =    -0.00018588    0.00005660   -0.00033447
     atom    5 type  2   force =    -0.00003997   -0.00002342   -0.00033503
     atom    6 type  2   force =    -0.00004909   -0.00000596    0.00010108
     atom    7 type  1   force =    -0.00040607   -0.00005489   -0.00016638
     atom    8 type  2   force =    -0.00013365    0.00008806   -0.00037050
     atom    9 type  2   force =    -0.00011317    0.00005482    0.00013791
     atom   10 type  1   force =    -0.00005274   -0.00005253   -0.00037841
     atom   11 type  2   force =    -0.00011973   -0.00011853   -0.00032471
     atom   12 type  2   force =    -0.00010673   -0.00011707    0.00010334
     atom   13 type  1   force =    -0.00005997   -0.00012253   -0.00026383
     atom   14 type  2   force =    -0.00000146   -0.00003128   -0.00028505
     atom   15 type  2   force =    -0.00000712   -0.00000239    0.00006464
     atom   16 type  1   force =    -0.00001287    0.00032301   -0.00025458
     atom   17 type  2   force =     0.00003417    0.00000612   -0.00033576
     atom   18 type  2   force =     0.00003443    0.00001482    0.00010714
     atom   19 type  1   force =     0.00032748    0.00004147   -0.00021489
     atom   20 type  2   force =     0.00000389    0.00007411    0.00030745
     atom   21 type  1   force =    -0.00012981   -0.00028234   -0.00023637
     atom   22 type  2   force =     0.00002738   -0.00003092   -0.00039094
     atom   23 type  2   force =     0.00001411   -0.00006165    0.00016330
     atom   24 type  1   force =    -0.00000710   -0.00010406   -0.00023872
     atom   25 type  2   force =    -0.00003116   -0.00001477   -0.00029518
     atom   26 type  2   force =    -0.00002292   -0.00000747    0.00008913
     atom   27 type  1   force =     0.00020540    0.00005205   -0.00032596
     atom   28 type  2   force =     0.00000959   -0.00012628   -0.00026262
     atom   29 type  2   force =     0.00001716   -0.00008279    0.00005198
     atom   30 type  1   force =     0.00010067    0.00005143   -0.00022316
     atom   31 type  2   force =     0.00010577    0.00007841   -0.00037270
     atom   32 type  2   force =     0.00010473    0.00005529    0.00013339
     atom   33 type  1   force =     0.00016687    0.00001819   -0.00022269
     atom   34 type  2   force =     0.00012471   -0.00003347   -0.00024050
     atom   35 type  2   force =     0.00008831    0.00001547    0.00000259
     atom   36 type  3   force =     0.00001265   -0.00001808   -0.00001075

     Total force =     0.218197     Total SCF correction =     0.001800
     Energy error            =      8.6E-02 Ry
     Gradient error          =      1.4E-01 Ry/Bohr

     number of scf cycles    =   2
     number of bfgs steps    =   1

     energy             old  =   -2205.4209146760 Ry
     energy             new  =   -2205.5070123430 Ry

     CASE: energy            _new < energy            _old

     new trust radius        =       0.1269898756 bohr
     new conv_thr            =       0.0000001369 Ry


ATOMIC_POSITIONS (angstrom)
Mo            6.5441727832        1.7892556683        2.7956215162
S             8.1374563780        0.9797228830        4.3343707319
S             8.1819593899        0.8177483583        1.2683361040
Mo            8.1028274065        4.4909326517        2.7189071792
S             6.4949573389        3.7233533882        4.3411675643
S             6.5546789035        3.5189720184        1.1229495161
Mo            6.4913458344        7.2172324999        2.6650283020
S             8.0824122460        6.3379689712        4.2567539046
S             8.0934903408        6.3087293447        1.0939046335
Mo            8.1474327012        9.8996675124        2.8004938956
S             6.4973281148        8.9401648781        4.3768388098
S             6.6166965187        9.0488883662        1.1434570297
Mo            3.4264216101        1.7519756051        2.7745634450
S             4.9776740269        0.8179456788        4.3587350955
S             5.0481929542        0.8450378710        1.2166572900
Mo            4.9784383487        4.5167653134        2.6344775433
S             3.4327651287        3.6736426822        4.2813078596
S             3.4334821902        3.5436758752        1.0716357576
Mo            3.4612028942        7.2118658792        2.6294561747
S             4.9866008374        6.3223468984        1.0369983884
Mo            5.0107500025        9.9059294523        2.7418515929
S             3.4691116463        8.9428054018        4.3237795369
S             3.4087405747        9.0653970135        1.1023391118
Mo            0.3117283391        1.7525447509        2.8217374821
S             1.8651041796        0.8085754906        4.4023725057
S             1.8513363387        0.8529467648        1.2047166925
Mo            1.8567886449        4.4909191541        2.6676129279
S             0.2756533950        3.6587186373        4.3327930042
S             0.2341265500        3.5285869538        1.1686347594
Mo            0.2665076458        7.2243322157        2.6979005944
S             1.9036878849        6.3120632555        4.2353938124
S             1.8524752303        6.3149618334        1.0518016543
Mo            1.8528915185        9.9373145545        2.7677678299
S             0.2999033013        9.0545040280        4.4056914903
S             0.2700685586        9.0500687279        1.1606922791
H             8.4599461446       -0.1746141673        5.2840015619



     Writing config-only to output data dir ./MoS2-V-O.save/
     NEW-OLD atomic charge density approx. for the potential

     negative rho (up, down):  1.493E-04 0.000E+00

     total cpu time spent up to now is      216.2 secs

     Self-consistent Calculation

     iteration #  1     ecut=    80.00 Ry     beta= 0.70
     Davidson diagonalization with overlap
     ethr =  1.00E-06,  avg # of iterations = 11.0

     negative rho (up, down):  6.093E-05 0.000E+00

     total cpu time spent up to now is      233.2 secs

     total energy              =   -2205.53458889 Ry
     estimated scf accuracy    <       0.00724035 Ry

     iteration #  2     ecut=    80.00 Ry     beta= 0.70
     Davidson diagonalization with overlap
     ethr =  2.36E-06,  avg # of iterations =  2.0

     negative rho (up, down):  5.400E-05 0.000E+00

     total cpu time spent up to now is      248.9 secs

     total energy              =   -2205.53492985 Ry
     estimated scf accuracy    <       0.00231291 Ry

     iteration #  3     ecut=    80.00 Ry     beta= 0.70
     Davidson diagonalization with overlap
     ethr =  7.53E-07,  avg # of iterations =  2.0

     negative rho (up, down):  4.125E-05 0.000E+00

     total cpu time spent up to now is      264.5 secs

     total energy              =   -2205.53504374 Ry
     estimated scf accuracy    <       0.00057770 Ry

     iteration #  4     ecut=    80.00 Ry     beta= 0.70
     Davidson diagonalization with overlap
     ethr =  1.88E-07,  avg # of iterations =  3.0

     negative rho (up, down):  3.874E-05 0.000E+00

     total cpu time spent up to now is      279.3 secs

     total energy              =   -2205.53509159 Ry
     estimated scf accuracy    <       0.00004622 Ry

     iteration #  5     ecut=    80.00 Ry     beta= 0.70
     Davidson diagonalization with overlap
     ethr =  1.51E-08,  avg # of iterations =  6.0

     negative rho (up, down):  3.754E-05 0.000E+00

     total cpu time spent up to now is      291.7 secs

     total energy              =   -2205.53510308 Ry
     estimated scf accuracy    <       0.00001407 Ry

     iteration #  6     ecut=    80.00 Ry     beta= 0.70
     Davidson diagonalization with overlap
     ethr =  4.58E-09,  avg # of iterations =  3.0

     negative rho (up, down):  3.588E-05 0.000E+00

     total cpu time spent up to now is      307.3 secs

     total energy              =   -2205.53510490 Ry
     estimated scf accuracy    <       0.00000338 Ry

     iteration #  7     ecut=    80.00 Ry     beta= 0.70
     Davidson diagonalization with overlap
     ethr =  1.10E-09,  avg # of iterations =  4.0

     negative rho (up, down):  3.649E-05 0.000E+00

     total cpu time spent up to now is      315.8 secs

     total energy              =   -2205.53510551 Ry
     estimated scf accuracy    <       0.00000196 Ry

     iteration #  8     ecut=    80.00 Ry     beta= 0.70
     Davidson diagonalization with overlap
     ethr =  6.40E-10,  avg # of iterations =  2.0

     negative rho (up, down):  4.555E-05 0.000E+00

     total cpu time spent up to now is      327.7 secs

     total energy              =   -2205.53510568 Ry
     estimated scf accuracy    <       0.00000112 Ry

     iteration #  9     ecut=    80.00 Ry     beta= 0.70
     Davidson diagonalization with overlap
     ethr =  3.66E-10,  avg # of iterations =  3.0

     negative rho (up, down):  7.536E-05 0.000E+00

     total cpu time spent up to now is      337.5 secs

     total energy              =   -2205.53510570 Ry
     estimated scf accuracy    <       0.00000022 Ry

     iteration # 10     ecut=    80.00 Ry     beta= 0.70
     Davidson diagonalization with overlap
     ethr =  7.09E-11,  avg # of iterations =  6.0

     negative rho (up, down):  1.378E-04 0.000E+00

     total cpu time spent up to now is      340.1 secs

     End of self-consistent calculation

          k = 0.0000 0.0000 0.0000 (105382 PWs)   bands (ev):

   -62.8648 -62.8465 -62.8304 -62.8256 -62.8190 -62.8113 -62.7980 -62.7920
   -62.7377 -62.6506 -62.6257 -62.5581 -37.1881 -37.1414 -37.1252 -37.1142
   -37.0989 -37.0883 -37.0775 -37.0616 -37.0400 -37.0354 -37.0264 -37.0119
   -37.0067 -37.0030 -36.9889 -36.9840 -36.9807 -36.9753 -36.9740 -36.9651
   -36.9270 -36.9114 -36.8828 -36.8555 -36.8524 -36.8435 -36.8294 -36.8201
   -36.8044 -36.8008 -36.7895 -36.7775 -36.7423 -36.7029 -36.5895 -36.5859
   -16.1721 -15.5455 -15.1609 -15.0378 -14.9224 -14.8186 -14.6450 -14.4648
   -14.4225 -14.4045 -14.3782 -14.3433 -14.3141 -14.2515 -14.1393 -14.1212
   -14.0749 -14.0637 -13.9998 -13.9115 -13.8075 -13.7817 -13.7572  -8.7125
    -7.5934  -7.4228  -7.3234  -7.2718  -7.2445  -7.1703  -7.1638  -7.0473
    -6.8448  -6.7863  -6.7534  -6.6940  -6.5689  -6.5139  -6.4477  -6.4136
    -6.3244  -6.2589  -6.1009  -5.9579  -5.9160  -5.8622  -5.8218  -5.7998
    -5.7463  -5.6950  -5.6350  -5.6316  -5.5929  -5.5424  -5.5098  -5.4232
    -5.3879  -5.3088  -5.2531  -5.1361  -5.0613  -5.0175  -4.9424  -4.9311
    -4.9166  -4.7897  -4.6369  -4.4980  -4.3711  -4.3184  -4.2633  -4.2190
    -4.2038  -4.0734  -4.0079  -3.9042  -3.8319  -3.7317  -3.6828  -3.6798
    -3.6440  -3.5787  -3.5264  -3.5018  -3.4751  -3.4459  -3.3916  -3.3520
    -3.3262  -3.1835  -3.1028  -2.8843  -2.8604  -2.7847  -2.7474  -2.6947
    -2.6780  -2.6651  -2.6300  -2.5688  -2.5017  -2.2139  -1.9768  -1.9594
    -1.8792  -0.7669  -0.6449  -0.5930  -0.1506  -0.1041  -0.0380  -0.0215
     0.0611   0.1714   0.2047   0.2586   0.2880   0.3334   0.4445   0.4962
     0.5428   0.5651   0.6131   0.6341   0.6622   0.6905   0.7253   0.7744
     0.8111   0.8437   0.9100   0.9306   0.9988   1.0311   1.0492   1.2388
     1.4097

     the Fermi energy is    -0.7885 ev

!    total energy              =   -2205.53510561 Ry
     estimated scf accuracy    <       0.00000005 Ry
     smearing contrib. (-TS)   =      -0.00806945 Ry
     internal energy E=F+TS    =   -2205.52703616 Ry

     The total energy is F=E-TS. E is the sum of the following terms:
     one-electron contribution =  -18068.42477956 Ry
     hartree contribution      =    9021.32802885 Ry
     xc contribution           =    -385.38381394 Ry
     ewald contribution        =    7226.95352849 Ry

     convergence has been achieved in  10 iterations

     negative rho (up, down):  1.378E-04 0.000E+00

     Forces acting on atoms (cartesian axes, Ry/au):

     atom    1 type  1   force =    -0.01283354    0.00011284   -0.01314447
     atom    2 type  2   force =     0.02727725   -0.07315229    0.09006608
     atom    3 type  2   force =    -0.01097898    0.00842467   -0.01498634
     atom    4 type  1   force =     0.00464656   -0.00254879    0.00294825
     atom    5 type  2   force =    -0.00509255   -0.00037191   -0.00706113
     atom    6 type  2   force =    -0.00095711    0.01032880   -0.00398186
     atom    7 type  1   force =     0.00171418   -0.00306117   -0.00156246
     atom    8 type  2   force =     0.00021976   -0.00493492    0.00863726
     atom    9 type  2   force =     0.01077453    0.00330348    0.00686043
     atom   10 type  1   force =    -0.00557652    0.00649043   -0.01172860
     atom   11 type  2   force =     0.00323378   -0.00104095   -0.00959199
     atom   12 type  2   force =    -0.00432649   -0.00133300   -0.00331496
     atom   13 type  1   force =     0.00263104   -0.00003482   -0.00033888
     atom   14 type  2   force =     0.00152436    0.00168787    0.00429857
     atom   15 type  2   force =    -0.01501767   -0.00347164   -0.01554565
     atom   16 type  1   force =    -0.00137133    0.00691452    0.00142690
     atom   17 type  2   force =     0.00450255    0.00206498    0.00211691
     atom   18 type  2   force =    -0.00350828   -0.00227643    0.00937132
     atom   19 type  1   force =     0.00416455   -0.00501545    0.00198572
     atom   20 type  2   force =     0.00282113   -0.00376093   -0.00254876
     atom   21 type  1   force =    -0.00066597    0.00380284    0.00147850
     atom   22 type  2   force =    -0.00063394   -0.00080398   -0.00251729
     atom   23 type  2   force =     0.00107044   -0.00131208    0.00329467
     atom   24 type  1   force =     0.00425188    0.00450921   -0.01254119
     atom   25 type  2   force =     0.00882082    0.01255524   -0.00252872
     atom   26 type  2   force =    -0.00139412   -0.00289579   -0.00818799
     atom   27 type  1   force =    -0.00146915    0.00097696    0.00598685
     atom   28 type  2   force =     0.00375516    0.00101205   -0.00473311
     atom   29 type  2   force =     0.00402310    0.00425190   -0.00775873
     atom   30 type  1   force =    -0.00231188    0.00055923    0.00281414
     atom   31 type  2   force =     0.00126974   -0.00008784    0.00763558
     atom   32 type  2   force =    -0.00720849    0.00357862    0.00707001
     atom   33 type  1   force =     0.00215740    0.00067121    0.00285202
     atom   34 type  2   force =    -0.00307022   -0.02036913   -0.01139531
     atom   35 type  2   force =    -0.00377489    0.00597880    0.00275657
     atom   36 type  3   force =    -0.00866712    0.04924749   -0.02813233
     The non-local contrib.  to forces
     atom    1 type  1   force =    -0.00807046    0.02863300   -0.01865574
     atom    2 type  2   force =     0.07105102   -0.30746545    0.02955016
     atom    3 type  2   force =    -0.01265478   -0.00166067    0.27185459
     atom    4 type  1   force =    -0.00140286    0.01492171    0.00376113
     atom    5 type  2   force =     0.00761809   -0.02304042   -0.25222531
     atom    6 type  2   force =    -0.00282849    0.00964777    0.25833812
     atom    7 type  1   force =    -0.02705050   -0.01213214   -0.01744809
     atom    8 type  2   force =     0.00264395   -0.00427100   -0.25659926
     atom    9 type  2   force =     0.00783394   -0.01326019    0.27313931
     atom   10 type  1   force =    -0.00136254   -0.00800400   -0.00422595
     atom   11 type  2   force =     0.01232805    0.00628309   -0.25360549
     atom   12 type  2   force =    -0.01238914   -0.01444369    0.25732225
     atom   13 type  1   force =     0.00064187    0.02395205   -0.01247783
     atom   14 type  2   force =     0.00484680   -0.00536187   -0.25761857
     atom   15 type  2   force =    -0.01363705   -0.00444376    0.25704837
     atom   16 type  1   force =     0.00178121    0.04524740   -0.02202831
     atom   17 type  2   force =     0.00013848   -0.02940180   -0.24961367
     atom   18 type  2   force =    -0.00346409   -0.00359411    0.26973544
     atom   19 type  1   force =     0.02400966   -0.01077504   -0.01481395
     atom   20 type  2   force =    -0.00002502   -0.01884947    0.26200090
     atom   21 type  1   force =     0.00090648    0.01607145    0.00206402
     atom   22 type  2   force =    -0.00440629    0.00451187   -0.25940948
     atom   23 type  2   force =     0.00803628   -0.01335388    0.26542692
[...]
     atom   27 type  1   force =     0.00120832    0.00955773    0.00407157
     atom   28 type  2   force =     0.00071512   -0.02427283   -0.26440330
     atom   29 type  2   force =     0.00102839   -0.00670013    0.26611576
     atom   30 type  1   force =     0.00330751    0.01286404    0.00190603
     atom   31 type  2   force =    -0.00886097   -0.00051381   -0.26478539
     atom   32 type  2   force =     0.00706963   -0.01439395    0.26863268
     atom   33 type  1   force =    -0.00108280    0.00206376    0.00328455
     atom   34 type  2   force =    -0.00053597    0.00032877   -0.25977782
     atom   35 type  2   force =    -0.00024697   -0.01439786    0.26858175
     atom   36 type  3   force =    -0.03260598    0.01637029   -0.04159042
     The ionic contribution  to forces
     atom    1 type  1   force =     1.16027023   -0.06774085    1.11385821
     atom    2 type  2   force =    -1.86985372    1.00526615   38.24695879
     atom    3 type  2   force =     0.16028223   -0.16520719  -36.81300475
     atom    4 type  1   force =    -0.04324605    0.67184748    0.89118496
     atom    5 type  2   force =    -0.79407989    1.14521694   38.28938815
     atom    6 type  2   force =     0.41897016   -0.10945021  -38.36382109
     atom    7 type  1   force =    -2.31526972   -2.35079347    2.19635959
     atom    8 type  2   force =    -1.23919374    0.07983417   37.95509643
     atom    9 type  2   force =     0.36251178   -0.02812216  -37.59386318
     atom   10 type  1   force =    -0.87563652   -0.08973102    4.09746738
     atom   11 type  2   force =    -0.64213546   -1.55148493   38.56649448
     atom   12 type  2   force =     0.37906066    0.39924108  -37.90192089
     atom   13 type  1   force =     0.02128855    0.65096847    2.18452737
     atom   14 type  2   force =     0.19465481   -0.04180145   38.40726608
     atom   15 type  2   force =    -0.05673092   -0.28077492  -37.99072250
     atom   16 type  1   force =     0.03597015    3.84340394    1.05390136
     atom   17 type  2   force =     0.90526526    1.27967205   38.30996538
     atom   18 type  2   force =    -0.35471286   -0.26902555  -38.09865946
     atom   19 type  1   force =     2.30999382   -2.01569531    2.47504667
     atom   20 type  2   force =     0.03418809   -0.00351728  -38.80381135
     atom   21 type  1   force =     0.03162468   -0.30311116    0.39510700
     atom   22 type  2   force =     0.50596635   -1.50811753   38.38343026
     atom   23 type  2   force =    -0.27023215    0.27512569  -37.92755858
     atom   24 type  1   force =    -0.69947620    0.65300612    3.58534801
     atom   25 type  2   force =     0.70353885    0.10173236   38.67945338
     atom   26 type  2   force =    -0.19312924   -0.06399243  -37.45696358
     atom   27 type  1   force =     0.01287500    0.73336585    0.79660023
     atom   28 type  2   force =    -0.10267258    0.78685938   38.23114489
     atom   29 type  2   force =    -0.06229394   -0.09226171  -37.39475915
     atom   30 type  1   force =    -0.03656460   -0.94923714    1.91621367
     atom   31 type  2   force =     1.24296913    0.14915887   38.09399381
     atom   32 type  2   force =    -0.33746349    0.02328479  -37.71397430
     atom   33 type  1   force =     0.59633931   -0.75304241    2.47531298
     atom   34 type  2   force =     0.22913511   -0.98286059   38.72643263
     atom   35 type  2   force =    -0.05406800    0.16358702  -37.40518556
     atom   36 type  3   force =     0.64185490   -0.33560306    8.39369270
     The local contribution  to forces
     atom    1 type  1   force =    -1.15955573    0.04887136   -1.10358426
     atom    2 type  2   force =     1.65112084   -0.89487613  -38.27314721
     atom    3 type  2   force =    -0.15672825    0.17530255   36.56002727
     atom    4 type  1   force =     0.04261376   -0.67954073   -0.89434733
     atom    5 type  2   force =     0.78854913   -1.13262639  -38.06598133
     atom    6 type  2   force =    -0.41474500    0.11666001   38.12014063
     atom    7 type  1   force =     2.34069562    2.36078156   -2.17695025
     atom    8 type  2   force =     1.23347382   -0.07913790  -37.71129107
     atom    9 type  2   force =    -0.35615068    0.04387693   37.34540340
     atom   10 type  1   force =     0.87700041    0.08436164   -4.09078231
     atom   11 type  2   force =     0.63163764    1.54574960  -38.33225470
     atom   12 type  2   force =    -0.36830304   -0.38603143   37.66017853
     atom   13 type  1   force =    -0.02556573   -0.67508764   -2.17922095
     atom   14 type  2   force =    -0.18219112    0.05375008  -38.17594709
     atom   15 type  2   force =     0.05480002    0.27992111   37.74658745
     atom   16 type  1   force =    -0.03571386   -3.88006742   -1.02090659
     atom   17 type  2   force =    -0.89916246   -1.25626515  -38.07801481
     atom   18 type  2   force =     0.35301678    0.27478946   37.85448419
     atom   19 type  1   force =    -2.33469832    2.02292297   -2.45004296
     atom   20 type  2   force =    -0.03410778    0.01685990   38.56352784
     atom   21 type  1   force =    -0.03046850    0.28266652   -0.40049294
     atom   22 type  2   force =    -0.50207499    1.50567728  -38.14444975
     atom   23 type  2   force =     0.26135142   -0.26582302   37.68133540
     atom   24 type  1   force =     0.70198085   -0.67068035   -3.57934258
     atom   25 type  2   force =    -0.70211436   -0.09082983  -38.45188076
     atom   26 type  2   force =     0.18679324    0.07110138   37.20975250
     atom   27 type  1   force =    -0.01448296   -0.74251270   -0.80129788
     atom   28 type  2   force =     0.10192245   -0.76480896  -37.98690581
     atom   29 type  2   force =     0.06163263    0.09919029   37.14908378
     atom   30 type  1   force =     0.03310199    0.93804419   -1.91746095
     atom   31 type  2   force =    -1.23481162   -0.14937259  -37.84988678
     atom   32 type  2   force =     0.33164330   -0.00921885   37.46512440
     atom   33 type  1   force =    -0.59551783    0.75099305   -2.47831659
     atom   34 type  2   force =    -0.22907645    0.98419481  -38.48670752
     atom   35 type  2   force =     0.05440455   -0.14927611   37.15769353
     atom   36 type  3   force =    -0.60912782    0.31964317   -8.35255148
     The core correction contribution to forces
     atom    1 type  1   force =     0.00000000    0.00000000    0.00000000
     atom    2 type  2   force =    -0.01523153    0.00768984    0.00107906
     atom    3 type  2   force =     0.00040472    0.00024354   -0.02128683
     atom    4 type  1   force =     0.00000000    0.00000000    0.00000000
     atom    5 type  2   force =    -0.00065475    0.00057898    0.01990289
     atom    6 type  2   force =     0.00038791    0.00013748   -0.02089388
     atom    7 type  1   force =     0.00000000    0.00000000    0.00000000
     atom    8 type  2   force =    -0.00043908    0.00037011    0.02061064
     atom    9 type  2   force =     0.00058128    0.00082909   -0.02079190
     atom   10 type  1   force =     0.00000000    0.00000000    0.00000000
     atom   11 type  2   force =    -0.00059088   -0.00069467    0.02026134
     atom   12 type  2   force =     0.00097487    0.00106297   -0.02079739
     atom   13 type  1   force =     0.00000000    0.00000000    0.00000000
     atom   14 type  2   force =     0.00066154    0.00022345    0.02024969
     atom   15 type  2   force =    -0.00022335   -0.00011451   -0.02079494
     atom   16 type  1   force =     0.00000000    0.00000000    0.00000000
     atom   17 type  2   force =     0.00062706    0.00114734    0.02027331
     atom   18 type  2   force =    -0.00030035   -0.00014372   -0.02081482
     atom   19 type  1   force =     0.00000000    0.00000000    0.00000000
     atom   20 type  2   force =    -0.00000789    0.00053259   -0.02114460
     atom   21 type  1   force =     0.00000000    0.00000000    0.00000000
     atom   22 type  2   force =     0.00011082   -0.00033987    0.02047137
     atom   23 type  2   force =    -0.00068582    0.00082494   -0.02092908
     atom   24 type  1   force =     0.00000000    0.00000000    0.00000000
     atom   25 type  2   force =     0.00057349    0.00043783    0.01981104
     atom   26 type  2   force =    -0.00041879    0.00035281   -0.02094219
     atom   27 type  1   force =     0.00000000    0.00000000    0.00000000
     atom   28 type  2   force =    -0.00004726    0.00163056    0.02057120
     atom   29 type  2   force =    -0.00008024    0.00013964   -0.02075329
     atom   30 type  1   force =     0.00000000    0.00000000    0.00000000
     atom   31 type  2   force =     0.00051515    0.00034860    0.02072517
     atom   32 type  2   force =    -0.00053253    0.00075690   -0.02089762
     atom   33 type  1   force =     0.00000000    0.00000000    0.00000000
     atom   34 type  2   force =     0.00027236   -0.00043216    0.02038462
     atom   35 type  2   force =    -0.00005116    0.00090744   -0.02099697
     atom   36 type  3   force =     0.00000000    0.00000000    0.00000000
     The Hubbard contrib.    to forces
     atom    1 type  1   force =     0.00000000    0.00000000    0.00000000
     atom    2 type  2   force =     0.00000000    0.00000000    0.00000000
     atom    3 type  2   force =     0.00000000    0.00000000    0.00000000
     atom    4 type  1   force =     0.00000000    0.00000000    0.00000000
     atom    5 type  2   force =     0.00000000    0.00000000    0.00000000
     atom    6 type  2   force =     0.00000000    0.00000000    0.00000000
     atom    7 type  1   force =     0.00000000    0.00000000    0.00000000
     atom    8 type  2   force =     0.00000000    0.00000000    0.00000000
     atom    9 type  2   force =     0.00000000    0.00000000    0.00000000
     atom   10 type  1   force =     0.00000000    0.00000000    0.00000000
     atom   11 type  2   force =     0.00000000    0.00000000    0.00000000
     atom   12 type  2   force =     0.00000000    0.00000000    0.00000000
     atom   13 type  1   force =     0.00000000    0.00000000    0.00000000
     atom   14 type  2   force =     0.00000000    0.00000000    0.00000000
     atom   15 type  2   force =     0.00000000    0.00000000    0.00000000
     atom   16 type  1   force =     0.00000000    0.00000000    0.00000000
     atom   17 type  2   force =     0.00000000    0.00000000    0.00000000
     atom   18 type  2   force =     0.00000000    0.00000000    0.00000000
     atom   19 type  1   force =     0.00000000    0.00000000    0.00000000
     atom   20 type  2   force =     0.00000000    0.00000000    0.00000000
     atom   21 type  1   force =     0.00000000    0.00000000    0.00000000
     atom   22 type  2   force =     0.00000000    0.00000000    0.00000000
     atom   23 type  2   force =     0.00000000    0.00000000    0.00000000
     atom   24 type  1   force =     0.00000000    0.00000000    0.00000000
     atom   25 type  2   force =     0.00000000    0.00000000    0.00000000
     atom   26 type  2   force =     0.00000000    0.00000000    0.00000000
     atom   27 type  1   force =     0.00000000    0.00000000    0.00000000
     atom   28 type  2   force =     0.00000000    0.00000000    0.00000000
     atom   29 type  2   force =     0.00000000    0.00000000    0.00000000
     atom   30 type  1   force =     0.00000000    0.00000000    0.00000000
     atom   31 type  2   force =     0.00000000    0.00000000    0.00000000
     atom   32 type  2   force =     0.00000000    0.00000000    0.00000000
     atom   33 type  1   force =     0.00000000    0.00000000    0.00000000
     atom   34 type  2   force =     0.00000000    0.00000000    0.00000000
     atom   35 type  2   force =     0.00000000    0.00000000    0.00000000
     atom   36 type  3   force =     0.00000000    0.00000000    0.00000000
     The SCF correction term to forces
     atom    1 type  1   force =    -0.00001290    0.00001217    0.00003594
     atom    2 type  2   force =     0.00001129    0.00000874    0.00001464
     atom    3 type  2   force =    -0.00000154   -0.00000171   -0.00000298
     atom    4 type  1   force =    -0.00000048   -0.00000514    0.00003762
     atom    5 type  2   force =    -0.00000374   -0.00000428    0.00001276
     atom    6 type  2   force =    -0.00000783    0.00000045    0.00000523
     atom    7 type  1   force =    -0.00001753   -0.00001574   -0.00000901
     atom    8 type  2   force =     0.00000891   -0.00000739    0.00000722
     atom    9 type  2   force =     0.00000259    0.00000661    0.00000642
     atom   10 type  1   force =     0.00002062    0.00000167    0.00001462
     atom   11 type  2   force =    -0.00000136    0.00000366    0.00001048
     atom   12 type  2   force =    -0.00000204   -0.00000076   -0.00000573
     atom   13 type  1   force =     0.00000087    0.00000988    0.00005049
     atom   14 type  2   force =    -0.00001538    0.00001232    0.00001184
     atom   15 type  2   force =    -0.00000195    0.00000637    0.00000820
     atom   16 type  1   force =    -0.00000726   -0.00000867    0.00002253
     atom   17 type  2   force =    -0.00000784   -0.00001070    0.00002165
     atom   18 type  2   force =     0.00000571   -0.00000135    0.00001332
     atom   19 type  1   force =    -0.00000604   -0.00001111    0.00000984
     atom   20 type  2   force =    -0.00000716    0.00000191    0.00000474
     atom   21 type  1   force =    -0.00001943    0.00000906    0.00000300
     atom   22 type  2   force =    -0.00000473   -0.00000127    0.00000816
     atom   23 type  2   force =     0.00000050   -0.00001245    0.00000683
     atom   24 type  1   force =     0.00001775    0.00000801    0.00006929
     atom   25 type  2   force =    -0.00000004    0.00001497    0.00003251
     atom   26 type  2   force =     0.00000315    0.00000229    0.00001178
     atom   27 type  1   force =     0.00000506   -0.00000221    0.00005246
     atom   28 type  2   force =     0.00001085   -0.00001079    0.00002959
     atom   29 type  2   force =     0.00000258    0.00000050    0.00001306
     atom   30 type  1   force =     0.00002747   -0.00000201    0.00000032
     atom   31 type  2   force =     0.00000382   -0.00000654    0.00000609
     atom   32 type  2   force =     0.00000511    0.00001025    0.00001361
     atom   33 type  1   force =    -0.00000119    0.00000056    0.00002957
     atom   34 type  2   force =     0.00000516    0.00000623    0.00001375
     atom   35 type  2   force =     0.00000221   -0.00000871    0.00000189
     atom   36 type  3   force =     0.00000293    0.00000075    0.00000402

     Total force =     0.006132     Total SCF correction =     0.000156
     Energy error            =      9.4E-05 Ry
     Gradient error          =      1.7E-03 Ry/Bohr

     bfgs converged in  29 scf cycles and  28 bfgs steps
     (criteria: energy <  1.0E-04 Ry, force <  1.0E-02 Ry/Bohr)

     End of BFGS Geometry Optimization

     Final energy             =   -2205.5828211344 Ry

     File ./MoS2-V-O.bfgs deleted, as requested
Begin final coordinates

ATOMIC_POSITIONS (angstrom)
Mo            6.5164062894        1.7779464850        2.7090794331
S             8.1948467634        0.7791487357        4.4861048723
S             8.1331311260        0.8302816543        1.2035019726
Mo            8.0878710259        4.4674163615        2.7104958822
S             6.4721430534        3.6666291834        4.2914640094
S             6.5193787653        3.5601767424        1.0853944332
Mo            6.4838463152        7.1956677151        2.6527977330
S             8.0516009783        6.2946391163        4.2851837148
S             8.1204887258        6.3084347367        1.1187890017
Mo            8.1295924437        9.9170464829        2.7952510117
S             6.4844602816        8.9370841146        4.3255937915
S             6.5900931590        9.0324020324        1.1206161468
Mo            3.4153988937        1.7484175217        2.7459766307
S             4.9916579328        0.8233982667        4.3184002201
S             4.9753408051        0.8401384413        1.1287744733
Mo            4.9621548935        4.5319860428        2.6304991284
S             3.4463230597        3.6575124934        4.2945435109
S             3.3962952424        3.5538245697        1.0996516601
Mo            3.4688634808        7.1852840022        2.6565025516
S             4.9745940366        6.3134194093        1.0206087485
Mo            4.9902820704        9.9193741676        2.7101560631
S             3.4687433155        8.9530602547        4.3104677097
S             3.3844333305        9.0299651202        1.1133840328
Mo            0.2574086547        1.7314329213        2.7927067840
S             1.8649770368        0.8389067407        4.3619632709
S             1.8169978861        0.8372776134        1.1745544140
Mo            1.8384471458        4.4779815540        2.7105084428
S             0.2415210205        3.6143222956        4.3219087296
S             0.2379078603        3.5333053202        1.1566415170
Mo            0.2500320441        7.1995791415        2.7314584373
S             1.9050974380        6.2970566385        4.2908554596
S             1.8279798066        6.3110395946        1.1134109219
Mo            1.8375745438        9.9276762658        2.7610116999
S             0.2686977570        8.9907199983        4.3635444965
S             0.2426398197        9.0384405607        1.1725245141
H             9.0311288995        0.3599541160        5.5264221576
End final coordinates



     Writing all to output data dir ./MoS2-V-O.save/
 
     init_run     :      2.38s CPU      2.66s WALL (       1 calls)
     electrons    :   2616.04s CPU   2932.93s WALL (      29 calls)
     update_pot   :     40.13s CPU     42.48s WALL (      28 calls)
     forces       :     41.47s CPU     49.07s WALL (      29 calls)

     Called by init_run:
     wfcinit      :      0.38s CPU      0.43s WALL (       1 calls)
     potinit      :      1.32s CPU      1.44s WALL (       1 calls)
     hinit0       :      0.16s CPU      0.18s WALL (       1 calls)

     Called by electrons:
     c_bands      :    319.90s CPU    325.18s WALL (     243 calls)
     sum_band     :     71.09s CPU     99.20s WALL (     243 calls)
     v_of_rho     :    114.12s CPU    142.38s WALL (     262 calls)
     newd         :     37.96s CPU     65.23s WALL (     262 calls)
     mix_rho      :   2085.61s CPU   2314.55s WALL (     243 calls)

     Called by c_bands:
     init_us_2    :      5.19s CPU      5.61s WALL (     487 calls)
     init_us_2:cp :      5.19s CPU      5.60s WALL (     487 calls)
     regterg      :    301.82s CPU    306.65s WALL (     243 calls)

     Called by *egterg:
     rdiaghg      :     23.53s CPU     23.79s WALL (    1350 calls)
     h_psi        :    165.38s CPU    166.83s WALL (    1389 calls)
     s_psi        :     20.11s CPU     20.18s WALL (    1389 calls)
     g_psi        :      1.94s CPU      1.96s WALL (    1145 calls)

     Called by h_psi:
     h_psi:calbec :     23.72s CPU     23.83s WALL (    1389 calls)
     vloc_psi     :    118.45s CPU    119.64s WALL (    1389 calls)
     add_vuspsi   :     20.15s CPU     20.28s WALL (    1389 calls)

     General routines
     calbec       :     33.67s CPU     33.83s WALL (    1748 calls)
     fft          :     72.90s CPU     85.37s WALL (   17673 calls)
     ffts         :    937.67s CPU   1158.97s WALL (  510997 calls)
     fftw         :    101.96s CPU    102.81s WALL (  148689 calls)
     interpolate  :      1.95s CPU      2.31s WALL (     262 calls)
 
     Parallel routines
 
     PWSCF        :  45m 5.34s CPU  50m36.76s WALL

 
   This run was terminated on:  11:17:36   4Nov2023            

=------------------------------------------------------------------------------=
   JOB DONE.
=------------------------------------------------------------------------------=
