
     Program PWSCF v.7.2 starts on  4Nov2023 at  9:53: 1 

     This program is part of the open-source Quantum ESPRESSO suite
     for quantum simulation of materials; please cite
         "P. Giannozzi et al., J. Phys.:Condens. Matter 21 395502 (2009);
         "P. Giannozzi et al., J. Phys.:Condens. Matter 29 465901 (2017);
         "P. Giannozzi et al., J. Chem. Phys. 152 154105 (2020);
          URL http://www.quantum-espresso.org", 
     in publications or presentations arising from this work. More details at
     http://www.quantum-espresso.org/quote

     Parallel version (MPI & OpenMP), running on      48 processor cores
     Number of MPI processes:                48
     Threads/MPI process:                     1

     MPI processes distributed on     1 nodes
     16470 MiB available memory on the printing compute node when the environment starts
 
     Waiting for input...
     Reading input from standard input
Warning: card &CELL ignored
Warning: card CELL_DYNAMICS = 'BFGS', ignored
Warning: card CELL_DOFREE = '2DXY' ignored
Warning: card / ignored

     Current dimensions of program PWSCF are:
     Max number of different atomic species (ntypx) = 10
     Max number of k-points (npk) =  40000
     Max angular momentum in pseudopotentials (lmaxx) =  4

     IMPORTANT: XC functional enforced from input :
     Exchange-correlation= RVV10
                           (   1   4  13   4  26   0   0)
     Any further DFT definition will be discarded
     Please, verify this is what you really want


     gamma-point specific algorithms are used
     signal trapping enabled: kill the code with -SIGUSR1 to stop cleanly the simulation 
 
     R & G space division:  proc/nbgrp/npool/nimage =      48
     Subspace diagonalization in iterative solution of the eigenvalue problem:
     one sub-group per band group will be used
     scalapack distributed-memory algorithm (size of sub-group:  2*  2 procs)

 
     Parallelization info
     --------------------
     sticks:   dense  smooth     PW     G-vecs:    dense   smooth      PW
     Min         243     194     47                49060    35090    4376
     Max         246     196     50                49086    35128    4410
     Sum       11735    9389   2349              2355467  1685513  210763
 
     Using Slab Decomposition
 


     bravais-lattice index     =            0
     lattice parameter (alat)  =      17.8707  a.u.
     unit-cell volume          =   17436.2743 (a.u.)^3
     number of atoms/cell      =           36
     number of atomic types    =            3
     number of electrons       =       307.00
     number of Kohn-Sham states=          185
     kinetic-energy cutoff     =      80.0000  Ry
     charge density cutoff     =     400.0000  Ry
     scf convergence threshold =      1.0E-06
     mixing beta               =       0.7000
     number of iterations used =            8  local-TF  mixing
     energy convergence thresh.=      1.0E-04
     force convergence thresh. =      1.0E-02
     Exchange-correlation= RVV10
                           (   1   4  13   4  26   0   0)
     nstep                     =          200


     celldm(1)=  17.870686  celldm(2)=   0.000000  celldm(3)=   0.000000
     celldm(4)=   0.000000  celldm(5)=   0.000000  celldm(6)=   0.000000

     crystal axes: (cart. coord. in units of alat)
               a(1) = (   1.000000   0.000000   0.000000 )  
               a(2) = (   0.000000   1.155671   0.000000 )  
               a(3) = (   0.000000   0.000000   2.643601 )  

     reciprocal axes: (cart. coord. in units 2 pi/alat)
               b(1) = (  1.000000  0.000000  0.000000 )  
               b(2) = (  0.000000  0.865298  0.000000 )  
               b(3) = (  0.000000  0.000000  0.378272 )  


     PseudoPot. # 1 for Mo read from file:
     ../pseudo/Mo_ONCV_PBE-1.0.oncvpsp.upf
     MD5 check sum: 1b5d28e075c9ccadda658a603575cd1f
     Pseudo is Norm-conserving, Zval = 14.0
     Generated using ONCVPSP code by D. R. Hamann
     Using radial grid of 1526 points,  6 beta functions with: 
                l(1) =   0
                l(2) =   0
                l(3) =   1
                l(4) =   1
                l(5) =   2
                l(6) =   2

     PseudoPot. # 2 for S  read from file:
     ../pseudo/s_pbe_v1.4.uspp.F.UPF
     MD5 check sum: 88d86576ff6df21479756cfb9bdac1df
     Pseudo is Ultrasoft + core correction, Zval =  6.0
     Generated by new atomic code, or converted to UPF format
     Using radial grid of  907 points,  6 beta functions with: 
                l(1) =   0
                l(2) =   0
                l(3) =   1
                l(4) =   1
                l(5) =   2
                l(6) =   2
     Q(r) pseudized with  8 coefficients,  rinner =    1.300   1.300   1.300
                                                       1.300   1.300

     PseudoPot. # 3 for H  read from file:
     ../pseudo/H_ONCV_PBE-1.0.oncvpsp.upf
     MD5 check sum: 1790becc920ee074925cf490c71280fe
     Pseudo is Norm-conserving, Zval =  1.0
     Generated using ONCVPSP code by D. R. Hamann
     Using radial grid of 1166 points,  2 beta functions with: 
                l(1) =   0
                l(2) =   0

     atomic species   valence    mass     pseudopotential
        Mo            14.00    95.94000     Mo( 1.00)
        S              6.00    32.06500     S ( 1.00)
        H              1.00     1.00794     H ( 1.00)

     No symmetry found



   Cartesian axes

     site n.     atom                  positions (alat units)
         1           Mo  tau(   1) = (   0.6952221   0.1890506   0.2985846  )
         2           S   tau(   2) = (   0.8646417   0.0856217   0.4689279  )
         3           S   tau(   3) = (   0.8663890   0.0857843   0.1351291  )
         4           Mo  tau(   4) = (   0.8560186   0.4753274   0.2873942  )
         5           S   tau(   5) = (   0.6873294   0.3936244   0.4596353  )
         6           S   tau(   6) = (   0.6929804   0.3713468   0.1185692  )
         7           Mo  tau(   7) = (   0.6862796   0.7633098   0.2825370  )
         8           S   tau(   8) = (   0.8545980   0.6708292   0.4486168  )
         9           S   tau(   9) = (   0.8545123   0.6666874   0.1146125  )
        10           Mo  tau(  10) = (   0.8629403   1.0471007   0.3006803  )
        11           S   tau(  11) = (   0.6868280   0.9456650   0.4634891  )
        12           S   tau(  12) = (   0.6998113   0.9568511   0.1205389  )
        13           Mo  tau(  13) = (   0.3618216   0.1847309   0.2935964  )
        14           S   tau(  14) = (   0.5260962   0.0863870   0.4600448  )
        15           S   tau(  15) = (   0.5348379   0.0894875   0.1297123  )
        16           Mo  tau(  16) = (   0.5265817   0.4772436   0.2784130  )
        17           S   tau(  17) = (   0.3624753   0.3882513   0.4525556  )
        18           S   tau(  18) = (   0.3635411   0.3752055   0.1119148  )
        19           Mo  tau(  19) = (   0.3652268   0.7630864   0.2781795  )
        20           S   tau(  20) = (   0.5269494   0.6690381   0.1096838  )
        21           Mo  tau(  21) = (   0.5300192   1.0470394   0.2900995  )
        22           S   tau(  22) = (   0.3670346   0.9457522   0.4574073  )
        23           S   tau(  23) = (   0.3604225   0.9585725   0.1159032  )
        24           Mo  tau(  24) = (   0.0313099   0.1847895   0.3013130  )
        25           S   tau(  25) = (   0.1956761   0.0838230   0.4650863  )
        26           S   tau(  26) = (   0.1967693   0.0903508   0.1278874  )
        27           Mo  tau(  27) = (   0.1967578   0.4753919   0.2813011  )
        28           S   tau(  28) = (   0.0287851   0.3864324   0.4586755  )
        29           S   tau(  29) = (   0.0244514   0.3729871   0.1239344  )
        30           Mo  tau(  30) = (   0.0286728   0.7631204   0.2856894  )
        31           S   tau(  31) = (   0.2011512   0.6675435   0.4465001  )
        32           S   tau(  32) = (   0.1969214   0.6672839   0.1104564  )
        33           Mo  tau(  33) = (   0.1950294   1.0511147   0.2932237  )
        34           S   tau(  34) = (   0.0312912   0.9612169   0.4667423  )
        35           S   tau(  35) = (   0.0292670   0.9563028   0.1216485  )
        36           H   tau(  36) = (   0.7777778   1.0272628   0.5656742  )

     number of k points=     1  Gaussian smearing, width (Ry)=  0.0100
                       cart. coord. in units 2pi/alat
        k(    1) = (   0.0000000   0.0000000   0.0000000), wk =   2.0000000

     Dense  grid:  1177734 G-vectors     FFT dimensions: ( 120, 135, 320)

     Smooth grid:   842757 G-vectors     FFT dimensions: ( 108, 120, 270)

     Estimated max dynamical RAM per process >     146.59 MB

     Estimated total dynamical RAM >       6.87 GB

     Initial potential from superposition of free atoms

     starting charge     306.9873, renormalised to     307.0000

     negative rho (up, down):  1.411E-04 0.000E+00


---------------------------------------------------------------------------------
Carrying out rVV10 run using the following parameters:
Nqs =      20    Nr_points =    1024   r_max =   100.000
b_value =  6.30000    beta =  0.00901
     q_mesh =  0.00010000  0.00030000  0.00058939  0.00100810
               0.00161396  0.00249058  0.00375900  0.00559430
               0.00824984  0.01209221  0.01765183  0.02569619
               0.03733578  0.05417739  0.07854596  0.11380545
               0.16482331  0.23864234  0.34545298  0.50000000

Gradients computed in Reciprocal space

---------------------------------------------------------------------------------


     Starting wfcs are  213 randomized atomic wfcs

     total cpu time spent up to now is        2.8 secs

     Self-consistent Calculation

     iteration #  1     ecut=    80.00 Ry     beta= 0.70
     Davidson diagonalization with overlap
     ethr =  1.00E-02,  avg # of iterations =  2.0

     Threshold (ethr) on eigenvalues was too large:
     Diagonalizing with lowered threshold

     Davidson diagonalization with overlap
     ethr =  3.74E-04,  avg # of iterations =  4.0

     negative rho (up, down):  2.209E-08 0.000E+00

     total cpu time spent up to now is       16.7 secs

     total energy              =   -2205.61487937 Ry
     estimated scf accuracy    <       1.43109176 Ry

     iteration #  2     ecut=    80.00 Ry     beta= 0.70
     Davidson diagonalization with overlap
     ethr =  4.66E-04,  avg # of iterations =  1.0

     total cpu time spent up to now is       19.0 secs

     total energy              =   -2205.42729115 Ry
     estimated scf accuracy    <       0.59682340 Ry

     iteration #  3     ecut=    80.00 Ry     beta= 0.70
     Davidson diagonalization with overlap
     ethr =  1.94E-04,  avg # of iterations =  5.0

     total cpu time spent up to now is       21.6 secs

     total energy              =   -2205.53913606 Ry
     estimated scf accuracy    <       0.06085721 Ry

     iteration #  4     ecut=    80.00 Ry     beta= 0.70
     Davidson diagonalization with overlap
     ethr =  1.98E-05,  avg # of iterations = 19.0

     total cpu time spent up to now is       24.8 secs

     total energy              =   -2205.54108816 Ry
     estimated scf accuracy    <       0.02893309 Ry

     iteration #  5     ecut=    80.00 Ry     beta= 0.70
     Davidson diagonalization with overlap
     ethr =  9.42E-06,  avg # of iterations =  2.0

     total cpu time spent up to now is       27.0 secs

     total energy              =   -2205.54039235 Ry
     estimated scf accuracy    <       0.01801876 Ry

     iteration #  6     ecut=    80.00 Ry     beta= 0.70
     Davidson diagonalization with overlap
     ethr =  5.87E-06,  avg # of iterations =  2.0

     total cpu time spent up to now is       29.2 secs

     total energy              =   -2205.53964232 Ry
     estimated scf accuracy    <       0.01282679 Ry

     iteration #  7     ecut=    80.00 Ry     beta= 0.70
     Davidson diagonalization with overlap
     ethr =  4.18E-06,  avg # of iterations =  2.0

     negative rho (up, down):  2.594E-05 0.000E+00

     total cpu time spent up to now is       33.9 secs

     total energy              =   -2205.53746868 Ry
     estimated scf accuracy    <       0.00800112 Ry

     iteration #  8     ecut=    80.00 Ry     beta= 0.70
     Davidson diagonalization with overlap
     c_bands:  1 eigenvalues not converged
     ethr =  2.61E-06,  avg # of iterations = 20.0

     negative rho (up, down):  1.341E-02 0.000E+00

     total cpu time spent up to now is       39.0 secs

     total energy              =   -2205.53733309 Ry
     estimated scf accuracy    <       0.00359737 Ry

     iteration #  9     ecut=    80.00 Ry     beta= 0.70
     Davidson diagonalization with overlap
     ethr =  1.17E-06,  avg # of iterations = 20.0

     negative rho (up, down):  2.922E-02 0.000E+00

     total cpu time spent up to now is       43.7 secs

     total energy              =   -2205.53719557 Ry
     estimated scf accuracy    <       0.00200081 Ry

     iteration # 10     ecut=    80.00 Ry     beta= 0.70
     Davidson diagonalization with overlap
     ethr =  6.52E-07,  avg # of iterations =  2.0

     negative rho (up, down):  2.726E-02 0.000E+00

     total cpu time spent up to now is       47.9 secs

     total energy              =   -2205.53732061 Ry
     estimated scf accuracy    <       0.00073521 Ry

     iteration # 11     ecut=    80.00 Ry     beta= 0.70
     Davidson diagonalization with overlap
     ethr =  2.39E-07,  avg # of iterations =  2.0

     negative rho (up, down):  1.285E-02 0.000E+00

     total cpu time spent up to now is       53.8 secs

     total energy              =   -2205.53733439 Ry
     estimated scf accuracy    <       0.00025031 Ry

     iteration # 12     ecut=    80.00 Ry     beta= 0.70
     Davidson diagonalization with overlap
     ethr =  8.15E-08,  avg # of iterations =  6.0

     negative rho (up, down):  2.892E-03 0.000E+00

     total cpu time spent up to now is       60.3 secs

     total energy              =   -2205.53739667 Ry
     estimated scf accuracy    <       0.00003179 Ry

     iteration # 13     ecut=    80.00 Ry     beta= 0.70
     Davidson diagonalization with overlap
     ethr =  1.04E-08,  avg # of iterations =  6.0

     negative rho (up, down):  8.302E-04 0.000E+00

     total cpu time spent up to now is       73.7 secs

     total energy              =   -2205.53741050 Ry
     estimated scf accuracy    <       0.00000484 Ry

     iteration # 14     ecut=    80.00 Ry     beta= 0.70
     Davidson diagonalization with overlap
     ethr =  1.58E-09,  avg # of iterations =  4.0

     negative rho (up, down):  3.959E-04 0.000E+00

     total cpu time spent up to now is       83.9 secs

     total energy              =   -2205.53741025 Ry
     estimated scf accuracy    <       0.00000148 Ry

     iteration # 15     ecut=    80.00 Ry     beta= 0.70
     Davidson diagonalization with overlap
     ethr =  4.81E-10,  avg # of iterations =  2.0

     negative rho (up, down):  1.370E-04 0.000E+00

     total cpu time spent up to now is       85.8 secs

     End of self-consistent calculation

          k = 0.0000 0.0000 0.0000 (105382 PWs)   bands (ev):

   -62.8848 -62.8334 -62.8158 -62.8113 -62.8102 -62.8032 -62.7960 -62.7654
   -62.7607 -62.6788 -62.6468 -62.6380 -37.1848 -37.1388 -37.1146 -37.1063
   -37.0968 -37.0866 -37.0709 -37.0412 -37.0350 -37.0271 -37.0106 -37.0028
   -36.9949 -36.9922 -36.9846 -36.9791 -36.9741 -36.9674 -36.9613 -36.9419
   -36.9308 -36.9123 -36.9022 -36.8792 -36.8657 -36.8571 -36.8520 -36.8401
   -36.8198 -36.8151 -36.8058 -36.7916 -36.7834 -36.7537 -36.6418 -36.5917
   -16.1301 -15.5880 -15.0945 -15.0411 -14.8833 -14.8668 -14.6365 -14.4413
   -14.4342 -14.4048 -14.3554 -14.3239 -14.2965 -14.2428 -14.1561 -14.0879
   -14.0799 -14.0558 -13.9889 -13.8688 -13.8209 -13.7921 -13.7600  -8.6829
    -7.6439  -7.4156  -7.3099  -7.2501  -7.2140  -7.1687  -7.0908  -6.9907
    -6.8320  -6.8018  -6.7268  -6.6897  -6.5500  -6.4919  -6.4678  -6.3980
    -6.2793  -6.2237  -6.1913  -5.9327  -5.8907  -5.8710  -5.8016  -5.7634
    -5.7283  -5.7071  -5.6497  -5.6071  -5.5742  -5.5066  -5.4880  -5.4427
    -5.4160  -5.3544  -5.1625  -5.1294  -5.0669  -5.0059  -4.9559  -4.8823
    -4.8766  -4.7891  -4.6402  -4.5256  -4.4812  -4.2840  -4.2626  -4.1824
    -4.1392  -4.0364  -3.9835  -3.8939  -3.7906  -3.7780  -3.6981  -3.6488
    -3.6241  -3.5373  -3.5184  -3.4866  -3.4485  -3.4212  -3.3918  -3.3460
    -3.3270  -3.1754  -3.1066  -2.9214  -2.8689  -2.7882  -2.7551  -2.6840
    -2.6704  -2.6185  -2.6154  -2.5987  -2.5141  -2.2310  -1.9966  -1.9475
    -1.8795  -0.9110  -0.7239  -0.4202  -0.1468  -0.0980  -0.0415  -0.0114
     0.0482   0.1368   0.1827   0.2576   0.2760   0.3451   0.4429   0.4762
     0.5150   0.5702   0.5903   0.6082   0.6305   0.7049   0.7324   0.7752
     0.8061   0.8336   0.8768   0.8932   0.9850   1.0264   1.0881   1.3251
     1.3935

     the Fermi energy is    -0.9165 ev

!    total energy              =   -2205.53741062 Ry
     estimated scf accuracy    <       0.00000058 Ry
     smearing contrib. (-TS)   =      -0.00639325 Ry
     internal energy E=F+TS    =   -2205.53101737 Ry

     The total energy is F=E-TS. E is the sum of the following terms:
     one-electron contribution =  -18048.87447672 Ry
     hartree contribution      =    9011.54159193 Ry
     xc contribution           =    -385.31157250 Ry
     ewald contribution        =    7217.11343992 Ry

     convergence has been achieved in  15 iterations

     negative rho (up, down):  1.370E-04 0.000E+00

     Forces acting on atoms (cartesian axes, Ry/au):

     atom    1 type  1   force =     0.01432926   -0.02437388    0.00578388
     atom    2 type  2   force =    -0.01613038    0.01836916    0.00567203
     atom    3 type  2   force =    -0.01209843    0.00835105   -0.00243124
     atom    4 type  1   force =     0.00744651   -0.00422577   -0.00118749
     atom    5 type  2   force =    -0.00188070   -0.00694634   -0.00736143
     atom    6 type  2   force =     0.00436787    0.01192983    0.00036539
     atom    7 type  1   force =     0.01343129   -0.01960354   -0.01797834
     atom    8 type  2   force =     0.00410102   -0.00948609    0.01583868
     atom    9 type  2   force =     0.00905662    0.00852637    0.01266684
     atom   10 type  1   force =     0.00526027    0.01586614   -0.06167456
     atom   11 type  2   force =     0.02625397    0.03433134    0.04369978
     atom   12 type  2   force =    -0.00050436    0.00356092    0.00788262
     atom   13 type  1   force =     0.00438822    0.01029692   -0.00584747
     atom   14 type  2   force =     0.00450681    0.00220310    0.01149411
     atom   15 type  2   force =    -0.01137000    0.00187612   -0.01025260
     atom   16 type  1   force =    -0.00917718    0.00746949    0.00414033
     atom   17 type  2   force =     0.00463883    0.00058532    0.00419203
     atom   18 type  2   force =    -0.00288229   -0.00648494    0.01267204
     atom   19 type  1   force =    -0.00006576   -0.02437188   -0.00429323
     atom   20 type  2   force =     0.00773493   -0.00519447    0.00326627
     atom   21 type  1   force =    -0.00126154    0.01064089    0.00047472
     atom   22 type  2   force =    -0.00761642   -0.00247292   -0.00165121
     atom   23 type  2   force =    -0.00142149    0.00573174    0.00670827
     atom   24 type  1   force =    -0.00749134   -0.00303891   -0.02313625
     atom   25 type  2   force =     0.01748208    0.01875084    0.00791266
     atom   26 type  2   force =    -0.01200843   -0.00191880   -0.00431446
     atom   27 type  1   force =    -0.00071373    0.00101188    0.00729394
     atom   28 type  2   force =     0.00155431   -0.00043909   -0.00538578
     atom   29 type  2   force =     0.00247648   -0.00041107   -0.00287742
     atom   30 type  1   force =    -0.00381699    0.01345004   -0.00809734
     atom   31 type  2   force =     0.00181657   -0.00036504    0.01704903
     atom   32 type  2   force =    -0.00893359    0.00743263    0.00803473
     atom   33 type  1   force =     0.01301421   -0.00428168   -0.00802843
     atom   34 type  2   force =     0.00600837   -0.04434858   -0.01100931
     atom   35 type  2   force =    -0.00836542    0.00658423    0.01561387
     atom   36 type  3   force =    -0.04212957   -0.02900501   -0.01523465
     The non-local contrib.  to forces
     atom    1 type  1   force =    -0.00183445    0.03617806   -0.01332459
     atom    2 type  2   force =    -0.02234566   -0.00160379   -0.24118629
     atom    3 type  2   force =    -0.01350028   -0.00474283    0.27242948
     atom    4 type  1   force =    -0.00152600    0.00529300    0.00285892
     atom    5 type  2   force =     0.00595800   -0.03363549   -0.25160253
     atom    6 type  2   force =     0.00020480    0.01047752    0.26225678
     atom    7 type  1   force =    -0.03289293    0.01020282   -0.02111428
     atom    8 type  2   force =     0.00762870   -0.01086078   -0.25117585
     atom    9 type  2   force =     0.00007855   -0.00212517    0.27907278
     atom   10 type  1   force =     0.00569605    0.00218989    0.00194227
     atom   11 type  2   force =     0.20604433    0.18612031    0.04373714
     atom   12 type  2   force =    -0.00996565   -0.01647095    0.26702053
     atom   13 type  1   force =    -0.00026933    0.02158859   -0.00250700
     atom   14 type  2   force =     0.01416109   -0.01357925   -0.26104127
     atom   15 type  2   force =    -0.01136928   -0.00896341    0.26017497
     atom   16 type  1   force =     0.00519049    0.03991226   -0.02422276
     atom   17 type  2   force =     0.00259030   -0.02926801   -0.25102536
     atom   18 type  2   force =    -0.00383283   -0.00389261    0.27213899
     atom   19 type  1   force =     0.02191243    0.00033737   -0.01313443
     atom   20 type  2   force =     0.00257663   -0.02154316    0.26593208
     atom   21 type  1   force =     0.01016546    0.01906072   -0.00248206
     atom   22 type  2   force =    -0.01638778   -0.00031789   -0.25478690
     atom   23 type  2   force =     0.00583538   -0.01302136    0.26983267
     atom   24 type  1   force =     0.00706115    0.02031680   -0.01304700
     atom   25 type  2   force =     0.01007130    0.00600095   -0.25798421
     atom   26 type  2   force =    -0.00496777   -0.01288878    0.26475704
     atom   27 type  1   force =    -0.00002318    0.01007012    0.00968268
     atom   28 type  2   force =    -0.00378104   -0.02426045   -0.27370619
     atom   29 type  2   force =     0.00701717    0.00182585    0.26341345
     atom   30 type  1   force =     0.00223611    0.01565571    0.01041554
     atom   31 type  2   force =    -0.00880621    0.00076622   -0.25177244
     atom   32 type  2   force =    -0.00421349   -0.00876967    0.27268838
     atom   33 type  1   force =    -0.00330753    0.00851604    0.00361743
     atom   34 type  2   force =     0.00404054   -0.03628466   -0.26002031
     atom   35 type  2   force =    -0.00355944   -0.00946490    0.27272284
     atom   36 type  3   force =    -0.02391391   -0.02082493   -0.02626909
     The ionic contribution  to forces
     atom    1 type  1   force =     0.31300191    0.51735737    5.50537170
     atom    2 type  2   force =    -0.46858864    0.89344366   39.07764616
     atom    3 type  2   force =    -0.14422725    0.06783569  -36.15760937
     atom    4 type  1   force =     0.11583330    0.55552455    0.64409569
     atom    5 type  2   force =    -0.98550534    1.53679772   38.74271521
     atom    6 type  2   force =     0.33929029   -0.48478049  -38.02960888
     atom    7 type  1   force =    -2.71770092   -3.08284436    2.29724888
     atom    8 type  2   force =    -0.94218509   -0.16393379   37.33913068
     atom    9 type  2   force =     0.35044664   -0.07408471  -38.02852276
     atom   10 type  1   force =    -0.78534454   -0.23809449    4.72679173
     atom   11 type  2   force =    -1.39279150   -2.35561423   38.21922227
     atom   12 type  2   force =     0.42053131    0.67095540  -37.95963200
     atom   13 type  1   force =     0.42764092    1.09246680    2.82124864
     atom   14 type  2   force =    -0.12449538    0.16865505   38.45021169
     atom   15 type  2   force =     0.12642533   -0.02699969  -36.84504060
     atom   16 type  1   force =    -0.06926622    3.92972688    0.47894552
     atom   17 type  2   force =     0.79655548    1.51879097   37.93902575
     atom   18 type  2   force =    -0.16658645   -0.63712577  -38.55513408
     atom   19 type  1   force =     2.65600791   -2.54925383    0.60228889
     atom   20 type  2   force =     0.21195710   -0.22534392  -38.48902920
     atom   21 type  1   force =    -0.29327491    0.08365898    0.81174974
     atom   22 type  2   force =     0.36157993   -1.75415350   38.39960689
     atom   23 type  2   force =    -0.10328366    0.65686581  -38.31456211
     atom   24 type  1   force =    -0.42278037    1.32264175    5.74061734
     atom   25 type  2   force =     0.71651774    0.35382770   39.25392812
     atom   26 type  2   force =    -0.27539490    0.08891403  -37.34673034
     atom   27 type  1   force =     0.04632680    0.39370428   -2.23744209
     atom   28 type  2   force =     0.08364224    1.03759215   38.20764669
     atom   29 type  2   force =    -0.25359297   -0.41523872  -37.26275813
     atom   30 type  1   force =    -0.18972751   -1.08977573   -0.17406202
     atom   31 type  2   force =     1.25257809   -0.11228119   37.32457321
     atom   32 type  2   force =    -0.47297178   -0.02631171  -38.63361760
     atom   33 type  1   force =     0.90759118   -0.83577505    1.95188464
     atom   34 type  2   force =     0.62367236   -1.54912029   39.21120978
     atom   35 type  2   force =    -0.26041446    0.46310918  -37.87431358
     atom   36 type  3   force =     0.31853335    0.26886353    8.16290355
     The local contribution  to forces
     atom    1 type  1   force =    -0.29691949   -0.57759906   -5.48534993
     atom    2 type  2   force =     0.47380797   -0.87385341  -38.84956503
     atom    3 type  2   force =     0.14503215   -0.05476254   35.90414384
     atom    4 type  1   force =    -0.10694014   -0.56506656   -0.64727205
     atom    5 type  2   force =     0.97823858   -1.51195953  -38.51854349
     atom    6 type  2   force =    -0.33532810    0.48738645   37.78898584
     atom    7 type  1   force =     2.76417252    3.05273775   -2.29326501
     atom    8 type  2   force =     0.93882113    0.16458273  -37.09209186
     atom    9 type  2   force =    -0.34168678    0.08444651   37.78357929
     atom   10 type  1   force =     0.78488597    0.25171707   -4.78945007
     atom   11 type  2   force =     1.22578818    2.21536289  -38.22148932
     atom   12 type  2   force =    -0.41207655   -0.65233723   37.72190047
     atom   13 type  1   force =    -0.42295054   -1.10340589   -2.82367624
     atom   14 type  2   force =     0.11566304   -0.15310351  -38.19788754
     atom   15 type  2   force =    -0.12705433    0.03743043   36.59552631
     atom   16 type  1   force =     0.05495316   -3.96238383   -0.44973222
     atom   17 type  2   force =    -0.79449488   -1.49046610  -37.70379075
     atom   18 type  2   force =     0.16750320    0.63504158   38.31703520
     atom   19 type  1   force =    -2.67795139    2.52430234   -0.59269820
     atom   20 type  2   force =    -0.20669861    0.24077315   38.24793463
     atom   21 type  1   force =     0.28191149   -0.09198534   -0.80789338
     atom   22 type  2   force =    -0.35332745    1.75229594  -38.16642373
     atom   23 type  2   force =     0.09653531   -0.63920392   38.07272364
     atom   24 type  1   force =     0.40825385   -1.34570417   -5.74972209
     atom   25 type  2   force =    -0.70900970   -0.34054402  -39.00827135
     atom   26 type  2   force =     0.26838967   -0.07856820   37.09896831
     atom   27 type  1   force =    -0.04698675   -0.40291964    2.23593822
     atom   28 type  2   force =    -0.07855629   -1.01555428  -37.95993250
     atom   29 type  2   force =     0.24966649    0.41363094   37.01745859
     atom   30 type  1   force =     0.18351619    1.08730802    0.15638602
     atom   31 type  2   force =    -1.24256007    0.11092367  -37.07581288
     atom   32 type  2   force =     0.46826490    0.04183137   38.39026168
     atom   33 type  1   force =    -0.89130481    0.82309955   -1.96261016
     atom   34 type  2   force =    -0.62221474    1.54000781  -38.98221724
     atom   35 type  2   force =     0.25564282   -0.44803757   37.63874772
     atom   36 type  3   force =    -0.33674278   -0.27704297   -8.15180999
     The core correction contribution to forces
     atom    1 type  1   force =     0.00000000    0.00000000    0.00000000
     atom    2 type  2   force =     0.00102869    0.00048710    0.01905632
     atom    3 type  2   force =     0.00060717    0.00012410   -0.02101080
     atom    4 type  1   force =     0.00000000    0.00000000    0.00000000
     atom    5 type  2   force =    -0.00061632    0.00189650    0.02027449
     atom    6 type  2   force =     0.00013980   -0.00104689   -0.02083168
     atom    7 type  1   force =     0.00000000    0.00000000    0.00000000
     atom    8 type  2   force =    -0.00019356    0.00064647    0.02018322
     atom    9 type  2   force =     0.00017421    0.00020742   -0.02105587
     atom   10 type  1   force =     0.00000000    0.00000000    0.00000000
     atom   11 type  2   force =    -0.01274645   -0.01161467    0.00246197
     atom   12 type  2   force =     0.00101507    0.00130292   -0.02101311
     atom   13 type  1   force =     0.00000000    0.00000000    0.00000000
     atom   14 type  2   force =    -0.00083585    0.00034674    0.02048532
     atom   15 type  2   force =     0.00061602    0.00052469   -0.02051468
     atom   16 type  1   force =     0.00000000    0.00000000    0.00000000
     atom   17 type  2   force =     0.00000391    0.00156027    0.02024762
     atom   18 type  2   force =     0.00007452   -0.00042967   -0.02093733
     atom   19 type  1   force =     0.00000000    0.00000000    0.00000000
     atom   20 type  2   force =    -0.00002904    0.00076723   -0.02119876
     atom   21 type  1   force =     0.00000000    0.00000000    0.00000000
     atom   22 type  2   force =     0.00049839   -0.00027262    0.02027462
     atom   23 type  2   force =    -0.00051838    0.00108110   -0.02098477
     atom   24 type  1   force =     0.00000000    0.00000000    0.00000000
     atom   25 type  2   force =    -0.00011213   -0.00042130    0.02053909
     atom   26 type  2   force =    -0.00002623    0.00072614   -0.02092417
     atom   27 type  1   force =     0.00000000    0.00000000    0.00000000
     atom   28 type  2   force =     0.00027942    0.00179212    0.02089001
     atom   29 type  2   force =    -0.00058875   -0.00056713   -0.02057945
     atom   30 type  1   force =     0.00000000    0.00000000    0.00000000
     atom   31 type  2   force =     0.00055440    0.00005389    0.02040814
     atom   32 type  2   force =    -0.00004100    0.00054119   -0.02097564
     atom   33 type  1   force =     0.00000000    0.00000000    0.00000000
     atom   34 type  2   force =     0.00049635    0.00104455    0.02030620
     atom   35 type  2   force =    -0.00003507    0.00091855   -0.02118337
     atom   36 type  3   force =     0.00000000    0.00000000    0.00000000
     The Hubbard contrib.    to forces
     atom    1 type  1   force =     0.00000000    0.00000000    0.00000000
     atom    2 type  2   force =     0.00000000    0.00000000    0.00000000
     atom    3 type  2   force =     0.00000000    0.00000000    0.00000000
     atom    4 type  1   force =     0.00000000    0.00000000    0.00000000
     atom    5 type  2   force =     0.00000000    0.00000000    0.00000000
     atom    6 type  2   force =     0.00000000    0.00000000    0.00000000
     atom    7 type  1   force =     0.00000000    0.00000000    0.00000000
     atom    8 type  2   force =     0.00000000    0.00000000    0.00000000
     atom    9 type  2   force =     0.00000000    0.00000000    0.00000000
     atom   10 type  1   force =     0.00000000    0.00000000    0.00000000
     atom   11 type  2   force =     0.00000000    0.00000000    0.00000000
     atom   12 type  2   force =     0.00000000    0.00000000    0.00000000
     atom   13 type  1   force =     0.00000000    0.00000000    0.00000000
     atom   14 type  2   force =     0.00000000    0.00000000    0.00000000
     atom   15 type  2   force =     0.00000000    0.00000000    0.00000000
     atom   16 type  1   force =     0.00000000    0.00000000    0.00000000
     atom   17 type  2   force =     0.00000000    0.00000000    0.00000000
     atom   18 type  2   force =     0.00000000    0.00000000    0.00000000
     atom   19 type  1   force =     0.00000000    0.00000000    0.00000000
     atom   20 type  2   force =     0.00000000    0.00000000    0.00000000
     atom   21 type  1   force =     0.00000000    0.00000000    0.00000000
     atom   22 type  2   force =     0.00000000    0.00000000    0.00000000
     atom   23 type  2   force =     0.00000000    0.00000000    0.00000000
     atom   24 type  1   force =     0.00000000    0.00000000    0.00000000
     atom   25 type  2   force =     0.00000000    0.00000000    0.00000000
     atom   26 type  2   force =     0.00000000    0.00000000    0.00000000
     atom   27 type  1   force =     0.00000000    0.00000000    0.00000000
     atom   28 type  2   force =     0.00000000    0.00000000    0.00000000
     atom   29 type  2   force =     0.00000000    0.00000000    0.00000000
     atom   30 type  1   force =     0.00000000    0.00000000    0.00000000
     atom   31 type  2   force =     0.00000000    0.00000000    0.00000000
     atom   32 type  2   force =     0.00000000    0.00000000    0.00000000
     atom   33 type  1   force =     0.00000000    0.00000000    0.00000000
     atom   34 type  2   force =     0.00000000    0.00000000    0.00000000
     atom   35 type  2   force =     0.00000000    0.00000000    0.00000000
     atom   36 type  3   force =     0.00000000    0.00000000    0.00000000
     The SCF correction term to forces
     atom    1 type  1   force =     0.00008153   -0.00031335   -0.00089122
     atom    2 type  2   force =    -0.00003250   -0.00010752   -0.00025705
     atom    3 type  2   force =    -0.00000998   -0.00010647   -0.00036232
     atom    4 type  1   force =     0.00007959    0.00002013   -0.00084798
     atom    5 type  2   force =     0.00004461   -0.00004866   -0.00018303
     atom    6 type  2   force =     0.00006131   -0.00010988   -0.00041459
     atom    7 type  1   force =    -0.00014715    0.00029713   -0.00082587
     atom    8 type  2   force =     0.00003007    0.00007616   -0.00018543
     atom    9 type  2   force =     0.00004422    0.00007922   -0.00038451
     atom   10 type  1   force =     0.00002303    0.00005056   -0.00093641
     atom   11 type  2   force =    -0.00004036    0.00007391   -0.00021020
     atom   12 type  2   force =    -0.00000831    0.00010766   -0.00037119
     atom   13 type  1   force =    -0.00003260   -0.00035569   -0.00089080
     atom   14 type  2   force =     0.00001413   -0.00011904   -0.00025201
     atom   15 type  2   force =     0.00001249   -0.00011902   -0.00037652
     atom   16 type  1   force =    -0.00005438    0.00021107   -0.00082814
     atom   17 type  2   force =    -0.00001575   -0.00003492   -0.00024316
     atom   18 type  2   force =    -0.00004050   -0.00008159   -0.00040866
     atom   19 type  1   force =    -0.00003447    0.00023913   -0.00072741
     atom   20 type  2   force =    -0.00007091    0.00014911   -0.00035040
     atom   21 type  1   force =    -0.00006335   -0.00009659   -0.00087750
     atom   22 type  2   force =     0.00002073   -0.00002795   -0.00030001
     atom   23 type  2   force =     0.00001009    0.00000701   -0.00027908
     atom   24 type  1   force =    -0.00002573   -0.00029640   -0.00096243
     atom   25 type  2   force =     0.00001511   -0.00011561   -0.00027691
     atom   26 type  2   force =    -0.00000897   -0.00010510   -0.00036323
     atom   27 type  1   force =    -0.00003037    0.00015401   -0.00086279
     atom   28 type  2   force =    -0.00002979   -0.00001175   -0.00026172
     atom   29 type  2   force =    -0.00002522   -0.00006512   -0.00038980
     atom   30 type  1   force =     0.00015845    0.00025892   -0.00081481
     atom   31 type  2   force =     0.00005060    0.00016926   -0.00032493
     atom   32 type  2   force =     0.00002801    0.00013835   -0.00030002
     atom   33 type  1   force =     0.00003560   -0.00012532   -0.00089826
     atom   34 type  2   force =     0.00001409    0.00000089   -0.00026566
     atom   35 type  2   force =     0.00000096    0.00005584   -0.00033766
     atom   36 type  3   force =    -0.00000600   -0.00000376   -0.00003705

     Total force =     0.146225     Total SCF correction =     0.003495

     BFGS Geometry Optimization
     Energy error            =      0.0E+00 Ry
     Gradient error          =      6.2E-02 Ry/Bohr

     number of scf cycles    =   1
     number of bfgs steps    =   0

     energy             new  =   -2205.5374106182 Ry

     new trust radius        =       0.0638995812 bohr
     new conv_thr            =       0.0000010000 Ry


ATOMIC_POSITIONS (angstrom)
Mo            6.5821311262        1.7749081279        2.8267037296
S             8.1681735070        0.8194245656        4.4375398599
S             8.1868308721        0.8156609320        1.2765968694
Mo            8.0991030905        4.4928207627        2.7171900013
S             6.4989140327        3.7187356412        4.3427651467
S             6.5556611753        3.5180505472        1.1214735843
Mo            6.4970892314        7.2080635351        2.6623707552
S             8.0838978952        6.3388511674        4.2508430335
S             8.0857102026        6.3092142794        1.0905660044
Mo            8.1634026623        9.9105764130        2.8108249881
S             6.5090605981        8.9610941752        4.4062304627
S             6.6176803031        9.0505955682        1.1440786031
Mo            3.4239818081        1.7524047467        2.7733768149
S             4.9775503896        0.8181070416        4.3566155141
S             5.0518170081        0.8472549068        1.2212330174
Mo            4.9749003283        4.5171306854        2.6350755152
S             3.4302964264        3.6719094259        4.2819279060
S             3.4363953383        3.5447970155        1.0650574363
Mo            3.4538269412        7.2034274968        2.6284049836
S             4.9873273401        6.3241834906        1.0389821668
Mo            5.0115963430        9.9072309678        2.7436521701
S             3.4669276811        8.9424426557        4.3247175313
S             3.4076769458        9.0680230923        1.0996181639
Mo            0.2921262425        1.7459014076        2.8372015317
S             1.8597133332        0.8026165256        4.4023966381
S             1.8544454471        0.8534105338        1.2071177390
Mo            1.8603136175        4.4962022271        2.6640571684
S             0.2730363546        3.6541664695        4.3347340682
S             0.2325417048        3.5270316978        1.1704952185
Mo            0.2691322867        7.2237635478        2.6974114983
S             1.9031995373        6.3126056651        4.2314660778
S             1.8575107607        6.3142769928        1.0488110774
Mo            1.8512334878        9.9378733881        2.7686977911
S             0.2990923932        9.0665295672        4.4080435903
S             0.2723446110        9.0470099399        1.1586632842
H             7.3329637669        9.6992289857        5.3413828791



     Writing config-only to output data dir ./MoS2-V-O.save/
     NEW-OLD atomic charge density approx. for the potential

     negative rho (up, down):  1.443E-04 0.000E+00

     total cpu time spent up to now is       89.2 secs

     Self-consistent Calculation

     iteration #  1     ecut=    80.00 Ry     beta= 0.70
     Davidson diagonalization with overlap
     ethr =  1.00E-06,  avg # of iterations =  8.0

     negative rho (up, down):  1.048E-04 0.000E+00

     total cpu time spent up to now is      102.0 secs

     total energy              =   -2205.55408018 Ry
     estimated scf accuracy    <       0.00212631 Ry

     iteration #  2     ecut=    80.00 Ry     beta= 0.70
     Davidson diagonalization with overlap
     ethr =  6.93E-07,  avg # of iterations =  3.0

     negative rho (up, down):  9.357E-05 0.000E+00

     total cpu time spent up to now is      121.0 secs

     total energy              =   -2205.55412735 Ry
     estimated scf accuracy    <       0.00043785 Ry

     iteration #  3     ecut=    80.00 Ry     beta= 0.70
     Davidson diagonalization with overlap
     ethr =  1.43E-07,  avg # of iterations =  6.0

     negative rho (up, down):  8.959E-05 0.000E+00

     total cpu time spent up to now is      137.1 secs

     total energy              =   -2205.55416232 Ry
     estimated scf accuracy    <       0.00010556 Ry

     iteration #  4     ecut=    80.00 Ry     beta= 0.70
     Davidson diagonalization with overlap
     ethr =  3.44E-08,  avg # of iterations =  4.0

     negative rho (up, down):  8.550E-05 0.000E+00

     total cpu time spent up to now is      154.1 secs

     total energy              =   -2205.55417816 Ry
     estimated scf accuracy    <       0.00001588 Ry

     iteration #  5     ecut=    80.00 Ry     beta= 0.70
     Davidson diagonalization with overlap
     ethr =  5.17E-09,  avg # of iterations = 10.0

     negative rho (up, down):  7.955E-05 0.000E+00

     total cpu time spent up to now is      168.0 secs

     total energy              =   -2205.55418106 Ry
     estimated scf accuracy    <       0.00000481 Ry

     iteration #  6     ecut=    80.00 Ry     beta= 0.70
     Davidson diagonalization with overlap
     ethr =  1.57E-09,  avg # of iterations =  2.0

     negative rho (up, down):  7.500E-05 0.000E+00

     total cpu time spent up to now is      181.8 secs

     total energy              =   -2205.55418178 Ry
     estimated scf accuracy    <       0.00000146 Ry

     iteration #  7     ecut=    80.00 Ry     beta= 0.70
     Davidson diagonalization with overlap
     ethr =  4.77E-10,  avg # of iterations =  5.0

     negative rho (up, down):  1.373E-04 0.000E+00

     total cpu time spent up to now is      183.9 secs

     End of self-consistent calculation

          k = 0.0000 0.0000 0.0000 (105382 PWs)   bands (ev):

   -62.8888 -62.8283 -62.8134 -62.8076 -62.8057 -62.7994 -62.7911 -62.7633
   -62.7512 -62.6689 -62.6423 -62.6328 -37.1796 -37.1379 -37.1091 -37.1023
   -37.0913 -37.0846 -37.0648 -37.0369 -37.0311 -37.0230 -37.0082 -37.0001
   -36.9902 -36.9868 -36.9791 -36.9747 -36.9678 -36.9624 -36.9575 -36.9396
   -36.9251 -36.9065 -36.8969 -36.8755 -36.8587 -36.8521 -36.8465 -36.8319
   -36.8151 -36.8105 -36.8011 -36.7888 -36.7761 -36.7514 -36.6345 -36.5849
   -16.1551 -15.6208 -15.0890 -15.0441 -14.8783 -14.8609 -14.6353 -14.4273
   -14.4227 -14.3997 -14.3560 -14.3237 -14.3007 -14.2442 -14.1528 -14.0822
   -14.0778 -14.0632 -13.9871 -13.8532 -13.8036 -13.7959 -13.7804  -8.7675
    -7.6329  -7.4046  -7.3041  -7.2501  -7.2015  -7.1580  -7.1038  -7.0005
    -6.8149  -6.7931  -6.7197  -6.6751  -6.5622  -6.4881  -6.4658  -6.3899
    -6.2799  -6.2237  -6.1962  -5.9239  -5.8871  -5.8687  -5.7851  -5.7570
    -5.7219  -5.7046  -5.6447  -5.6107  -5.5792  -5.5074  -5.4862  -5.4380
    -5.3932  -5.3279  -5.1478  -5.1167  -5.0586  -4.9918  -4.9574  -4.8911
    -4.8766  -4.7916  -4.6305  -4.5258  -4.4836  -4.2784  -4.2561  -4.1795
    -4.1493  -4.0460  -3.9853  -3.8955  -3.7931  -3.7659  -3.6851  -3.6502
    -3.6212  -3.5323  -3.5045  -3.4872  -3.4578  -3.4222  -3.3861  -3.3469
    -3.3294  -3.1758  -3.1071  -2.9036  -2.8677  -2.7797  -2.7564  -2.6848
    -2.6696  -2.6224  -2.6176  -2.5948  -2.5013  -2.2174  -1.9932  -1.9466
    -1.8990  -0.9008  -0.6999  -0.4143  -0.1473  -0.0927  -0.0441  -0.0021
     0.0767   0.1321   0.1797   0.2554   0.2853   0.3569   0.4474   0.4801
     0.5320   0.5841   0.5985   0.6269   0.6351   0.7023   0.7352   0.7777
     0.7992   0.8338   0.8888   0.9054   1.0196   1.0297   1.0828   1.3517
     1.3848

     the Fermi energy is    -0.9048 ev

!    total energy              =   -2205.55418145 Ry
     estimated scf accuracy    <       0.00000074 Ry
     smearing contrib. (-TS)   =      -0.00622140 Ry
     internal energy E=F+TS    =   -2205.54796005 Ry

     The total energy is F=E-TS. E is the sum of the following terms:
     one-electron contribution =  -18047.56285598 Ry
     hartree contribution      =    9010.93780878 Ry
     xc contribution           =    -385.32489154 Ry
     ewald contribution        =    7216.40197868 Ry

     convergence has been achieved in   7 iterations

     negative rho (up, down):  1.373E-04 0.000E+00

     Forces acting on atoms (cartesian axes, Ry/au):

     atom    1 type  1   force =     0.00351944   -0.01249383    0.00062295
     atom    2 type  2   force =    -0.00791607    0.01135570   -0.00168911
     atom    3 type  2   force =    -0.01008057    0.00986850   -0.01256573
     atom    4 type  1   force =     0.00661182   -0.00146931    0.00085074
     atom    5 type  2   force =    -0.00068702   -0.00745067   -0.00714829
     atom    6 type  2   force =     0.00307409    0.00778233    0.00263046
     atom    7 type  1   force =     0.01227928   -0.00953009   -0.00272845
     atom    8 type  2   force =     0.00348476   -0.00804046    0.00985018
     atom    9 type  2   force =     0.00925572    0.00551278    0.00652600
     atom   10 type  1   force =     0.00526228    0.01225985   -0.02232099
     atom   11 type  2   force =     0.01611577    0.01832408    0.01911502
     atom   12 type  2   force =    -0.00358639    0.00218536    0.00253908
     atom   13 type  1   force =     0.00350963    0.00606621   -0.00254404
     atom   14 type  2   force =     0.00271194    0.00263856    0.00764904
     atom   15 type  2   force =    -0.00811453    0.00170743   -0.00784880
     atom   16 type  1   force =    -0.00568816    0.00564625    0.00365979
     atom   17 type  2   force =     0.00337343    0.00101456    0.00504353
     atom   18 type  2   force =    -0.00243057   -0.00380026    0.00931124
     atom   19 type  1   force =     0.00011092   -0.01661564    0.00003759
     atom   20 type  2   force =     0.00660762   -0.00589948   -0.00107917
     atom   21 type  1   force =    -0.00053638    0.00666441    0.00546733
     atom   22 type  2   force =    -0.00430486   -0.00366855   -0.00470877
     atom   23 type  2   force =     0.00131945    0.00250994    0.00469243
     atom   24 type  1   force =    -0.00492382   -0.00202762   -0.00867739
     atom   25 type  2   force =     0.01206012    0.01449100    0.00063836
     atom   26 type  2   force =    -0.00734852   -0.00152438   -0.00516322
     atom   27 type  1   force =    -0.00129249    0.00097611    0.00648809
     atom   28 type  2   force =     0.00135689   -0.00247463   -0.00576000
     atom   29 type  2   force =     0.00287768    0.00097851   -0.00438735
     atom   30 type  1   force =    -0.00251169    0.00389400    0.00197766
     atom   31 type  2   force =     0.00033117   -0.00038503    0.01221204
     atom   32 type  2   force =    -0.00786998    0.00570681    0.00518670
     atom   33 type  1   force =     0.00636035   -0.00110567    0.00164375
     atom   34 type  2   force =     0.00128990   -0.03077863   -0.01816411
     atom   35 type  2   force =    -0.00292136    0.00706327    0.00394050
     atom   36 type  3   force =    -0.03129982   -0.01938141   -0.00529708
     The non-local contrib.  to forces
     atom    1 type  1   force =     0.00029404    0.03189932   -0.01381202
     atom    2 type  2   force =    -0.01491903   -0.00246753   -0.24474357
     atom    3 type  2   force =    -0.01029467   -0.00540713    0.26512102
     atom    4 type  1   force =    -0.00048843    0.00621038    0.00190558
     atom    5 type  2   force =     0.00675933   -0.03413551   -0.25287281
     atom    6 type  2   force =    -0.00064670    0.00688643    0.26470614
     atom    7 type  1   force =    -0.03461353    0.00890186   -0.02400666
     atom    8 type  2   force =     0.00869356   -0.01081902   -0.25380725
     atom    9 type  2   force =    -0.00047108   -0.00451138    0.27575116
     atom   10 type  1   force =     0.00688689    0.00346480    0.00034463
     atom   11 type  2   force =     0.20418898    0.18365248    0.03035395
     atom   12 type  2   force =    -0.01054280   -0.01735212    0.26525952
     atom   13 type  1   force =     0.00080815    0.02306605   -0.00280097
     atom   14 type  2   force =     0.01302652   -0.01249761   -0.26281768
     atom   15 type  2   force =    -0.00914679   -0.00943149    0.26125237
     atom   16 type  1   force =     0.00433210    0.04166023   -0.02591393
     atom   17 type  2   force =     0.00161366   -0.02802555   -0.25071699
     atom   18 type  2   force =    -0.00359418   -0.00177013    0.26998845
     atom   19 type  1   force =     0.02405015    0.00065107   -0.01522597
     atom   20 type  2   force =     0.00204318   -0.02119299    0.26315074
     atom   21 type  1   force =     0.00905633    0.02016020   -0.00577602
     atom   22 type  2   force =    -0.01363102   -0.00237069   -0.25727606
     atom   23 type  2   force =     0.00787784   -0.01636706    0.26948394
     atom   24 type  1   force =     0.00558538    0.02114293   -0.01255666
     atom   25 type  2   force =     0.00617744    0.00260189   -0.26268526
     atom   26 type  2   force =    -0.00156594   -0.01205827    0.26470053
     atom   27 type  1   force =     0.00026408    0.01014166    0.00847915
     atom   28 type  2   force =    -0.00383254   -0.02484337   -0.27442073
     atom   29 type  2   force =     0.00706682    0.00137637    0.26321635
     atom   30 type  1   force =     0.00179714    0.01760407    0.00891200
     atom   31 type  2   force =    -0.01072915    0.00083261   -0.25478097
     atom   32 type  2   force =    -0.00318663   -0.00956128    0.27091168
     atom   33 type  1   force =    -0.00197071    0.00763037    0.00162433
     atom   34 type  2   force =     0.00102316   -0.02591096   -0.26493019
     atom   35 type  2   force =    -0.00074089   -0.00823207    0.26604139
     atom   36 type  3   force =    -0.02816779   -0.02454771   -0.03100636
     The ionic contribution  to forces
     atom    1 type  1   force =     0.01487964    0.81627891    5.65236199
     atom    2 type  2   force =    -0.28028697    0.69081863   39.17570931
     atom    3 type  2   force =    -0.15658818    0.18761845  -36.31009994
     atom    4 type  1   force =     0.01169035    0.56950312    0.71304629
     atom    5 type  2   force =    -0.98796032    1.54555438   38.65072750
     atom    6 type  2   force =     0.26866114   -0.51779359  -37.92604325
     atom    7 type  1   force =    -2.87574043   -2.59629995    2.24743051
     atom    8 type  2   force =    -0.98530820   -0.09786443   37.43597882
     atom    9 type  2   force =     0.37136451   -0.14701658  -38.00257284
     atom   10 type  1   force =    -0.79326307   -0.40253247    3.74993240
     atom   11 type  2   force =    -1.42201696   -2.49406626   38.13654982
     atom   12 type  2   force =     0.23004127    0.56845794  -37.86207895
     atom   13 type  1   force =     0.40973265    0.94335330    2.76754115
     atom   14 type  2   force =    -0.19695022    0.16325426   38.51581984
     atom   15 type  2   force =     0.12062761    0.01444416  -36.88478695
     atom   16 type  1   force =     0.13920260    3.78110038    0.65382466
     atom   17 type  2   force =     0.79319865    1.48450647   38.01037601
     atom   18 type  2   force =    -0.15140779   -0.60036917  -38.52026116
     atom   19 type  1   force =     2.81866202   -2.19569753    0.60939610
     atom   20 type  2   force =     0.18400607   -0.18140556  -38.51349592
     atom   21 type  1   force =    -0.25109310   -0.30052578    1.07664230
     atom   22 type  2   force =     0.43923732   -1.78703230   38.33743569
     atom   23 type  2   force =    -0.02926195    0.56898905  -38.22289813
     atom   24 type  1   force =    -0.20261907    1.20769345    5.47322154
     atom   25 type  2   force =     0.59256125    0.28009635   39.23494591
     atom   26 type  2   force =    -0.18793196    0.08265519  -37.32016228
     atom   27 type  1   force =    -0.01564642    0.41486081   -1.99299540
     atom   28 type  2   force =     0.08457891    0.95817396   38.20799038
     atom   29 type  2   force =    -0.21954250   -0.34484608  -37.29963188
     atom   30 type  1   force =    -0.14938909   -1.23404287   -0.17796441
     atom   31 type  2   force =     1.21238858   -0.06120324   37.42449250
     atom   32 type  2   force =    -0.46106767   -0.05384595  -38.61033776
     atom   33 type  1   force =     0.89059034   -0.68348835    2.10390366
     atom   34 type  2   force =     0.48975297   -1.32557670   39.12199131
     atom   35 type  2   force =    -0.11416200    0.41837100  -37.86318324
     atom   36 type  3   force =     0.40906000    0.32787700    8.20719443
     The local contribution  to forces
     atom    1 type  1   force =    -0.01161898   -0.86055615   -5.63897775
     atom    2 type  2   force =     0.28641116   -0.67721794  -38.95237625
     atom    3 type  2   force =     0.15636953   -0.17263103   36.05297752
     atom    4 type  1   force =    -0.00448813   -0.57727510   -0.71512046
     atom    5 type  2   force =     0.98118470   -1.52084588  -38.42569363
     atom    6 type  2   force =    -0.26504694    0.51955493   37.68451840
     atom    7 type  1   force =     2.92273372    2.57757627   -2.22739172
     atom    8 type  2   force =     0.98045657    0.09991871  -37.19304978
     atom    9 type  2   force =    -0.36179001    0.15684198   37.75405168
     atom   10 type  1   force =     0.79180777    0.41144829   -3.77385066
     atom   11 type  2   force =     1.24691691    2.34064122  -38.15026179
     atom   12 type  2   force =    -0.22385415   -0.55012494   37.61987714
     atom   13 type  1   force =    -0.40712820   -0.96025432   -2.76831787
     atom   14 type  2   force =     0.18750917   -0.14833202  -38.26636299
     atom   15 type  2   force =    -0.12012765   -0.00382688   36.63593045
     atom   16 type  1   force =    -0.14932033   -3.81718875   -0.62527629
     atom   17 type  2   force =    -0.79150743   -1.45694702  -37.77530945
     atom   18 type  2   force =     0.15250690    0.59880131   38.28024163
     atom   19 type  1   force =    -2.84294597    2.17825983   -0.59521431
     atom   20 type  2   force =    -0.17949441    0.19587170   38.27009104
     atom   21 type  1   force =     0.24129440    0.28730425   -1.06663822
     atom   22 type  2   force =    -0.43042872    1.78594331  -38.10563128
     atom   23 type  2   force =     0.02317622   -0.55127711   37.97871836
     atom   24 type  1   force =     0.19215496   -1.23073934   -5.47045501
     atom   25 type  2   force =    -0.58661293   -0.26782334  -38.99270474
     atom   26 type  2   force =     0.18225544   -0.07277727   37.07089650
     atom   27 type  1   force =     0.01409474   -0.42401914    1.98998069
     atom   28 type  2   force =    -0.07963784   -0.93752500  -37.96070071
     atom   29 type  2   force =     0.21592521    0.34491010   37.05235011
     atom   30 type  1   force =     0.14526946    1.22025671    0.16991368
     atom   31 type  2   force =    -1.20190491    0.05986032  -37.17849112
     atom   32 type  2   force =     0.45649085    0.06863775   38.36532411
     atom   33 type  1   force =    -0.88234154    0.67470215   -2.10506938
     atom   34 type  2   force =    -0.48989329    1.31985352  -38.89617854
     atom   35 type  2   force =     0.11201334   -0.40393161   37.62180314
     atom   36 type  3   force =    -0.41220034   -0.32271848   -8.18156447
     The core correction contribution to forces
     atom    1 type  1   force =     0.00000000    0.00000000    0.00000000
     atom    2 type  2   force =     0.00080395    0.00035964    0.01922992
     atom    3 type  2   force =     0.00043565    0.00028854   -0.02085902
     atom    4 type  1   force =     0.00000000    0.00000000    0.00000000
     atom    5 type  2   force =    -0.00066539    0.00191284    0.02026598
     atom    6 type  2   force =     0.00012623   -0.00089896   -0.02084413
     atom    7 type  1   force =     0.00000000    0.00000000    0.00000000
     atom    8 type  2   force =    -0.00022495    0.00064827    0.02026459
     atom    9 type  2   force =     0.00026215    0.00023436   -0.02100730
     atom   10 type  1   force =     0.00000000    0.00000000    0.00000000
     atom   11 type  2   force =    -0.01283338   -0.01176968    0.00237559
     atom   12 type  2   force =     0.00089055    0.00126759   -0.02097361
     atom   13 type  1   force =     0.00000000    0.00000000    0.00000000
     atom   14 type  2   force =    -0.00084839    0.00033041    0.02055243
     atom   15 type  2   force =     0.00053346    0.00059097   -0.02056063
     atom   16 type  1   force =     0.00000000    0.00000000    0.00000000
     atom   17 type  2   force =     0.00004363    0.00148101    0.02025515
     atom   18 type  2   force =     0.00005013   -0.00048942   -0.02090074
     atom   19 type  1   force =     0.00000000    0.00000000    0.00000000
     atom   20 type  2   force =    -0.00002067    0.00076464   -0.02114239
     atom   21 type  1   force =     0.00000000    0.00000000    0.00000000
     atom   22 type  2   force =     0.00039149   -0.00023557    0.02035357
     atom   23 type  2   force =    -0.00057022    0.00115119   -0.02096969
     atom   24 type  1   force =     0.00000000    0.00000000    0.00000000
     atom   25 type  2   force =     0.00000584   -0.00028791    0.02065049
     atom   26 type  2   force =    -0.00013278    0.00067512   -0.02091003
     atom   27 type  1   force =     0.00000000    0.00000000    0.00000000
     atom   28 type  2   force =     0.00028748    0.00173691    0.02094162
     atom   29 type  2   force =    -0.00055491   -0.00049217   -0.02059729
     atom   30 type  1   force =     0.00000000    0.00000000    0.00000000
     atom   31 type  2   force =     0.00058594    0.00009819    0.02047899
     atom   32 type  2   force =    -0.00012253    0.00052800   -0.02092609
     atom   33 type  1   force =     0.00000000    0.00000000    0.00000000
     atom   34 type  2   force =     0.00051051    0.00070494    0.02046275
     atom   35 type  2   force =    -0.00003743    0.00082098   -0.02102053
     atom   36 type  3   force =     0.00000000    0.00000000    0.00000000
     The Hubbard contrib.    to forces
     atom    1 type  1   force =     0.00000000    0.00000000    0.00000000
     atom    2 type  2   force =     0.00000000    0.00000000    0.00000000
     atom    3 type  2   force =     0.00000000    0.00000000    0.00000000
     atom    4 type  1   force =     0.00000000    0.00000000    0.00000000
     atom    5 type  2   force =     0.00000000    0.00000000    0.00000000
     atom    6 type  2   force =     0.00000000    0.00000000    0.00000000
     atom    7 type  1   force =     0.00000000    0.00000000    0.00000000
     atom    8 type  2   force =     0.00000000    0.00000000    0.00000000
     atom    9 type  2   force =     0.00000000    0.00000000    0.00000000
     atom   10 type  1   force =     0.00000000    0.00000000    0.00000000
     atom   11 type  2   force =     0.00000000    0.00000000    0.00000000
     atom   12 type  2   force =     0.00000000    0.00000000    0.00000000
     atom   13 type  1   force =     0.00000000    0.00000000    0.00000000
     atom   14 type  2   force =     0.00000000    0.00000000    0.00000000
     atom   15 type  2   force =     0.00000000    0.00000000    0.00000000
     atom   16 type  1   force =     0.00000000    0.00000000    0.00000000
     atom   17 type  2   force =     0.00000000    0.00000000    0.00000000
     atom   18 type  2   force =     0.00000000    0.00000000    0.00000000
     atom   19 type  1   force =     0.00000000    0.00000000    0.00000000
     atom   20 type  2   force =     0.00000000    0.00000000    0.00000000
     atom   21 type  1   force =     0.00000000    0.00000000    0.00000000
     atom   22 type  2   force =     0.00000000    0.00000000    0.00000000
     atom   23 type  2   force =     0.00000000    0.00000000    0.00000000
     atom   24 type  1   force =     0.00000000    0.00000000    0.00000000
     atom   25 type  2   force =     0.00000000    0.00000000    0.00000000
     atom   26 type  2   force =     0.00000000    0.00000000    0.00000000
     atom   27 type  1   force =     0.00000000    0.00000000    0.00000000
     atom   28 type  2   force =     0.00000000    0.00000000    0.00000000
     atom   29 type  2   force =     0.00000000    0.00000000    0.00000000
     atom   30 type  1   force =     0.00000000    0.00000000    0.00000000
     atom   31 type  2   force =     0.00000000    0.00000000    0.00000000
     atom   32 type  2   force =     0.00000000    0.00000000    0.00000000
     atom   33 type  1   force =     0.00000000    0.00000000    0.00000000
     atom   34 type  2   force =     0.00000000    0.00000000    0.00000000
     atom   35 type  2   force =     0.00000000    0.00000000    0.00000000
     atom   36 type  3   force =     0.00000000    0.00000000    0.00000000
     The SCF correction term to forces
     atom    1 type  1   force =    -0.00003053   -0.00011636    0.00102565
     atom    2 type  2   force =     0.00007955   -0.00013755    0.00046639
     atom    3 type  2   force =     0.00000184   -0.00000078    0.00026960
     atom    4 type  1   force =    -0.00009722    0.00009183    0.00099424
     atom    5 type  2   force =    -0.00000061    0.00006306    0.00039958
     atom    6 type  2   force =    -0.00001491    0.00003307    0.00026822
     atom    7 type  1   force =    -0.00009574    0.00029128    0.00121434
     atom    8 type  2   force =    -0.00012749    0.00007557    0.00043872
     atom    9 type  2   force =    -0.00010512   -0.00003606    0.00027821
     atom   10 type  1   force =    -0.00016457   -0.00012122    0.00122756
     atom   11 type  2   force =    -0.00013505   -0.00013412    0.00007237
     atom   12 type  2   force =    -0.00011654   -0.00006356    0.00042989
     atom   13 type  1   force =     0.00010177   -0.00009927    0.00100856
     atom   14 type  2   force =    -0.00002041   -0.00011693    0.00043235
     atom   15 type  2   force =     0.00000357   -0.00006977    0.00029087
     atom   16 type  1   force =     0.00010221    0.00007394    0.00100026
     atom   17 type  2   force =     0.00002965   -0.00000079    0.00041372
     atom   18 type  2   force =     0.00001912    0.00002669    0.00021798
     atom   19 type  1   force =     0.00034946    0.00017054    0.00105668
     atom   20 type  2   force =     0.00007819    0.00006230    0.00029228
     atom   21 type  1   force =     0.00021073   -0.00027471    0.00121419
     atom   22 type  2   force =     0.00013081    0.00002625    0.00038423
     atom   23 type  2   force =     0.00010230    0.00001342    0.00033287
     atom   24 type  1   force =    -0.00004035   -0.00012510    0.00108765
     atom   25 type  2   force =    -0.00006676   -0.00009643    0.00040687
     atom   26 type  2   force =     0.00003146   -0.00001960    0.00028697
     atom   27 type  1   force =    -0.00000015   -0.00000766    0.00099857
     atom   28 type  2   force =    -0.00003438   -0.00001758    0.00040434
     atom   29 type  2   force =    -0.00001219    0.00002985    0.00025028
     atom   30 type  1   force =    -0.00018446    0.00007565    0.00109131
     atom   31 type  2   force =    -0.00000456    0.00002664    0.00048756
     atom   32 type  2   force =     0.00002073   -0.00005215    0.00018968
     atom   33 type  1   force =     0.00008700    0.00004972    0.00116005
     atom   34 type  2   force =    -0.00009872    0.00015013    0.00046546
     atom   35 type  2   force =     0.00001035    0.00003452    0.00027466
     atom   36 type  3   force =     0.00001305    0.00000733    0.00005423

     Total force =     0.089011     Total SCF correction =     0.004240
     Energy error            =      1.7E-02 Ry
     Gradient error          =      3.1E-02 Ry/Bohr

     number of scf cycles    =   2
     number of bfgs steps    =   1

     energy             old  =   -2205.5374106182 Ry
     energy             new  =   -2205.5541814473 Ry

     CASE: energy            _new < energy            _old

     new trust radius        =       0.0702895393 bohr
     new conv_thr            =       0.0000000313 Ry


ATOMIC_POSITIONS (angstrom)
Mo            6.5866634156        1.7616944861        2.8278584554
S             8.1597267828        0.8310237353        4.4367267679
S             8.1769909222        0.8249147481        1.2657041224
Mo            8.1055040343        4.4911192516        2.7177807194
S             6.4981287706        3.7116794417        4.3359196591
S             6.5587355246        3.5259282062        1.1237382472
Mo            6.5089336509        7.1978745884        2.6581114471
S             8.0872906517        6.3310204195        4.2608940850
S             8.0945222751        6.3148027937        1.0974609806
Mo            8.1684247808        9.9226686831        2.7852502272
S             6.5255419629        8.9803201972        4.4271423912
S             6.6145919707        9.0528305888        1.1470819072
Mo            3.4274267729        1.7586535684        2.7705902131
S             4.9803334900        0.8205780242        4.3643331303
S             5.0437191198        0.8489027955        1.2134811843
Mo            4.9690928261        4.5227173856        2.6386205874
S             3.4336533842        3.6728311357        4.2866490410
S             3.4340265618        3.5408786313        1.0743089024
Mo            3.4539136270        7.1867276023        2.6279707795
S             4.9937560336        6.3186295362        1.0384238712
Mo            5.0110057058        9.9140231148        2.7483282985
S             3.4624596683        8.9390711564        4.3205553428
S             3.4086387205        9.0707682872        1.1043154404
Mo            0.2871482510        1.7438564731        2.8273504051
S             1.8718120579        0.8169091562        4.4037954660
S             1.8469262018        0.8519128473        1.2022820760
Mo            1.8591428840        4.4971377131        2.6703368929
S             0.2743528035        3.6520256180        4.3292773253
S             0.2352446278        3.5278147660        1.1664718141
Mo            0.2665934400        7.2285172335        2.6982054166
S             1.9036768337        6.3122403609        4.2436463031
S             1.8498841831        6.3199109147        1.0540704133
Mo            1.8580260502        9.9364734053        2.7692167477
S             0.3008356307        9.0356814348        4.3914843121
S             0.2689655403        9.0536991466        1.1636911707
H             7.3019156339        9.6796867415        5.3352486761



     Writing config-only to output data dir ./MoS2-V-O.save/
     NEW-OLD atomic charge density approx. for the potential

     negative rho (up, down):  1.488E-04 0.000E+00

     total cpu time spent up to now is      187.2 secs

     Self-consistent Calculation

     iteration #  1     ecut=    80.00 Ry     beta= 0.70
     Davidson diagonalization with overlap
     ethr =  1.00E-06,  avg # of iterations = 16.0

     negative rho (up, down):  9.156E-05 0.000E+00

     total cpu time spent up to now is      201.5 secs

     total energy              =   -2205.56424591 Ry
     estimated scf accuracy    <       0.00208448 Ry

     iteration #  2     ecut=    80.00 Ry     beta= 0.70
     Davidson diagonalization with overlap
     ethr =  6.79E-07,  avg # of iterations =  2.0

     negative rho (up, down):  6.454E-05 0.000E+00

     total cpu time spent up to now is      215.8 secs

     total energy              =   -2205.56430688 Ry
     estimated scf accuracy    <       0.00033704 Ry

     iteration #  3     ecut=    80.00 Ry     beta= 0.70
     Davidson diagonalization with overlap
     ethr =  1.10E-07,  avg # of iterations =  4.0

     negative rho (up, down):  5.233E-05 0.000E+00

     total cpu time spent up to now is      231.2 secs

     total energy              =   -2205.56434968 Ry
     estimated scf accuracy    <       0.00004250 Ry

     iteration #  4     ecut=    80.00 Ry     beta= 0.70
     Davidson diagonalization with overlap
     ethr =  1.38E-08,  avg # of iterations =  6.0

     negative rho (up, down):  4.921E-05 0.000E+00

     total cpu time spent up to now is      249.6 secs

     total energy              =   -2205.56436006 Ry
     estimated scf accuracy    <       0.00000801 Ry

     iteration #  5     ecut=    80.00 Ry     beta= 0.70
     Davidson diagonalization with overlap
     ethr =  2.61E-09,  avg # of iterations =  3.0

     negative rho (up, down):  4.968E-05 0.000E+00

     total cpu time spent up to now is      261.3 secs

     total energy              =   -2205.56436073 Ry
     estimated scf accuracy    <       0.00000252 Ry

     iteration #  6     ecut=    80.00 Ry     beta= 0.70
     Davidson diagonalization with overlap
     ethr =  8.21E-10,  avg # of iterations =  5.0

     negative rho (up, down):  5.477E-05 0.000E+00

     total cpu time spent up to now is      272.3 secs

     total energy              =   -2205.56436104 Ry
     estimated scf accuracy    <       0.00000061 Ry

     iteration #  7     ecut=    80.00 Ry     beta= 0.70
     Davidson diagonalization with overlap
     ethr =  1.99E-10,  avg # of iterations =  4.0

     negative rho (up, down):  6.690E-05 0.000E+00

     total cpu time spent up to now is      282.2 secs

     total energy              =   -2205.56436103 Ry
     estimated scf accuracy    <       0.00000018 Ry

     iteration #  8     ecut=    80.00 Ry     beta= 0.70
     Davidson diagonalization with overlap
     ethr =  5.97E-11,  avg # of iterations =  5.0

     negative rho (up, down):  8.570E-05 0.000E+00

     total cpu time spent up to now is      292.2 secs

     total energy              =   -2205.56436097 Ry
     estimated scf accuracy    <       0.00000007 Ry

     iteration #  9     ecut=    80.00 Ry     beta= 0.70
     Davidson diagonalization with overlap
     ethr =  2.34E-11,  avg # of iterations =  4.0

     negative rho (up, down):  1.379E-04 0.000E+00

     total cpu time spent up to now is      294.3 secs

     End of self-consistent calculation

          k = 0.0000 0.0000 0.0000 (105382 PWs)   bands (ev):

   -62.8937 -62.8218 -62.8089 -62.8018 -62.7972 -62.7948 -62.7833 -62.7595
   -62.7370 -62.6563 -62.6333 -62.6242 -37.1738 -37.1388 -37.1039 -37.0980
   -37.0840 -37.0812 -37.0564 -37.0315 -37.0256 -37.0158 -37.0028 -36.9951
   -36.9836 -36.9805 -36.9705 -36.9690 -36.9594 -36.9543 -36.9509 -36.9357
   -36.9169 -36.8977 -36.8898 -36.8695 -36.8510 -36.8434 -36.8388 -36.8225
   -36.8072 -36.8006 -36.7931 -36.7826 -36.7643 -36.7454 -36.6212 -36.5734
   -16.2094 -15.6669 -15.0839 -15.0463 -14.8769 -14.8427 -14.6350 -14.4155
   -14.4114 -14.3894 -14.3601 -14.3171 -14.2948 -14.2441 -14.1462 -14.0774
   -14.0737 -14.0630 -13.9807 -13.8502 -13.7937 -13.7855 -13.7844  -8.8777
    -7.6236  -7.3943  -7.3009  -7.2498  -7.1853  -7.1454  -7.1085  -7.0049
    -6.7964  -6.7878  -6.7128  -6.6584  -6.5684  -6.4828  -6.4605  -6.3786
    -6.2812  -6.2284  -6.1954  -5.9149  -5.8843  -5.8643  -5.7755  -5.7433
    -5.7180  -5.6930  -5.6320  -5.6082  -5.5814  -5.5125  -5.4802  -5.4279
    -5.3697  -5.3042  -5.1316  -5.1013  -5.0489  -4.9784  -4.9553  -4.8990
    -4.8782  -4.7914  -4.6159  -4.5254  -4.4790  -4.2800  -4.2466  -4.1732
    -4.1577  -4.0477  -3.9805  -3.8864  -3.8010  -3.7514  -3.6697  -3.6524
    -3.6119  -3.5267  -3.4978  -3.4848  -3.4542  -3.4193  -3.3825  -3.3401
    -3.3265  -3.1776  -3.1038  -2.8930  -2.8541  -2.7700  -2.7526  -2.6887
    -2.6656  -2.6297  -2.6113  -2.5840  -2.4809  -2.2033  -1.9839  -1.9425
    -1.9068  -0.8903  -0.6677  -0.4063  -0.1580  -0.0801  -0.0464   0.0117
     0.1049   0.1362   0.1752   0.2533   0.2979   0.3641   0.4517   0.4861
     0.5404   0.5862   0.6131   0.6484   0.6515   0.7059   0.7397   0.7770
     0.8056   0.8417   0.9025   0.9179   1.0333   1.0446   1.0824   1.3556
     1.4012

     the Fermi energy is    -0.8926 ev

!    total energy              =   -2205.56436083 Ry
     estimated scf accuracy    <       0.00000002 Ry
     smearing contrib. (-TS)   =      -0.00600733 Ry
     internal energy E=F+TS    =   -2205.55835349 Ry

     The total energy is F=E-TS. E is the sum of the following terms:
     one-electron contribution =  -18046.57432155 Ry
     hartree contribution      =    9010.49899585 Ry
     xc contribution           =    -385.34716080 Ry
     ewald contribution        =    7215.86413301 Ry

     convergence has been achieved in   9 iterations

     negative rho (up, down):  1.379E-04 0.000E+00

     Forces acting on atoms (cartesian axes, Ry/au):

     atom    1 type  1   force =    -0.00519794   -0.00089875   -0.00581782
     atom    2 type  2   force =    -0.00037632    0.00516091   -0.00522107
     atom    3 type  2   force =    -0.00660828    0.00914609   -0.01670010
     atom    4 type  1   force =     0.00479352    0.00031968    0.00070146
     atom    5 type  2   force =     0.00048015   -0.00690716   -0.00542840
     atom    6 type  2   force =     0.00136836    0.00417203    0.00420801
     atom    7 type  1   force =     0.00827055   -0.00088238    0.00591870
     atom    8 type  2   force =     0.00274620   -0.00666648    0.00617266
     atom    9 type  2   force =     0.00829180    0.00231459    0.00141720
     atom   10 type  1   force =     0.00128638    0.00817849    0.00410465
     atom   11 type  2   force =    -0.00312366   -0.00464152   -0.01264238
     atom   12 type  2   force =    -0.00487922    0.00103747    0.00129431
     atom   13 type  1   force =     0.00171606    0.00148118   -0.00054932
     atom   14 type  2   force =     0.00064077    0.00296236    0.00431865
     atom   15 type  2   force =    -0.00492660    0.00031223   -0.00403337
     atom   16 type  1   force =    -0.00187669    0.00312174    0.00269015
     atom   17 type  2   force =     0.00188970    0.00166430    0.00567820
     atom   18 type  2   force =    -0.00177792   -0.00022017    0.00556661
     atom   19 type  1   force =     0.00073869   -0.00818189    0.00160577
     atom   20 type  2   force =     0.00589782   -0.00469287   -0.00223295
     atom   21 type  1   force =     0.00046927    0.00361660    0.00590721
     atom   22 type  2   force =    -0.00083449   -0.00474108   -0.00471048
     atom   23 type  2   force =     0.00361608   -0.00096727    0.00465190
     atom   24 type  1   force =    -0.00247922   -0.00001144   -0.00143008
     atom   25 type  2   force =     0.00583275    0.00900207   -0.00346481
     atom   26 type  2   force =    -0.00219446   -0.00110510   -0.00315165
     atom   27 type  1   force =    -0.00104276    0.00067306    0.00382171
     atom   28 type  2   force =     0.00103527   -0.00403801   -0.00368507
     atom   29 type  2   force =     0.00316167    0.00199875   -0.00388950
     atom   30 type  1   force =    -0.00065406   -0.00350580    0.00462741
     atom   31 type  2   force =    -0.00044319   -0.00132113    0.00824908
     atom   32 type  2   force =    -0.00564000    0.00322307    0.00348053
     atom   33 type  1   force =     0.00060945    0.00155990    0.00363303
     atom   34 type  2   force =    -0.00173352   -0.01469593   -0.01640828
     atom   35 type  2   force =     0.00264621    0.00560374   -0.00354087
     atom   36 type  3   force =    -0.01170235   -0.00207127    0.01485893
     The non-local contrib.  to forces
     atom    1 type  1   force =     0.00174217    0.02764037   -0.01346877
     atom    2 type  2   force =    -0.00766678   -0.00376682   -0.24648666
     atom    3 type  2   force =    -0.00602798   -0.00713828    0.26067264
     atom    4 type  1   force =     0.00079592    0.00711734    0.00136015
     atom    5 type  2   force =     0.00756881   -0.03341539   -0.25360073
     atom    6 type  2   force =    -0.00167994    0.00345764    0.26686702
     atom    7 type  1   force =    -0.03626047    0.00771366   -0.02582034
     atom    8 type  2   force =     0.00977318   -0.01044039   -0.25439538
     atom    9 type  2   force =    -0.00201551   -0.00754960    0.27258146
     atom   10 type  1   force =     0.00848945    0.00499641   -0.00015883
     atom   11 type  2   force =     0.19009237    0.17284163    0.01404900
     atom   12 type  2   force =    -0.00922189   -0.01770259    0.26601101
     atom   13 type  1   force =     0.00200275    0.02486540   -0.00278326
     atom   14 type  2   force =     0.01133514   -0.01187228   -0.26368858
     atom   15 type  2   force =    -0.00701512   -0.01055593    0.26277165
     atom   16 type  1   force =     0.00372198    0.04394810   -0.02738465
     atom   17 type  2   force =     0.00034682   -0.02669604   -0.25063541
     atom   18 type  2   force =    -0.00322583    0.00092378    0.26749505
     atom   19 type  1   force =     0.02643575    0.00106728   -0.01662663
     atom   20 type  2   force =     0.00196895   -0.01889605    0.26218542
     atom   21 type  1   force =     0.00730353    0.02104891   -0.00857603
     atom   22 type  2   force =    -0.01013265   -0.00390934   -0.25781321
     atom   23 type  2   force =     0.00945702   -0.01979635    0.27039589
     atom   24 type  1   force =     0.00394788    0.02178808   -0.01091623
     atom   25 type  2   force =     0.00163628   -0.00215204   -0.26540250
     atom   26 type  2   force =     0.00242405   -0.01071709    0.26612251
     atom   27 type  1   force =     0.00049994    0.01027781    0.00737681
     atom   28 type  2   force =    -0.00390039   -0.02500655   -0.27366002
     atom   29 type  2   force =     0.00680309    0.00037090    0.26424535
     atom   30 type  1   force =     0.00136550    0.01924283    0.00853034
     atom   31 type  2   force =    -0.01257808    0.00039322   -0.25716828
     atom   32 type  2   force =    -0.00095655   -0.01089982    0.26937556
     atom   33 type  1   force =    -0.00087351    0.00679249    0.00073779
     atom   34 type  2   force =    -0.00069906   -0.01351191   -0.26443074
     atom   35 type  2   force =     0.00232764   -0.00877786    0.26193897
     atom   36 type  3   force =    -0.03323188   -0.02920096   -0.03750633
     The ionic contribution  to forces
     atom    1 type  1   force =    -0.24037103    1.07996502    5.63132652
     atom    2 type  2   force =    -0.10832213    0.51328336   39.25659125
     atom    3 type  2   force =    -0.15296586    0.25761493  -36.55746249
     atom    4 type  1   force =    -0.16184407    0.54576376    0.75333965
     atom    5 type  2   force =    -0.98358097    1.55516432   38.51537732
     atom    6 type  2   force =     0.19584270   -0.52557686  -37.80448126
     atom    7 type  1   force =    -3.14639127   -2.08369427    2.27871088
     atom    8 type  2   force =    -1.05430254   -0.04557896   37.57852594
     atom    9 type  2   force =     0.36035277   -0.19186680  -37.99757397
     atom   10 type  1   force =    -0.85695309   -0.57201890    2.88899913
     atom   11 type  2   force =    -1.48329138   -2.63652785   38.00229253
[...]
     atom   27 type  1   force =    -0.00007543    0.01186335    0.00293483
     atom   28 type  2   force =    -0.00152194   -0.01503107   -0.27011921
     atom   29 type  2   force =     0.00101100   -0.01118774    0.26488273
     atom   30 type  1   force =     0.00479317    0.01424622    0.00808293
     atom   31 type  2   force =    -0.01063631    0.00179352   -0.26478260
     atom   32 type  2   force =     0.00225242   -0.01509226    0.26661581
     atom   33 type  1   force =     0.00013021    0.00546004    0.00214243
     atom   34 type  2   force =    -0.00839862   -0.00491427   -0.26486603
     atom   35 type  2   force =    -0.00051047   -0.00931625    0.26665292
     atom   36 type  3   force =     0.00254524   -0.01334700   -0.05897094
     The ionic contribution  to forces
     atom    1 type  1   force =    -0.00073062    0.80463334    2.09712934
     atom    2 type  2   force =    -0.14012713    0.25502756   38.93369574
     atom    3 type  2   force =     0.04888306   -0.13353057  -37.60638760
     atom    4 type  1   force =    -0.68725009    1.00682588    1.01237546
     atom    5 type  2   force =    -0.83886748    1.46647373   38.19579112
     atom    6 type  2   force =     0.19133037   -0.07313659  -37.92057157
     atom    7 type  1   force =    -2.50779139   -2.61010201    2.04085573
     atom    8 type  2   force =    -1.32352498    0.07566397   37.95157109
     atom    9 type  2   force =     0.24615212    0.06761833  -37.67061368
     atom   10 type  1   force =    -0.18328651   -0.76509525    3.25509921
     atom   11 type  2   force =    -0.38011601   -1.97992014   36.37891071
     atom   12 type  2   force =     0.23058066    0.18951712  -37.74212131
     atom   13 type  1   force =     0.05376621    0.47314372    1.82314615
     atom   14 type  2   force =    -0.08532647    0.11986493   38.61991345
     atom   15 type  2   force =     0.00089352   -0.16847964  -37.84726271
     atom   16 type  1   force =     0.92817228    3.91229646    1.47802446
     atom   17 type  2   force =     0.87628175    1.22334270   38.61409130
     atom   18 type  2   force =    -0.24804872   -0.23594150  -38.39151774
     atom   19 type  1   force =     2.70588148   -1.28708325    3.50288741
     atom   20 type  2   force =     0.12063873    0.10079754  -38.46080185
     atom   21 type  1   force =    -0.47772813   -0.84612487    0.67306122
     atom   22 type  2   force =     0.38910660   -1.54782984   38.30787422
     atom   23 type  2   force =    -0.20264260    0.02599911  -37.56113069
     atom   24 type  1   force =     0.03500710    0.30301235    2.21217614
     atom   25 type  2   force =     0.18409037    0.00124675   38.82386804
     atom   26 type  2   force =    -0.09621534   -0.23626787  -37.59784363
     atom   27 type  1   force =    -0.01557156    0.76163968    0.60739189
     atom   28 type  2   force =    -0.07498820    0.59624684   38.39881312
     atom   29 type  2   force =    -0.05770164   -0.00266793  -37.79341966
     atom   30 type  1   force =    -0.06586580   -0.66919957    2.04509167
     atom   31 type  2   force =     1.09275710    0.23262396   38.32787245
     atom   32 type  2   force =    -0.31773850    0.22589766  -37.74000426
     atom   33 type  1   force =     0.65430058   -0.77780378    2.91980863
     atom   34 type  2   force =     0.08206862   -0.62720914   38.90313252
     atom   35 type  2   force =    -0.02662942    0.02532738  -37.42685808
     atom   36 type  3   force =    -0.10975995    0.09319297    8.63595172
     The local contribution  to forces
     atom    1 type  1   force =     0.00199380   -0.83315192   -2.08896448
     atom    2 type  2   force =     0.14214892   -0.23754440  -38.69644690
     atom    3 type  2   force =    -0.04687254    0.14500843   37.35956613
     atom    4 type  1   force =     0.68513966   -1.01125489   -1.01307692
     atom    5 type  2   force =     0.83176418   -1.44495889  -37.96423117
     atom    6 type  2   force =    -0.18878625    0.08017531   37.67524449
     atom    7 type  1   force =     2.54202017    2.61545710   -2.02910283
     atom    8 type  2   force =     1.32270041   -0.07522578  -37.71340291
     atom    9 type  2   force =    -0.23746276   -0.05594331   37.41798456
     atom   10 type  1   force =     0.17129311    0.75862671   -3.25159821
     atom   11 type  2   force =     0.39092785    1.88637973  -36.61573962
     atom   12 type  2   force =    -0.22503885   -0.17770075   37.48932692
     atom   13 type  1   force =    -0.05503433   -0.50176877   -1.82145434
     atom   14 type  2   force =     0.08248198   -0.10549298  -38.38451607
     atom   15 type  2   force =    -0.00090114    0.17718690   37.60582818
     atom   16 type  1   force =    -0.93773003   -3.95737510   -1.45797419
     atom   17 type  2   force =    -0.87344787   -1.19822355  -38.37890860
     atom   18 type  2   force =     0.25059159    0.24238287   38.15176951
     atom   19 type  1   force =    -2.74287431    1.29321479   -3.47685144
     atom   20 type  2   force =    -0.12271242   -0.08929862   38.21946009
     atom   21 type  1   force =     0.48334582    0.82739887   -0.66805763
     atom   22 type  2   force =    -0.38979595    1.54816703  -38.07174976
     atom   23 type  2   force =     0.19181296   -0.01744763   37.31333294
     atom   24 type  1   force =    -0.03839290   -0.32859496   -2.21181927
     atom   25 type  2   force =    -0.18377776    0.01038852  -38.58018661
     atom   26 type  2   force =     0.09391307    0.24671241   37.35082783
     atom   27 type  1   force =     0.01557978   -0.77324195   -0.61081525
     atom   28 type  2   force =     0.07728696   -0.58232047  -38.14989226
     atom   29 type  2   force =     0.05759785    0.01246846   37.54957187
     atom   30 type  1   force =     0.06101034    0.65584141   -2.05303731
     atom   31 type  2   force =    -1.08181364   -0.23521373  -38.08390115
     atom   32 type  2   force =     0.31592604   -0.21150372   37.49291198
     atom   33 type  1   force =    -0.65382347    0.77194873   -2.92153574
     atom   34 type  2   force =    -0.07468190    0.63226537  -38.65987256
     atom   35 type  2   force =     0.02702123   -0.01582060   37.18162882
     atom   36 type  3   force =     0.10648581   -0.07917300   -8.57574972
     The core correction contribution to forces
     atom    1 type  1   force =     0.00000000    0.00000000    0.00000000
     atom    2 type  2   force =     0.00013301    0.00124235    0.02028996
     atom    3 type  2   force =     0.00015672    0.00063768   -0.02104704
     atom    4 type  1   force =     0.00000000    0.00000000    0.00000000
     atom    5 type  2   force =    -0.00064828    0.00113233    0.02013796
     atom    6 type  2   force =     0.00010183    0.00007575   -0.02077750
     atom    7 type  1   force =     0.00000000    0.00000000    0.00000000
     atom    8 type  2   force =    -0.00010508    0.00003140    0.02029875
     atom    9 type  2   force =     0.00065193    0.00056403   -0.02101834
     atom   10 type  1   force =     0.00000000    0.00000000    0.00000000
     atom   11 type  2   force =     0.00087185   -0.00632295   -0.00937303
     atom   12 type  2   force =     0.00054599    0.00082424   -0.02121673
     atom   13 type  1   force =     0.00000000    0.00000000    0.00000000
     atom   14 type  2   force =    -0.00030575    0.00089453    0.02023894
     atom   15 type  2   force =     0.00007440    0.00060794   -0.02070399
     atom   16 type  1   force =     0.00000000    0.00000000    0.00000000
     atom   17 type  2   force =     0.00036856    0.00112914    0.02040319
     atom   18 type  2   force =    -0.00011230   -0.00008011   -0.02072576
     atom   19 type  1   force =     0.00000000    0.00000000    0.00000000
     atom   20 type  2   force =    -0.00002117    0.00039640   -0.02116017
     atom   21 type  1   force =     0.00000000    0.00000000    0.00000000
     atom   22 type  2   force =    -0.00035464   -0.00030157    0.02005334
     atom   23 type  2   force =    -0.00075724    0.00041209   -0.02082961
     atom   24 type  1   force =     0.00000000    0.00000000    0.00000000
     atom   25 type  2   force =     0.00011197    0.00066611    0.02062669
     atom   26 type  2   force =    -0.00014840    0.00043478   -0.02095070
     atom   27 type  1   force =     0.00000000    0.00000000    0.00000000
     atom   28 type  2   force =     0.00011907    0.00100809    0.02098435
     atom   29 type  2   force =    -0.00007216    0.00037792   -0.02073707
     atom   30 type  1   force =     0.00000000    0.00000000    0.00000000
     atom   31 type  2   force =     0.00050282    0.00014860    0.02068500
     atom   32 type  2   force =    -0.00036110    0.00078482   -0.02081470
     atom   33 type  1   force =     0.00000000    0.00000000    0.00000000
     atom   34 type  2   force =     0.00059214    0.00008349    0.02070657
     atom   35 type  2   force =    -0.00001886    0.00053893   -0.02100558
     atom   36 type  3   force =     0.00000000    0.00000000    0.00000000
     The Hubbard contrib.    to forces
     atom    1 type  1   force =     0.00000000    0.00000000    0.00000000
     atom    2 type  2   force =     0.00000000    0.00000000    0.00000000
     atom    3 type  2   force =     0.00000000    0.00000000    0.00000000
     atom    4 type  1   force =     0.00000000    0.00000000    0.00000000
     atom    5 type  2   force =     0.00000000    0.00000000    0.00000000
     atom    6 type  2   force =     0.00000000    0.00000000    0.00000000
     atom    7 type  1   force =     0.00000000    0.00000000    0.00000000
     atom    8 type  2   force =     0.00000000    0.00000000    0.00000000
     atom    9 type  2   force =     0.00000000    0.00000000    0.00000000
     atom   10 type  1   force =     0.00000000    0.00000000    0.00000000
     atom   11 type  2   force =     0.00000000    0.00000000    0.00000000
     atom   12 type  2   force =     0.00000000    0.00000000    0.00000000
     atom   13 type  1   force =     0.00000000    0.00000000    0.00000000
     atom   14 type  2   force =     0.00000000    0.00000000    0.00000000
     atom   15 type  2   force =     0.00000000    0.00000000    0.00000000
     atom   16 type  1   force =     0.00000000    0.00000000    0.00000000
     atom   17 type  2   force =     0.00000000    0.00000000    0.00000000
     atom   18 type  2   force =     0.00000000    0.00000000    0.00000000
     atom   19 type  1   force =     0.00000000    0.00000000    0.00000000
     atom   20 type  2   force =     0.00000000    0.00000000    0.00000000
     atom   21 type  1   force =     0.00000000    0.00000000    0.00000000
     atom   22 type  2   force =     0.00000000    0.00000000    0.00000000
     atom   23 type  2   force =     0.00000000    0.00000000    0.00000000
     atom   24 type  1   force =     0.00000000    0.00000000    0.00000000
     atom   25 type  2   force =     0.00000000    0.00000000    0.00000000
     atom   26 type  2   force =     0.00000000    0.00000000    0.00000000
     atom   27 type  1   force =     0.00000000    0.00000000    0.00000000
     atom   28 type  2   force =     0.00000000    0.00000000    0.00000000
     atom   29 type  2   force =     0.00000000    0.00000000    0.00000000
     atom   30 type  1   force =     0.00000000    0.00000000    0.00000000
     atom   31 type  2   force =     0.00000000    0.00000000    0.00000000
     atom   32 type  2   force =     0.00000000    0.00000000    0.00000000
     atom   33 type  1   force =     0.00000000    0.00000000    0.00000000
     atom   34 type  2   force =     0.00000000    0.00000000    0.00000000
     atom   35 type  2   force =     0.00000000    0.00000000    0.00000000
     atom   36 type  3   force =     0.00000000    0.00000000    0.00000000
     The SCF correction term to forces
     atom    1 type  1   force =     0.00000350    0.00000340   -0.00006288
     atom    2 type  2   force =    -0.00000280    0.00001145   -0.00003048
     atom    3 type  2   force =     0.00000007   -0.00001265   -0.00001997
     atom    4 type  1   force =    -0.00001203    0.00000680   -0.00002540
     atom    5 type  2   force =     0.00000430    0.00000566   -0.00002494
     atom    6 type  2   force =    -0.00000504   -0.00000239    0.00000278
     atom    7 type  1   force =    -0.00001567    0.00002100   -0.00006559
     atom    8 type  2   force =     0.00000105   -0.00000805   -0.00001840
     atom    9 type  2   force =    -0.00000703    0.00001125   -0.00000590
     atom   10 type  1   force =    -0.00002478   -0.00001064   -0.00008875
     atom   11 type  2   force =    -0.00000550   -0.00000433   -0.00004374
     atom   12 type  2   force =    -0.00000146    0.00000140   -0.00001036
     atom   13 type  1   force =     0.00001104   -0.00001202   -0.00006664
     atom   14 type  2   force =    -0.00000271    0.00000635   -0.00002865
     atom   15 type  2   force =     0.00000393   -0.00000964   -0.00001515
     atom   16 type  1   force =     0.00001373    0.00001707   -0.00003774
     atom   17 type  2   force =    -0.00000804    0.00000998   -0.00000554
     atom   18 type  2   force =     0.00000481   -0.00000708   -0.00000582
     atom   19 type  1   force =     0.00001771    0.00000391   -0.00003121
     atom   20 type  2   force =     0.00001132    0.00001281    0.00000658
     atom   21 type  1   force =     0.00003184   -0.00002526   -0.00007798
     atom   22 type  2   force =     0.00000479   -0.00001382   -0.00003048
     atom   23 type  2   force =     0.00000874   -0.00000466   -0.00000031
     atom   24 type  1   force =    -0.00000711    0.00001279   -0.00007975
     atom   25 type  2   force =     0.00000385    0.00001298   -0.00002990
     atom   26 type  2   force =    -0.00000729   -0.00000146   -0.00001097
     atom   27 type  1   force =    -0.00001390    0.00000573   -0.00000139
     atom   28 type  2   force =     0.00000332    0.00000696   -0.00001021
     atom   29 type  2   force =     0.00000041   -0.00001179   -0.00000533
     atom   30 type  1   force =     0.00000360   -0.00001106   -0.00003877
     atom   31 type  2   force =    -0.00000058   -0.00000800   -0.00001050
     atom   32 type  2   force =    -0.00000200    0.00001024    0.00000333
     atom   33 type  1   force =     0.00001247   -0.00000522   -0.00007129
     atom   34 type  2   force =     0.00000310   -0.00000945   -0.00002723
     atom   35 type  2   force =    -0.00000974    0.00000653   -0.00001657
     atom   36 type  3   force =    -0.00000148   -0.00000183   -0.00000292

     Total force =     0.006277     Total SCF correction =     0.000243
     Energy error            =      8.5E-05 Ry
     Gradient error          =      1.9E-03 Ry/Bohr

     bfgs converged in  25 scf cycles and  24 bfgs steps
     (criteria: energy <  1.0E-04 Ry, force <  1.0E-02 Ry/Bohr)

     End of BFGS Geometry Optimization

     Final energy             =   -2205.5973024160 Ry

     File ./MoS2-V-O.bfgs deleted, as requested
Begin final coordinates

ATOMIC_POSITIONS (angstrom)
Mo            6.5880710591        1.7690560897        2.7511602595
S             8.1675721051        0.8878705447        4.3738346245
S             8.1782515621        0.8594625624        1.1710515844
Mo            8.1481935007        4.4917039588        2.7185629130
S             6.5274571079        3.6722779167        4.3000128624
S             6.5834509734        3.5743006921        1.1126984174
Mo            6.5408177033        7.2205055140        2.6629582648
S             8.1125509521        6.3106697677        4.2937707170
S             8.1668628185        6.3262657483        1.1177402562
Mo            8.1850158626        9.9723622981        2.7837765518
S             6.5486711758        8.9969106138        4.2756277862
S             6.6225783529        9.0704116086        1.1398795338
Mo            3.4485374904        1.7726857814        2.7459241620
S             5.0111073627        0.8568056696        4.3430431038
S             5.0230363855        0.8633791089        1.1503896779
Mo            4.9794612066        4.5225811728        2.6484546218
S             3.4670387264        3.6633485400        4.3177043606
S             3.4390385448        3.5700814129        1.0941192911
Mo            3.5146731545        7.1597780614        2.6862669822
S             5.0382057530        6.3110890287        1.0517509967
Mo            5.0151050265        9.9549545164        2.7307544049
S             3.4934224164        8.9549611899        4.3285508601
S             3.4363906760        9.0314835812        1.1402335338
Mo            0.2982330051        1.7641046165        2.7649410216
S             1.8883835789        0.8659581396        4.3621640016
S             1.8715447891        0.8473350066        1.1676912681
Mo            1.8782253439        4.4986930791        2.7135890815
S             0.2876038025        3.6181334578        4.3226334541
S             0.2826507494        3.5772342178        1.1397122120
Mo            0.2935499211        7.2294256298        2.7415324676
S             1.9310971545        6.3051379579        4.3131559245
S             1.8798471338        6.3353415576        1.1235360747
Mo            1.8809775268        9.9447665497        2.7724798800
S             0.3116414262        9.0376052317        4.3693249202
S             0.2968794925        9.0593434999        1.1776956005
H             6.4914609497        9.2994998660        5.6196011474
End final coordinates



     Writing all to output data dir ./MoS2-V-O.save/
 
     init_run     :      2.38s CPU      2.65s WALL (       1 calls)
     electrons    :   2262.59s CPU   2511.37s WALL (      25 calls)
     update_pot   :     33.68s CPU     35.50s WALL (      24 calls)
     forces       :     32.58s CPU     37.74s WALL (      25 calls)

     Called by init_run:
     wfcinit      :      0.37s CPU      0.43s WALL (       1 calls)
     potinit      :      1.33s CPU      1.44s WALL (       1 calls)
     hinit0       :      0.16s CPU      0.18s WALL (       1 calls)

     Called by electrons:
     c_bands      :    264.47s CPU    268.48s WALL (     213 calls)
     sum_band     :     60.95s CPU     76.34s WALL (     213 calls)
     v_of_rho     :     87.02s CPU    104.89s WALL (     228 calls)
     newd         :     29.38s CPU     44.17s WALL (     228 calls)
     mix_rho      :   1830.83s CPU   2027.36s WALL (     213 calls)

     Called by c_bands:
     init_us_2    :      4.51s CPU      4.90s WALL (     427 calls)
     init_us_2:cp :      4.51s CPU      4.90s WALL (     427 calls)
     regterg      :    248.82s CPU    252.42s WALL (     213 calls)

     Called by *egterg:
     rdiaghg      :     21.06s CPU     21.32s WALL (    1167 calls)
     h_psi        :    142.22s CPU    143.47s WALL (    1202 calls)
     s_psi        :     18.42s CPU     18.49s WALL (    1202 calls)
     g_psi        :      0.92s CPU      0.93s WALL (     988 calls)

     Called by h_psi:
     h_psi:calbec :     20.36s CPU     20.45s WALL (    1202 calls)
     vloc_psi     :    101.67s CPU    102.69s WALL (    1202 calls)
     add_vuspsi   :     18.10s CPU     18.22s WALL (    1202 calls)

     General routines
     calbec       :     29.01s CPU     29.15s WALL (    1515 calls)
     fft          :     55.89s CPU     66.33s WALL (   15367 calls)
     ffts         :    824.89s CPU   1014.62s WALL (  446629 calls)
     fftw         :     87.18s CPU     87.93s WALL (  131021 calls)
     interpolate  :      1.62s CPU      1.92s WALL (     228 calls)
 
     Parallel routines
 
     PWSCF        :  38m55.60s CPU  43m14.33s WALL

 
   This run was terminated on:  10:36:15   4Nov2023            

=------------------------------------------------------------------------------=
   JOB DONE.
=------------------------------------------------------------------------------=
