
     Program PWSCF v.7.2 starts on  4Nov2023 at 11:11:43 

     This program is part of the open-source Quantum ESPRESSO suite
     for quantum simulation of materials; please cite
         "P. Giannozzi et al., J. Phys.:Condens. Matter 21 395502 (2009);
         "P. Giannozzi et al., J. Phys.:Condens. Matter 29 465901 (2017);
         "P. Giannozzi et al., J. Chem. Phys. 152 154105 (2020);
          URL http://www.quantum-espresso.org", 
     in publications or presentations arising from this work. More details at
     http://www.quantum-espresso.org/quote

     Parallel version (MPI & OpenMP), running on      48 processor cores
     Number of MPI processes:                48
     Threads/MPI process:                     1

     MPI processes distributed on     1 nodes
     17235 MiB available memory on the printing compute node when the environment starts
 
     Waiting for input...
     Reading input from standard input
Warning: card &CELL ignored
Warning: card CELL_DYNAMICS = 'BFGS', ignored
Warning: card CELL_DOFREE = '2DXY' ignored
Warning: card / ignored

     Current dimensions of program PWSCF are:
     Max number of different atomic species (ntypx) = 10
     Max number of k-points (npk) =  40000
     Max angular momentum in pseudopotentials (lmaxx) =  4

     IMPORTANT: XC functional enforced from input :
     Exchange-correlation= RVV10
                           (   1   4  13   4  26   0   0)
     Any further DFT definition will be discarded
     Please, verify this is what you really want


     gamma-point specific algorithms are used
     signal trapping enabled: kill the code with -SIGUSR1 to stop cleanly the simulation 
 
     R & G space division:  proc/nbgrp/npool/nimage =      48
     Subspace diagonalization in iterative solution of the eigenvalue problem:
     one sub-group per band group will be used
     scalapack distributed-memory algorithm (size of sub-group:  2*  2 procs)

 
     Parallelization info
     --------------------
     sticks:   dense  smooth     PW     G-vecs:    dense   smooth      PW
     Min         243     194     47                49060    35090    4376
     Max         246     196     50                49086    35128    4410
     Sum       11735    9389   2349              2355467  1685513  210763
 
     Using Slab Decomposition
 


     bravais-lattice index     =            0
     lattice parameter (alat)  =      17.8707  a.u.
     unit-cell volume          =   17436.2743 (a.u.)^3
     number of atoms/cell      =           36
     number of atomic types    =            3
     number of electrons       =       307.00
     number of Kohn-Sham states=          185
     kinetic-energy cutoff     =      80.0000  Ry
     charge density cutoff     =     400.0000  Ry
     scf convergence threshold =      1.0E-06
     mixing beta               =       0.7000
     number of iterations used =            8  local-TF  mixing
     energy convergence thresh.=      1.0E-04
     force convergence thresh. =      1.0E-02
     Exchange-correlation= RVV10
                           (   1   4  13   4  26   0   0)
     nstep                     =          200


     celldm(1)=  17.870686  celldm(2)=   0.000000  celldm(3)=   0.000000
     celldm(4)=   0.000000  celldm(5)=   0.000000  celldm(6)=   0.000000

     crystal axes: (cart. coord. in units of alat)
               a(1) = (   1.000000   0.000000   0.000000 )  
               a(2) = (   0.000000   1.155671   0.000000 )  
               a(3) = (   0.000000   0.000000   2.643601 )  

     reciprocal axes: (cart. coord. in units 2 pi/alat)
               b(1) = (  1.000000  0.000000  0.000000 )  
               b(2) = (  0.000000  0.865298  0.000000 )  
               b(3) = (  0.000000  0.000000  0.378272 )  


     PseudoPot. # 1 for Mo read from file:
     ../pseudo/Mo_ONCV_PBE-1.0.oncvpsp.upf
     MD5 check sum: 1b5d28e075c9ccadda658a603575cd1f
     Pseudo is Norm-conserving, Zval = 14.0
     Generated using ONCVPSP code by D. R. Hamann
     Using radial grid of 1526 points,  6 beta functions with: 
                l(1) =   0
                l(2) =   0
                l(3) =   1
                l(4) =   1
                l(5) =   2
                l(6) =   2

     PseudoPot. # 2 for S  read from file:
     ../pseudo/s_pbe_v1.4.uspp.F.UPF
     MD5 check sum: 88d86576ff6df21479756cfb9bdac1df
     Pseudo is Ultrasoft + core correction, Zval =  6.0
     Generated by new atomic code, or converted to UPF format
     Using radial grid of  907 points,  6 beta functions with: 
                l(1) =   0
                l(2) =   0
                l(3) =   1
                l(4) =   1
                l(5) =   2
                l(6) =   2
     Q(r) pseudized with  8 coefficients,  rinner =    1.300   1.300   1.300
                                                       1.300   1.300

     PseudoPot. # 3 for H  read from file:
     ../pseudo/H_ONCV_PBE-1.0.oncvpsp.upf
     MD5 check sum: 1790becc920ee074925cf490c71280fe
     Pseudo is Norm-conserving, Zval =  1.0
     Generated using ONCVPSP code by D. R. Hamann
     Using radial grid of 1166 points,  2 beta functions with: 
                l(1) =   0
                l(2) =   0

     atomic species   valence    mass     pseudopotential
        Mo            14.00    95.94000     Mo( 1.00)
        S              6.00    32.06500     S ( 1.00)
        H              1.00     1.00794     H ( 1.00)

     No symmetry found



   Cartesian axes

     site n.     atom                  positions (alat units)
         1           Mo  tau(   1) = (   0.6952221   0.1890506   0.2985846  )
         2           S   tau(   2) = (   0.8646417   0.0856217   0.4689279  )
         3           S   tau(   3) = (   0.8663890   0.0857843   0.1351291  )
         4           Mo  tau(   4) = (   0.8560186   0.4753274   0.2873942  )
         5           S   tau(   5) = (   0.6873294   0.3936244   0.4596353  )
         6           S   tau(   6) = (   0.6929804   0.3713468   0.1185692  )
         7           Mo  tau(   7) = (   0.6862796   0.7633098   0.2825370  )
         8           S   tau(   8) = (   0.8545980   0.6708292   0.4486168  )
         9           S   tau(   9) = (   0.8545123   0.6666874   0.1146125  )
        10           Mo  tau(  10) = (   0.8629403   1.0471007   0.3006803  )
        11           S   tau(  11) = (   0.6868280   0.9456650   0.4634891  )
        12           S   tau(  12) = (   0.6998113   0.9568511   0.1205389  )
        13           Mo  tau(  13) = (   0.3618216   0.1847309   0.2935964  )
        14           S   tau(  14) = (   0.5260962   0.0863870   0.4600448  )
        15           S   tau(  15) = (   0.5348379   0.0894875   0.1297123  )
        16           Mo  tau(  16) = (   0.5265817   0.4772436   0.2784130  )
        17           S   tau(  17) = (   0.3624753   0.3882513   0.4525556  )
        18           S   tau(  18) = (   0.3635411   0.3752055   0.1119148  )
        19           Mo  tau(  19) = (   0.3652268   0.7630864   0.2781795  )
        20           S   tau(  20) = (   0.5269494   0.6690381   0.1096838  )
        21           Mo  tau(  21) = (   0.5300192   1.0470394   0.2900995  )
        22           S   tau(  22) = (   0.3670346   0.9457522   0.4574073  )
        23           S   tau(  23) = (   0.3604225   0.9585725   0.1159032  )
        24           Mo  tau(  24) = (   0.0313099   0.1847895   0.3013130  )
        25           S   tau(  25) = (   0.1956761   0.0838230   0.4650863  )
        26           S   tau(  26) = (   0.1967693   0.0903508   0.1278874  )
        27           Mo  tau(  27) = (   0.1967578   0.4753919   0.2813011  )
        28           S   tau(  28) = (   0.0287851   0.3864324   0.4586755  )
        29           S   tau(  29) = (   0.0244514   0.3729871   0.1239344  )
        30           Mo  tau(  30) = (   0.0286728   0.7631204   0.2856894  )
        31           S   tau(  31) = (   0.2011512   0.6675435   0.4465001  )
        32           S   tau(  32) = (   0.1969214   0.6672839   0.1104564  )
        33           Mo  tau(  33) = (   0.1950294   1.0511147   0.2932237  )
        34           S   tau(  34) = (   0.0312912   0.9612169   0.4667423  )
        35           S   tau(  35) = (   0.0292670   0.9563028   0.1216485  )
        36           H   tau(  36) = (   0.4444444   1.1556707   0.5792558  )

     number of k points=     1  Gaussian smearing, width (Ry)=  0.0100
                       cart. coord. in units 2pi/alat
        k(    1) = (   0.0000000   0.0000000   0.0000000), wk =   2.0000000

     Dense  grid:  1177734 G-vectors     FFT dimensions: ( 120, 135, 320)

     Smooth grid:   842757 G-vectors     FFT dimensions: ( 108, 120, 270)

     Estimated max dynamical RAM per process >     146.59 MB

     Estimated total dynamical RAM >       6.87 GB

     Initial potential from superposition of free atoms

     starting charge     306.9873, renormalised to     307.0000

     negative rho (up, down):  1.406E-04 0.000E+00


---------------------------------------------------------------------------------
Carrying out rVV10 run using the following parameters:
Nqs =      20    Nr_points =    1024   r_max =   100.000
b_value =  6.30000    beta =  0.00901
     q_mesh =  0.00010000  0.00030000  0.00058939  0.00100810
               0.00161396  0.00249058  0.00375900  0.00559430
               0.00824984  0.01209221  0.01765183  0.02569619
               0.03733578  0.05417739  0.07854596  0.11380545
               0.16482331  0.23864234  0.34545298  0.50000000

Gradients computed in Reciprocal space

---------------------------------------------------------------------------------


     Starting wfcs are  213 randomized atomic wfcs

     total cpu time spent up to now is        2.8 secs

     Self-consistent Calculation

     iteration #  1     ecut=    80.00 Ry     beta= 0.70
     Davidson diagonalization with overlap
     ethr =  1.00E-02,  avg # of iterations =  2.0

     Threshold (ethr) on eigenvalues was too large:
     Diagonalizing with lowered threshold

     Davidson diagonalization with overlap
     ethr =  3.98E-04,  avg # of iterations =  4.0

     negative rho (up, down):  1.947E-08 0.000E+00

     total cpu time spent up to now is       18.5 secs

     total energy              =   -2205.59974573 Ry
     estimated scf accuracy    <       1.51569824 Ry

     iteration #  2     ecut=    80.00 Ry     beta= 0.70
     Davidson diagonalization with overlap
     ethr =  4.94E-04,  avg # of iterations =  3.0

     total cpu time spent up to now is       21.0 secs

     total energy              =   -2205.48782669 Ry
     estimated scf accuracy    <       0.59117967 Ry

     iteration #  3     ecut=    80.00 Ry     beta= 0.70
     Davidson diagonalization with overlap
     ethr =  1.93E-04,  avg # of iterations =  2.0

     total cpu time spent up to now is       23.4 secs

     total energy              =   -2205.51405128 Ry
     estimated scf accuracy    <       0.21850753 Ry

     iteration #  4     ecut=    80.00 Ry     beta= 0.70
     Davidson diagonalization with overlap
     ethr =  7.12E-05,  avg # of iterations =  8.0

     total cpu time spent up to now is       26.0 secs

     total energy              =   -2205.53791835 Ry
     estimated scf accuracy    <       0.04018162 Ry

     iteration #  5     ecut=    80.00 Ry     beta= 0.70
     Davidson diagonalization with overlap
     c_bands:  1 eigenvalues not converged
     ethr =  1.31E-05,  avg # of iterations = 20.0

     total cpu time spent up to now is       29.0 secs

     total energy              =   -2205.53940718 Ry
     estimated scf accuracy    <       0.02030746 Ry

     iteration #  6     ecut=    80.00 Ry     beta= 0.70
     Davidson diagonalization with overlap
     ethr =  6.61E-06,  avg # of iterations =  2.0

     total cpu time spent up to now is       31.2 secs

     total energy              =   -2205.53789997 Ry
     estimated scf accuracy    <       0.01419181 Ry

     iteration #  7     ecut=    80.00 Ry     beta= 0.70
     Davidson diagonalization with overlap
     ethr =  4.62E-06,  avg # of iterations =  2.0

     total cpu time spent up to now is       34.5 secs

     total energy              =   -2205.53646302 Ry
     estimated scf accuracy    <       0.00744175 Ry

     iteration #  8     ecut=    80.00 Ry     beta= 0.70
     Davidson diagonalization with overlap
     ethr =  2.42E-06,  avg # of iterations =  2.0

     negative rho (up, down):  9.803E-03 0.000E+00

     total cpu time spent up to now is       38.9 secs

     total energy              =   -2205.53587959 Ry
     estimated scf accuracy    <       0.00399303 Ry

     iteration #  9     ecut=    80.00 Ry     beta= 0.70
     Davidson diagonalization with overlap
     ethr =  1.30E-06,  avg # of iterations =  5.0

     negative rho (up, down):  3.015E-02 0.000E+00

     total cpu time spent up to now is       44.2 secs

     total energy              =   -2205.53578673 Ry
     estimated scf accuracy    <       0.00235740 Ry

     iteration # 10     ecut=    80.00 Ry     beta= 0.70
     Davidson diagonalization with overlap
     ethr =  7.68E-07,  avg # of iterations =  2.0

     negative rho (up, down):  3.024E-02 0.000E+00

     total cpu time spent up to now is       49.1 secs

     total energy              =   -2205.53592986 Ry
     estimated scf accuracy    <       0.00076623 Ry

     iteration # 11     ecut=    80.00 Ry     beta= 0.70
     Davidson diagonalization with overlap
     c_bands:  1 eigenvalues not converged
     ethr =  2.50E-07,  avg # of iterations = 20.0

     negative rho (up, down):  1.492E-02 0.000E+00

     total cpu time spent up to now is       55.7 secs

     total energy              =   -2205.53593899 Ry
     estimated scf accuracy    <       0.00016870 Ry

     iteration # 12     ecut=    80.00 Ry     beta= 0.70
     Davidson diagonalization with overlap
     ethr =  5.49E-08,  avg # of iterations = 16.0

     negative rho (up, down):  3.902E-03 0.000E+00

     total cpu time spent up to now is       63.3 secs

     total energy              =   -2205.53599698 Ry
     estimated scf accuracy    <       0.00004414 Ry

     iteration # 13     ecut=    80.00 Ry     beta= 0.70
     Davidson diagonalization with overlap
     ethr =  1.44E-08,  avg # of iterations = 14.0

     negative rho (up, down):  8.957E-04 0.000E+00

     total cpu time spent up to now is       72.6 secs

     total energy              =   -2205.53601026 Ry
     estimated scf accuracy    <       0.00000478 Ry

     iteration # 14     ecut=    80.00 Ry     beta= 0.70
     Davidson diagonalization with overlap
     ethr =  1.56E-09,  avg # of iterations =  6.0

     negative rho (up, down):  1.368E-04 0.000E+00

     total cpu time spent up to now is       75.0 secs

     End of self-consistent calculation

          k = 0.0000 0.0000 0.0000 (105382 PWs)   bands (ev):

   -62.8551 -62.8485 -62.8351 -62.8292 -62.8199 -62.8153 -62.7980 -62.7869
   -62.7662 -62.7557 -62.7162 -62.6898 -37.2088 -37.1355 -37.1259 -37.1183
   -37.1140 -37.0835 -37.0659 -37.0484 -37.0451 -37.0338 -37.0300 -37.0247
   -37.0158 -37.0107 -37.0002 -36.9991 -36.9915 -36.9843 -36.9813 -36.9703
   -36.9398 -36.9261 -36.9168 -36.9071 -36.8937 -36.8870 -36.8749 -36.8731
   -36.8537 -36.8490 -36.8425 -36.8242 -36.8200 -36.7809 -36.7035 -36.6698
   -16.0638 -15.4330 -15.1590 -15.0036 -14.9471 -14.8455 -14.5730 -14.4836
   -14.4514 -14.4256 -14.3751 -14.3428 -14.3156 -14.2662 -14.1411 -14.1116
   -14.0916 -14.0774 -14.0433 -13.8852 -13.8183 -13.7908 -13.7693  -8.3541
    -7.6137  -7.3936  -7.2754  -7.2663  -7.2146  -7.1901  -7.1095  -7.0594
    -6.8266  -6.7509  -6.7150  -6.6524  -6.5840  -6.5174  -6.4420  -6.3915
    -6.3245  -6.2543  -6.1487  -5.9613  -5.9179  -5.8887  -5.7966  -5.7811
    -5.7335  -5.7204  -5.6538  -5.6385  -5.5964  -5.5656  -5.5108  -5.4280
    -5.4159  -5.3523  -5.2336  -5.1094  -5.0247  -4.9853  -4.9716  -4.9221
    -4.8915  -4.8126  -4.6884  -4.5136  -4.4457  -4.3212  -4.2875  -4.2223
    -4.1881  -4.0907  -4.0224  -3.9680  -3.8217  -3.7611  -3.6978  -3.6735
    -3.6128  -3.5278  -3.5032  -3.4713  -3.4549  -3.4409  -3.4128  -3.3964
    -3.3564  -3.2301  -3.1191  -2.9040  -2.8723  -2.7822  -2.7423  -2.7276
    -2.7048  -2.6860  -2.6229  -2.6055  -2.5379  -2.2665  -2.0306  -1.9718
    -1.8928  -0.8914  -0.7500  -0.6541  -0.1666  -0.1199  -0.0963   0.0016
     0.0458   0.1497   0.1825   0.2245   0.2497   0.2851   0.4374   0.4877
     0.5173   0.5570   0.5694   0.6003   0.6325   0.6780   0.7387   0.7627
     0.7808   0.8130   0.8677   0.8943   0.9745   0.9806   1.0713   1.2399
     1.3966

     the Fermi energy is    -0.9053 ev

!    total energy              =   -2205.53601460 Ry
     estimated scf accuracy    <       0.00000059 Ry
     smearing contrib. (-TS)   =      -0.00730103 Ry
     internal energy E=F+TS    =   -2205.52871357 Ry

     The total energy is F=E-TS. E is the sum of the following terms:
     one-electron contribution =  -18044.52758164 Ry
     hartree contribution      =    9009.19161900 Ry
     xc contribution           =    -385.25944375 Ry
     ewald contribution        =    7215.06669281 Ry

     convergence has been achieved in  14 iterations

     negative rho (up, down):  1.368E-04 0.000E+00

     Forces acting on atoms (cartesian axes, Ry/au):

     atom    1 type  1   force =     0.03575117   -0.00340899   -0.01652724
     atom    2 type  2   force =    -0.01021791    0.01686119    0.00080467
     atom    3 type  2   force =    -0.01263159    0.00719721   -0.00416890
     atom    4 type  1   force =     0.00729765    0.00214338    0.00118648
     atom    5 type  2   force =     0.00005995   -0.00375426   -0.00232643
     atom    6 type  2   force =     0.00107806    0.00728814    0.00008768
     atom    7 type  1   force =     0.00216376   -0.01467344   -0.00750304
     atom    8 type  2   force =     0.00126061   -0.00453799    0.01646825
     atom    9 type  2   force =     0.01298922    0.00598635    0.01150660
     atom   10 type  1   force =    -0.01247517    0.00976590   -0.02648842
     atom   11 type  2   force =     0.00576680   -0.00222413   -0.00480327
     atom   12 type  2   force =     0.00100606    0.00169156    0.00474496
     atom   13 type  1   force =     0.00539959    0.00194622   -0.00051077
     atom   14 type  2   force =    -0.04466909   -0.04324693    0.05756036
     atom   15 type  2   force =    -0.01153584    0.00252387   -0.00968832
     atom   16 type  1   force =     0.00291001    0.00348621    0.00059050
     atom   17 type  2   force =     0.00482959    0.00428658    0.00102792
     atom   18 type  2   force =    -0.00447364   -0.00404490    0.01390626
     atom   19 type  1   force =     0.00959606   -0.00378091   -0.00743307
     atom   20 type  2   force =     0.00183566   -0.00491222    0.00167730
     atom   21 type  1   force =    -0.00732860   -0.00025738   -0.00847799
     atom   22 type  2   force =     0.00057727    0.00830264    0.00213321
     atom   23 type  2   force =    -0.00050927    0.00150622    0.00789875
     atom   24 type  1   force =    -0.01231747    0.00049879   -0.02060255
     atom   25 type  2   force =     0.01656861    0.01762623    0.00601386
     atom   26 type  2   force =    -0.01018721   -0.00022860   -0.00432278
     atom   27 type  1   force =    -0.00462309   -0.00629018    0.00733478
     atom   28 type  2   force =     0.00034311   -0.00057762   -0.00534509
     atom   29 type  2   force =     0.00219602   -0.00031945   -0.00248829
     atom   30 type  1   force =    -0.00323255    0.01236612   -0.00562142
     atom   31 type  2   force =     0.00009041   -0.00135758    0.01548123
     atom   32 type  2   force =    -0.00833761    0.00591702    0.00840712
     atom   33 type  1   force =     0.01547889   -0.00546167   -0.00758214
     atom   34 type  2   force =     0.00240294   -0.04333522   -0.00983103
     atom   35 type  2   force =    -0.00893300    0.00641829    0.01435869
     atom   36 type  3   force =     0.02187056    0.02659958   -0.02746786
     The non-local contrib.  to forces
     atom    1 type  1   force =    -0.00979596    0.01881953   -0.01644216
     atom    2 type  2   force =    -0.00245346    0.00227170   -0.25975968
     atom    3 type  2   force =    -0.01557367   -0.00183723    0.27176912
     atom    4 type  1   force =     0.00248259    0.00736640    0.00543321
     atom    5 type  2   force =     0.00732874   -0.02853681   -0.25082324
     atom    6 type  2   force =     0.00128434    0.00746835    0.26523453
     atom    7 type  1   force =    -0.02264604   -0.00189655   -0.01934867
     atom    8 type  2   force =     0.00485773   -0.00378810   -0.25533922
     atom    9 type  2   force =     0.00651318   -0.00941573    0.27546141
     atom   10 type  1   force =     0.00391618   -0.00175688   -0.00050230
     atom   11 type  2   force =     0.01055664    0.00563498   -0.25621768
     atom   12 type  2   force =    -0.01348663   -0.01586421    0.26369999
     atom   13 type  1   force =     0.00170683    0.02239145   -0.00954681
     atom   14 type  2   force =    -0.15801166   -0.16648546    0.04226419
     atom   15 type  2   force =    -0.01619337   -0.00770691    0.26440810
     atom   16 type  1   force =    -0.00222103    0.03911118   -0.02414108
     atom   17 type  2   force =     0.00233039   -0.03086131   -0.24745485
     atom   18 type  2   force =    -0.00458955   -0.00449665    0.27367151
     atom   19 type  1   force =     0.01284451   -0.00727930   -0.01840796
     atom   20 type  2   force =    -0.00052237   -0.02135192    0.26615213
     atom   21 type  1   force =     0.00527923    0.01983046    0.00740261
     atom   22 type  2   force =    -0.00565644    0.02276713   -0.21927276
     atom   23 type  2   force =     0.00758019   -0.01372004    0.26813830
     atom   24 type  1   force =     0.00757481    0.01572800   -0.00974319
     atom   25 type  2   force =     0.01712230    0.00609796   -0.25059652
     atom   26 type  2   force =     0.00111810   -0.01284741    0.26336329
     atom   27 type  1   force =    -0.00367176    0.01043149    0.00931281
     atom   28 type  2   force =    -0.00362411   -0.02417470   -0.27459624
     atom   29 type  2   force =     0.00645866    0.00198750    0.26394158
     atom   30 type  1   force =    -0.00077013    0.01564066    0.01042144
     atom   31 type  2   force =    -0.00913452   -0.00037336   -0.25270241
     atom   32 type  2   force =    -0.00369107   -0.01133550    0.27361259
     atom   33 type  1   force =    -0.00612065    0.00760343    0.00603808
     atom   34 type  2   force =    -0.00002874   -0.03701459   -0.27227518
     atom   35 type  2   force =    -0.00238754   -0.00998341    0.27224076
     atom   36 type  3   force =     0.01434834    0.01548696   -0.02240514
     The ionic contribution  to forces
     atom    1 type  1   force =     0.59920629    0.41802978    5.47816506
     atom    2 type  2   force =    -0.57892737    0.44333366   39.24765794
     atom    3 type  2   force =    -0.14745780    0.02743731  -36.11028205
     atom    4 type  1   force =     0.11921425    0.63223306    0.67237775
     atom    5 type  2   force =    -0.90957236    1.59070423   38.72924728
     atom    6 type  2   force =     0.36157463   -0.47301501  -38.03474056
     atom    7 type  1   force =    -2.53952135   -2.90092627    2.51270550
     atom    8 type  2   force =    -0.96799359    0.00231479   37.38960198
     atom    9 type  2   force =     0.34759244   -0.04490687  -37.99386154
     atom   10 type  1   force =    -1.00034154   -0.38452309    5.56084469
     atom   11 type  2   force =    -0.37267700   -1.78773933   39.05474387
     atom   12 type  2   force =     0.47082309    0.66274206  -37.89012673
     atom   13 type  1   force =     0.33736763    1.32181781    2.39298497
     atom   14 type  2   force =     0.68896663    0.66415262   37.60775431
     atom   15 type  2   force =     0.18120013   -0.03765457  -36.90277636
     atom   16 type  1   force =     0.00542026    4.04505764    0.43425162
     atom   17 type  2   force =     0.77717258    1.65192881   37.89195365
     atom   18 type  2   force =    -0.16875812   -0.61202606  -38.58546756
     atom   19 type  1   force =     2.67973239   -2.61567569    0.55229634
     atom   20 type  2   force =     0.23480401   -0.21249020  -38.48240490
     atom   21 type  1   force =     0.23979996   -0.21522178    0.52501840
     atom   22 type  2   force =     0.29365945   -2.16971522   38.18241505
     atom   23 type  2   force =    -0.10197331    0.62509473  -38.35402944
     atom   24 type  1   force =    -0.63806547    1.23870301    5.75405989
     atom   25 type  2   force =     0.30496267    0.41012862   39.11068622
     atom   26 type  2   force =    -0.32626638    0.08290253  -37.38986633
     atom   27 type  1   force =    -0.02944487    0.47835329   -2.27508993
     atom   28 type  2   force =     0.02568924    1.06067228   38.20218270
     atom   29 type  2   force =    -0.27318369   -0.40714779  -37.26375698
     atom   30 type  1   force =    -0.37697493   -0.97883459   -0.04722603
     atom   31 type  2   force =     1.19166025   -0.09700913   37.31997018
     atom   32 type  2   force =    -0.49186273   -0.01771701  -38.63206081
     atom   33 type  1   force =     0.52233626   -0.98842817    1.77025888
     atom   34 type  2   force =     0.17226855   -1.51075670   39.33009480
     atom   35 type  2   force =    -0.31378410    0.45678183  -37.82917878
     atom   36 type  3   force =    -0.31664612   -0.35860057    8.07159692
     The local contribution  to forces
     atom    1 type  1   force =    -0.55341649   -0.44030831   -5.47772610
     atom    2 type  2   force =     0.57128800   -0.42864459  -39.00699480
     atom    3 type  2   force =     0.14972168   -0.01845719   35.85549100
     atom    4 type  1   force =    -0.11425028   -0.63743640   -0.67595008
     atom    5 type  2   force =     0.90299845   -1.56754695  -38.50062609
     atom    6 type  2   force =    -0.36192565    0.47380042   37.79067527
     atom    7 type  1   force =     2.56444058    2.88826144   -2.50005770
     atom    8 type  2   force =     0.96458157   -0.00362302  -37.13781914
     atom    9 type  2   force =    -0.34100415    0.05968936   37.75095931
     atom   10 type  1   force =     0.98399736    0.39620619   -5.58601394
     atom   11 type  2   force =     0.36836200    1.78053423  -38.82340018
     atom   12 type  2   force =    -0.45747445   -0.64657182   37.65221627
     atom   13 type  1   force =    -0.33387686   -1.34241040   -2.38315270
     atom   14 type  2   force =    -0.58513144   -0.55056607  -37.59521506
     atom   15 type  2   force =    -0.17743209    0.04746504   36.64961951
     atom   16 type  1   force =    -0.00040462   -4.08098540   -0.40885224
     atom   17 type  2   force =    -0.77470815   -1.61846600  -37.66330354
     atom   18 type  2   force =     0.16875344    0.61296453   38.34691595
     atom   19 type  1   force =    -2.68311717    2.61931824   -0.54053261
     atom   20 type  2   force =    -0.23258962    0.22811704   38.23919786
     atom   21 type  1   force =    -0.25254700    0.19510653   -0.54007947
     atom   22 type  2   force =    -0.28747076    2.15690036  -37.97919043
     atom   23 type  2   force =     0.09443979   -0.61108159   38.11487310
     atom   24 type  1   force =     0.61830751   -1.25405448   -5.76396976
     atom   25 type  2   force =    -0.30491206   -0.39819122  -38.87396329
     atom   26 type  2   force =     0.31533446   -0.07099107   37.14331279
     atom   27 type  1   force =     0.02845383   -0.49516273    2.27374233
     atom   28 type  2   force =    -0.02193771   -1.03882600  -37.95348001
     atom   29 type  2   force =     0.26950632    0.40550286   37.01811475
     atom   30 type  1   force =     0.37457680    0.97538390    0.03187489
     atom   31 type  2   force =    -1.18296589    0.09584598  -37.07190346
     atom   32 type  2   force =     0.48730220    0.03420631   38.38799676
     atom   33 type  1   force =    -0.50063617    0.97556669   -1.78298702
     atom   34 type  2   force =    -0.17016380    1.50340907  -39.08836383
     atom   35 type  2   force =     0.30731542   -0.44128854   37.59264894
     atom   36 type  3   force =     0.32414060    0.36968954   -8.07661748
     The core correction contribution to forces
     atom    1 type  1   force =     0.00000000    0.00000000    0.00000000
     atom    2 type  2   force =    -0.00002762   -0.00015528    0.02019286
     atom    3 type  2   force =     0.00067874    0.00001919   -0.02093856
     atom    4 type  1   force =     0.00000000    0.00000000    0.00000000
     atom    5 type  2   force =    -0.00063747    0.00171502    0.02018291
     atom    6 type  2   force =     0.00012298   -0.00091466   -0.02096289
     atom    7 type  1   force =     0.00000000    0.00000000    0.00000000
     atom    8 type  2   force =    -0.00016561    0.00049424    0.02044084
     atom    9 type  2   force =    -0.00010125    0.00056289   -0.02092931
     atom   10 type  1   force =     0.00000000    0.00000000    0.00000000
     atom   11 type  2   force =    -0.00041761   -0.00067336    0.02038335
     atom   12 type  2   force =     0.00118302    0.00134254   -0.02086969
     atom   13 type  1   force =     0.00000000    0.00000000    0.00000000
     atom   14 type  2   force =     0.00936357    0.00956974    0.00303885
     atom   15 type  2   force =     0.00087142    0.00045536   -0.02077480
     atom   16 type  1   force =     0.00000000    0.00000000    0.00000000
     atom   17 type  2   force =    -0.00003555    0.00168055    0.02008280
     atom   18 type  2   force =     0.00013225   -0.00039552   -0.02103339
     atom   19 type  1   force =     0.00000000    0.00000000    0.00000000
     atom   20 type  2   force =     0.00012812    0.00079244   -0.02120735
     atom   21 type  1   force =     0.00000000    0.00000000    0.00000000
     atom   22 type  2   force =    -0.00000776   -0.00162809    0.01846644
     atom   23 type  2   force =    -0.00058667    0.00118972   -0.02088871
     atom   24 type  1   force =     0.00000000    0.00000000    0.00000000
     atom   25 type  2   force =    -0.00063989   -0.00044641    0.02015801
     atom   26 type  2   force =    -0.00033965    0.00068583   -0.02086050
     atom   27 type  1   force =     0.00000000    0.00000000    0.00000000
     atom   28 type  2   force =     0.00023950    0.00178363    0.02093295
     atom   29 type  2   force =    -0.00055126   -0.00056277   -0.02060593
     atom   30 type  1   force =     0.00000000    0.00000000    0.00000000
     atom   31 type  2   force =     0.00048910    0.00010990    0.02048661
     atom   32 type  2   force =    -0.00007264    0.00068058   -0.02102612
     atom   33 type  1   force =     0.00000000    0.00000000    0.00000000
     atom   34 type  2   force =     0.00033058    0.00112121    0.02105362
     atom   35 type  2   force =    -0.00007871    0.00093461   -0.02114477
     atom   36 type  3   force =     0.00000000    0.00000000    0.00000000
     The Hubbard contrib.    to forces
     atom    1 type  1   force =     0.00000000    0.00000000    0.00000000
     atom    2 type  2   force =     0.00000000    0.00000000    0.00000000
     atom    3 type  2   force =     0.00000000    0.00000000    0.00000000
     atom    4 type  1   force =     0.00000000    0.00000000    0.00000000
     atom    5 type  2   force =     0.00000000    0.00000000    0.00000000
     atom    6 type  2   force =     0.00000000    0.00000000    0.00000000
     atom    7 type  1   force =     0.00000000    0.00000000    0.00000000
     atom    8 type  2   force =     0.00000000    0.00000000    0.00000000
     atom    9 type  2   force =     0.00000000    0.00000000    0.00000000
     atom   10 type  1   force =     0.00000000    0.00000000    0.00000000
     atom   11 type  2   force =     0.00000000    0.00000000    0.00000000
     atom   12 type  2   force =     0.00000000    0.00000000    0.00000000
     atom   13 type  1   force =     0.00000000    0.00000000    0.00000000
     atom   14 type  2   force =     0.00000000    0.00000000    0.00000000
     atom   15 type  2   force =     0.00000000    0.00000000    0.00000000
     atom   16 type  1   force =     0.00000000    0.00000000    0.00000000
     atom   17 type  2   force =     0.00000000    0.00000000    0.00000000
     atom   18 type  2   force =     0.00000000    0.00000000    0.00000000
     atom   19 type  1   force =     0.00000000    0.00000000    0.00000000
     atom   20 type  2   force =     0.00000000    0.00000000    0.00000000
     atom   21 type  1   force =     0.00000000    0.00000000    0.00000000
     atom   22 type  2   force =     0.00000000    0.00000000    0.00000000
     atom   23 type  2   force =     0.00000000    0.00000000    0.00000000
     atom   24 type  1   force =     0.00000000    0.00000000    0.00000000
     atom   25 type  2   force =     0.00000000    0.00000000    0.00000000
     atom   26 type  2   force =     0.00000000    0.00000000    0.00000000
     atom   27 type  1   force =     0.00000000    0.00000000    0.00000000
     atom   28 type  2   force =     0.00000000    0.00000000    0.00000000
     atom   29 type  2   force =     0.00000000    0.00000000    0.00000000
     atom   30 type  1   force =     0.00000000    0.00000000    0.00000000
     atom   31 type  2   force =     0.00000000    0.00000000    0.00000000
     atom   32 type  2   force =     0.00000000    0.00000000    0.00000000
     atom   33 type  1   force =     0.00000000    0.00000000    0.00000000
     atom   34 type  2   force =     0.00000000    0.00000000    0.00000000
     atom   35 type  2   force =     0.00000000    0.00000000    0.00000000
     atom   36 type  3   force =     0.00000000    0.00000000    0.00000000
     The SCF correction term to forces
     atom    1 type  1   force =    -0.00024233    0.00004615   -0.00050745
     atom    2 type  2   force =    -0.00009711    0.00005184   -0.00027505
     atom    3 type  2   force =    -0.00000019    0.00003128   -0.00019183
     atom    4 type  1   force =    -0.00014856   -0.00002355   -0.00065781
     atom    5 type  2   force =    -0.00005707   -0.00009362   -0.00029071
     atom    6 type  2   force =     0.00002210   -0.00005482   -0.00010207
     atom    7 type  1   force =    -0.00010908   -0.00011592   -0.00078557
     atom    8 type  2   force =    -0.00001914    0.00006024   -0.00039960
     atom    9 type  2   force =    -0.00001065    0.00005283   -0.00010668
     atom   10 type  1   force =    -0.00004682   -0.00016417   -0.00080028
     atom   11 type  2   force =    -0.00005687    0.00001549   -0.00029603
     atom   12 type  2   force =    -0.00003863    0.00003914   -0.00015828
     atom   13 type  1   force =     0.00020234    0.00014351   -0.00077963
     atom   14 type  2   force =     0.00014417    0.00007839   -0.00026533
     atom   15 type  2   force =     0.00001842   -0.00003891   -0.00014819
     atom   16 type  1   force =     0.00011576    0.00029893   -0.00065120
     atom   17 type  2   force =     0.00007067    0.00000067   -0.00023355
     atom   18 type  2   force =    -0.00001130   -0.00009505   -0.00016366
     atom   19 type  1   force =     0.00013667   -0.00014802   -0.00077225
     atom   20 type  2   force =     0.00001588    0.00001656   -0.00004385
     atom   21 type  1   force =     0.00013957    0.00002356   -0.00080294
     atom   22 type  2   force =     0.00005313   -0.00002540   -0.00026850
     atom   23 type  2   force =     0.00003108    0.00001953   -0.00017792
     atom   24 type  1   force =    -0.00013397    0.00011841   -0.00093289
     atom   25 type  2   force =     0.00003594    0.00003343   -0.00025398
     atom   26 type  2   force =    -0.00003340    0.00001766   -0.00025543
     atom   27 type  1   force =     0.00004007    0.00008392   -0.00061384
     atom   28 type  2   force =    -0.00002345   -0.00003669   -0.00036790
     atom   29 type  2   force =    -0.00003367   -0.00010311   -0.00016512
     atom   30 type  1   force =    -0.00006395    0.00017230   -0.00067514
     atom   31 type  2   force =     0.00004183    0.00006517   -0.00035310
     atom   32 type  2   force =    -0.00001302    0.00007878   -0.00009871
     atom   33 type  1   force =    -0.00010020   -0.00020749   -0.00087549
     atom   34 type  2   force =    -0.00000330   -0.00009807   -0.00032385
     atom   35 type  2   force =     0.00000229   -0.00003006   -0.00019087
     atom   36 type  3   force =     0.00002808    0.00001978   -0.00002558

     Total force =     0.138267     Total SCF correction =     0.002941

     BFGS Geometry Optimization
     Energy error            =      0.0E+00 Ry
     Gradient error          =      5.8E-02 Ry/Bohr

     number of scf cycles    =   1
     number of bfgs steps    =   0

     energy             new  =   -2205.5360146032 Ry

     new trust radius        =       0.0847279166 bohr
     new conv_thr            =       0.0000010000 Ry


ATOMIC_POSITIONS (angstrom)
Mo            6.5934671104        1.7860022711        2.8148971943
S             8.1713022546        0.8186265798        4.4349641669
S             8.1865487386        0.8150503454        1.2756773380
Mo            8.0990243175        4.4961911709        2.7184462531
S             6.4999409796        3.7204248166        4.3454295549
S             6.5539202837        3.5155942711        1.1213266274
Mo            6.4911267076        7.2106724336        2.6679140457
S             8.0823948151        6.3414695907        4.2511761883
S             8.0877912462        6.3078701548        1.0899520265
Mo            8.1540174716        9.9073483050        2.8294446945
S             6.4982192572        8.9417498530        4.3805637515
S             6.6184795814        9.0496063472        1.1424182252
Mo            3.4245170050        1.7479857478        2.7762008772
S             4.9515276272        0.7940559203        4.3809927259
S             5.0517292531        0.8475976828        1.2215316241
Mo            4.9812965948        4.5150228235        2.6331970269
S             3.4303973714        3.6738680450        4.2802535331
S             3.4355532337        3.5460882285        1.0657105561
Mo            3.4589397566        7.2143237674        2.6267434515
S             4.9842055835        6.3243328503        1.0381413210
Mo            5.0083857918        9.9014638522        2.7389146020
S             3.4712635956        8.9481448351        4.3267201566
S             3.4081596732        9.0657870386        1.1002481361
Mo            0.2895723630        1.7477734819        2.8385423093
S             1.8592299456        0.8020214085        4.4013918358
S             1.8554091942        0.8543049508        1.2071133370
Mo            1.8582448760        4.4923381420        2.6640787766
S             0.2723954176        3.6540931611        4.3347555981
S             0.2323932901        3.5270801785        1.1707011364
Mo            0.2694415609        7.2231899652        2.6987216980
S             1.9022860920        6.3120804341        4.2306364359
S             1.8578261423        6.3134749625        1.0490081378
Mo            1.8525377405        9.9372489604        2.7689339536
S             0.2971844780        9.0670658167        4.4086671100
S             0.2720442616        9.0469221280        1.1579990733
H             4.2145778453       10.9429758903        5.4633480583



     Writing config-only to output data dir ./MoS2-V-O.save/
     NEW-OLD atomic charge density approx. for the potential

     negative rho (up, down):  1.451E-04 0.000E+00

     total cpu time spent up to now is       78.4 secs

     Self-consistent Calculation

     iteration #  1     ecut=    80.00 Ry     beta= 0.70
     Davidson diagonalization with overlap
     ethr =  1.00E-06,  avg # of iterations = 11.0

     negative rho (up, down):  7.150E-05 0.000E+00

     total cpu time spent up to now is       94.0 secs

     total energy              =   -2205.55162254 Ry
     estimated scf accuracy    <       0.00291956 Ry

     iteration #  2     ecut=    80.00 Ry     beta= 0.70
     Davidson diagonalization with overlap
     ethr =  9.51E-07,  avg # of iterations =  2.0

     negative rho (up, down):  6.514E-05 0.000E+00

     total cpu time spent up to now is      106.6 secs

     total energy              =   -2205.55170788 Ry
     estimated scf accuracy    <       0.00097553 Ry

     iteration #  3     ecut=    80.00 Ry     beta= 0.70
     Davidson diagonalization with overlap
     ethr =  3.18E-07,  avg # of iterations =  2.0

     negative rho (up, down):  5.708E-05 0.000E+00

     total cpu time spent up to now is      121.0 secs

     total energy              =   -2205.55173878 Ry
     estimated scf accuracy    <       0.00035496 Ry

     iteration #  4     ecut=    80.00 Ry     beta= 0.70
     Davidson diagonalization with overlap
     ethr =  1.16E-07,  avg # of iterations =  5.0

     negative rho (up, down):  5.529E-05 0.000E+00

     total cpu time spent up to now is      132.3 secs

     total energy              =   -2205.55177128 Ry
     estimated scf accuracy    <       0.00002471 Ry

     iteration #  5     ecut=    80.00 Ry     beta= 0.70
     Davidson diagonalization with overlap
     ethr =  8.05E-09,  avg # of iterations =  6.0

     negative rho (up, down):  5.247E-05 0.000E+00

     total cpu time spent up to now is      144.7 secs

     total energy              =   -2205.55177931 Ry
     estimated scf accuracy    <       0.00001055 Ry

     iteration #  6     ecut=    80.00 Ry     beta= 0.70
     Davidson diagonalization with overlap
     ethr =  3.44E-09,  avg # of iterations =  2.0

     negative rho (up, down):  4.811E-05 0.000E+00

     total cpu time spent up to now is      157.3 secs

     total energy              =   -2205.55178054 Ry
     estimated scf accuracy    <       0.00000282 Ry

     iteration #  7     ecut=    80.00 Ry     beta= 0.70
     Davidson diagonalization with overlap
     ethr =  9.19E-10,  avg # of iterations =  5.0

     negative rho (up, down):  4.823E-05 0.000E+00

     total cpu time spent up to now is      170.2 secs

     total energy              =   -2205.55178117 Ry
     estimated scf accuracy    <       0.00000150 Ry

     iteration #  8     ecut=    80.00 Ry     beta= 0.70
     Davidson diagonalization with overlap
     ethr =  4.89E-10,  avg # of iterations =  2.0

     negative rho (up, down):  1.373E-04 0.000E+00

     total cpu time spent up to now is      172.2 secs

     End of self-consistent calculation

          k = 0.0000 0.0000 0.0000 (105382 PWs)   bands (ev):

   -62.8516 -62.8429 -62.8281 -62.8208 -62.8168 -62.8089 -62.7935 -62.7732
   -62.7549 -62.7379 -62.7061 -62.6789 -37.1992 -37.1281 -37.1160 -37.1088
   -37.1046 -37.0800 -37.0588 -37.0399 -37.0386 -37.0278 -37.0250 -37.0207
   -37.0081 -36.9992 -36.9925 -36.9879 -36.9833 -36.9743 -36.9732 -36.9588
   -36.9310 -36.9163 -36.9068 -36.8916 -36.8827 -36.8746 -36.8654 -36.8616
   -36.8472 -36.8391 -36.8332 -36.8153 -36.8122 -36.7734 -36.6917 -36.6603
   -16.0794 -15.4841 -15.1546 -15.0038 -14.9320 -14.8344 -14.5729 -14.4777
   -14.4386 -14.4065 -14.3706 -14.3456 -14.3046 -14.2576 -14.1289 -14.1005
   -14.0863 -14.0810 -14.0420 -13.8681 -13.8155 -13.7912 -13.7594  -8.4921
    -7.6037  -7.3819  -7.2612  -7.2468  -7.2103  -7.1822  -7.1139  -7.0689
    -6.8244  -6.7436  -6.7059  -6.6352  -6.5771  -6.5106  -6.4371  -6.3890
    -6.3232  -6.2422  -6.1577  -5.9431  -5.9001  -5.8862  -5.7877  -5.7774
    -5.7304  -5.7153  -5.6457  -5.6330  -5.5986  -5.5614  -5.4973  -5.4183
    -5.3992  -5.3250  -5.2113  -5.0990  -5.0177  -4.9707  -4.9643  -4.9283
    -4.8824  -4.8086  -4.6829  -4.5313  -4.4492  -4.3078  -4.2764  -4.2126
    -4.1823  -4.0998  -4.0236  -3.9621  -3.8108  -3.7497  -3.6852  -3.6574
    -3.6143  -3.5178  -3.4930  -3.4701  -3.4526  -3.4399  -3.4127  -3.3796
    -3.3341  -3.2329  -3.1155  -2.8927  -2.8586  -2.7710  -2.7386  -2.7244
    -2.7010  -2.6808  -2.6203  -2.5934  -2.5264  -2.2508  -2.0194  -1.9654
    -1.9055  -0.8632  -0.7375  -0.6455  -0.1662  -0.1081  -0.0880   0.0057
     0.0698   0.1509   0.1890   0.2317   0.2723   0.2983   0.4504   0.4944
     0.5270   0.5685   0.5800   0.6142   0.6454   0.6809   0.7490   0.7573
     0.7860   0.8438   0.8762   0.9090   0.9884   0.9946   1.0747   1.2342
     1.4127

     the Fermi energy is    -0.8813 ev

!    total energy              =   -2205.55178076 Ry
     estimated scf accuracy    <       0.00000084 Ry
     smearing contrib. (-TS)   =      -0.00766893 Ry
     internal energy E=F+TS    =   -2205.54411183 Ry

     The total energy is F=E-TS. E is the sum of the following terms:
     one-electron contribution =  -18043.27978688 Ry
     hartree contribution      =    9008.67495147 Ry
     xc contribution           =    -385.27405424 Ry
     ewald contribution        =    7214.33477781 Ry

     convergence has been achieved in   8 iterations

     negative rho (up, down):  1.373E-04 0.000E+00

     Forces acting on atoms (cartesian axes, Ry/au):

     atom    1 type  1   force =     0.01174362   -0.00439732   -0.00881530
     atom    2 type  2   force =    -0.00660793    0.01191519   -0.00235098
     atom    3 type  2   force =    -0.00950995    0.00625356   -0.01181207
     atom    4 type  1   force =     0.00551697    0.00293838    0.00216718
     atom    5 type  2   force =     0.00158134   -0.00476225   -0.00331636
     atom    6 type  2   force =     0.00287191    0.00686572   -0.00108005
     atom    7 type  1   force =     0.00303941   -0.00980115   -0.00074878
     atom    8 type  2   force =     0.00153969   -0.00349331    0.01154754
     atom    9 type  2   force =     0.01172927    0.00463396    0.00723644
     atom   10 type  1   force =    -0.00543505    0.00896769   -0.00870685
     atom   11 type  2   force =     0.00467845   -0.00245129   -0.00839092
     atom   12 type  2   force =    -0.00113392    0.00016605    0.00010509
     atom   13 type  1   force =     0.00222327    0.00067150    0.00318001
     atom   14 type  2   force =    -0.02756495   -0.03037884    0.04006628
     atom   15 type  2   force =    -0.00661020    0.00337804   -0.00555457
     atom   16 type  1   force =     0.00309903    0.00105568    0.00193599
     atom   17 type  2   force =     0.00483671    0.00353869    0.00131293
     atom   18 type  2   force =    -0.00365371   -0.00335245    0.01113355
     atom   19 type  1   force =     0.00555430   -0.00175681    0.00046118
     atom   20 type  2   force =     0.00209034   -0.00517126   -0.00244257
     atom   21 type  1   force =    -0.00525669   -0.00208335   -0.00054006
     atom   22 type  2   force =     0.00052614    0.00175410   -0.00106765
     atom   23 type  2   force =     0.00024391    0.00027041    0.00233228
     atom   24 type  1   force =    -0.00654348   -0.00170649   -0.00814634
     atom   25 type  2   force =     0.00878492    0.01424511   -0.00145942
     atom   26 type  2   force =    -0.00573898   -0.00028770   -0.00434087
     atom   27 type  1   force =    -0.00296940   -0.00245955    0.00695584
     atom   28 type  2   force =    -0.00033996   -0.00219042   -0.00473274
     atom   29 type  2   force =     0.00166620    0.00127189   -0.00434045
     atom   30 type  1   force =    -0.00180112    0.00338985    0.00256967
     atom   31 type  2   force =     0.00036451   -0.00031385    0.00901565
     atom   32 type  2   force =    -0.00704758    0.00433183    0.00705021
     atom   33 type  1   force =     0.00666118   -0.00142994    0.00062175
     atom   34 type  2   force =    -0.00009055   -0.03137682   -0.01440585
     atom   35 type  2   force =    -0.00629142    0.00750445    0.00763916
     atom   36 type  3   force =     0.01784372    0.02426070   -0.02307889
     The non-local contrib.  to forces
     atom    1 type  1   force =    -0.00466998    0.01811262   -0.01589006
     atom    2 type  2   force =     0.00136469   -0.00117894   -0.25896163
     atom    3 type  2   force =    -0.01222509   -0.00226226    0.26575208
     atom    4 type  1   force =     0.00283040    0.00817086    0.00418090
     atom    5 type  2   force =     0.00884776   -0.02741714   -0.25142891
     atom    6 type  2   force =     0.00290942    0.00578060    0.26530960
     atom    7 type  1   force =    -0.02299015   -0.00368164   -0.02079615
     atom    8 type  2   force =     0.00494024   -0.00312867   -0.25831332
     atom    9 type  2   force =     0.00532769   -0.01032737    0.27325376
     atom   10 type  1   force =     0.00250380   -0.00178699   -0.00161360
     atom   11 type  2   force =     0.00806111    0.00486867   -0.25826622
     atom   12 type  2   force =    -0.01449793   -0.01766358    0.26184093
     atom   13 type  1   force =     0.00246582    0.02284584   -0.01117035
     atom   14 type  2   force =    -0.16337846   -0.17020509    0.04172408
     atom   15 type  2   force =    -0.01142692   -0.00758999    0.26762343
     atom   16 type  1   force =    -0.00260840    0.04015647   -0.02517050
     atom   17 type  2   force =     0.00220818   -0.03090152   -0.24731572
     atom   18 type  2   force =    -0.00390854   -0.00376432    0.27221512
     atom   19 type  1   force =     0.01424543   -0.00813777   -0.01918450
     atom   20 type  2   force =    -0.00056146   -0.02098727    0.26331173
     atom   21 type  1   force =     0.00387829    0.02019517    0.00473164
     atom   22 type  2   force =    -0.00740572    0.01447592   -0.22410656
     atom   23 type  2   force =     0.00839825   -0.01535498    0.26513825
     atom   24 type  1   force =     0.00501874    0.01703123   -0.00911035
     atom   25 type  2   force =     0.01112895    0.00311827   -0.25643286
     atom   26 type  2   force =     0.00406501   -0.01192759    0.26451385
     atom   27 type  1   force =    -0.00440234    0.00939702    0.00864639
     atom   28 type  2   force =    -0.00384561   -0.02439162   -0.27432718
     atom   29 type  2   force =     0.00569951    0.00133782    0.26341152
     atom   30 type  1   force =    -0.00126952    0.01681972    0.00980675
     atom   31 type  2   force =    -0.00816785    0.00007118   -0.25764863
     atom   32 type  2   force =    -0.00195025   -0.01242422    0.27346967
     atom   33 type  1   force =    -0.00412683    0.00533556    0.00398694
     atom   34 type  2   force =    -0.00186548   -0.02676696   -0.27620138
     atom   35 type  2   force =    -0.00079514   -0.00871132    0.26879490
     atom   36 type  3   force =     0.01777428    0.01933456   -0.02748708
     The ionic contribution  to forces
     atom    1 type  1   force =    -0.14154216    0.35058770    5.36334861
     atom    2 type  2   force =    -0.49570097    0.30090988   39.32753339
     atom    3 type  2   force =    -0.09691022   -0.02257829  -36.25794469
     atom    4 type  1   force =     0.05889520    0.69943192    0.78738527
     atom    5 type  2   force =    -0.96563499    1.50832456   38.69851432
     atom    6 type  2   force =     0.28906757   -0.44619428  -38.01579779
     atom    7 type  1   force =    -2.52542588   -2.73465915    2.47159184
     atom    8 type  2   force =    -0.96908245    0.03969788   37.49437973
     atom    9 type  2   force =     0.34548457   -0.07188342  -37.96532295
     atom   10 type  1   force =    -0.82252821   -0.39887872    5.29660714
     atom   11 type  2   force =    -0.33482889   -1.76695946   38.98296708
     atom   12 type  2   force =     0.40408901    0.60155917  -37.86328151
     atom   13 type  1   force =     0.52105284    1.31294097    2.46406689
     atom   14 type  2   force =     0.94814803    0.88026093   37.65985281
     atom   15 type  2   force =     0.18771445    0.02335852  -36.84796263
     atom   16 type  1   force =    -0.03631499    3.85337485    0.53121527
     atom   17 type  2   force =     0.81421701    1.62716129   37.88579502
     atom   18 type  2   force =    -0.15419871   -0.58552516  -38.48915283
     atom   19 type  1   force =     2.54251243   -2.67123769    0.49659579
     atom   20 type  2   force =     0.20907164   -0.23081991  -38.53216666
     atom   21 type  1   force =     0.41078644   -0.08434302    0.42072774
     atom   22 type  2   force =     0.27920341   -2.23201923   38.21634670
     atom   23 type  2   force =    -0.10680758    0.58930170  -38.37083672
     atom   24 type  1   force =    -0.32789593    1.01323096    5.48163580
     atom   25 type  2   force =     0.12884965    0.36414575   39.06007452
     atom   26 type  2   force =    -0.27120492    0.08485389  -37.35206177
     atom   27 type  1   force =     0.07021089    0.60330695   -2.04262450
     atom   28 type  2   force =     0.04127123    0.99168540   38.22370082
     atom   29 type  2   force =    -0.22777077   -0.33710856  -37.32010619
     atom   30 type  1   force =    -0.27715928   -1.09318777   -0.07253503
     atom   31 type  2   force =     1.20977063   -0.06581218   37.34137639
     atom   32 type  2   force =    -0.46271148   -0.06378876  -38.54735641
     atom   33 type  1   force =     0.26842433   -0.79661750    1.84522891
     atom   34 type  2   force =     0.11034026   -1.29664576   39.23187655
     atom   35 type  2   force =    -0.25202150    0.47452432  -37.75692974
     atom   36 type  3   force =    -0.37137066   -0.42039780    8.15325886
     The local contribution  to forces
     atom    1 type  1   force =     0.15852899   -0.37295307   -5.35764789
     atom    2 type  2   force =     0.48777799   -0.28752543  -39.09173253
     atom    3 type  2   force =     0.09900139    0.03115745   36.00104447
     atom    4 type  1   force =    -0.05619693   -0.70482832   -0.79045718
     atom    5 type  2   force =     0.95920795   -1.48725917  -38.47101445
     atom    6 type  2   force =    -0.28901816    0.44801115   37.77009900
     atom    7 type  1   force =     2.55149039    2.72853632   -2.45270856
     atom    8 type  2   force =     0.96583700   -0.04057347  -37.24553932
     atom    9 type  2   force =    -0.33904903    0.08635689   37.71997344
     atom   10 type  1   force =     0.81453450    0.40952607   -5.30520978
     atom   11 type  2   force =     0.33169217    1.76022374  -38.75397973
     atom   12 type  2   force =    -0.39183803   -0.58507308   37.62208058
     atom   13 type  1   force =    -0.52176985   -1.33500744   -2.45092082
     atom   14 type  2   force =    -0.82265021   -0.75089776  -37.66382311
     atom   15 type  2   force =    -0.18355123   -0.01292582   36.59526275
     atom   16 type  1   force =     0.04208690   -3.89239174   -0.50517428
     atom   17 type  2   force =    -0.81165345   -1.59440934  -37.65766885
     atom   18 type  2   force =     0.15429647    0.58628386   38.24878952
     atom   19 type  1   force =    -2.55111623    2.67783650   -0.47806870
     atom   20 type  2   force =    -0.20648170    0.24591582   38.28727824
     atom   21 type  1   force =    -0.42001959    0.06172052   -0.42725176
     atom   22 type  2   force =    -0.27132759    2.22063962  -38.01249204
     atom   23 type  2   force =     0.09926896   -0.57486927   38.12864263
     atom   24 type  1   force =     0.31615797   -1.03169814   -5.48193277
     atom   25 type  2   force =    -0.13057663   -0.35259971  -38.82588344
     atom   26 type  2   force =     0.26181432   -0.07386895   37.10376500
     atom   27 type  1   force =    -0.06886718   -0.61535803    2.03984856
     atom   28 type  2   force =    -0.03803257   -0.97117048  -37.97557882
     atom   29 type  2   force =     0.22421456    0.33745142   37.07277328
     atom   30 type  1   force =     0.27651621    1.07985555    0.06411826
     atom   31 type  2   force =    -1.20173913    0.06525663  -37.09569909
     atom   32 type  2   force =     0.45771497    0.07991156   38.30161664
     atom   33 type  1   force =    -0.25756071    0.78966306   -1.84996545
     atom   34 type  2   force =    -0.10885173    1.29100725  -38.99174055
     atom   35 type  2   force =     0.24659373   -0.45924080   37.51655843
     atom   36 type  3   force =     0.37145099    0.42533349   -8.14893843
     The core correction contribution to forces
     atom    1 type  1   force =     0.00000000    0.00000000    0.00000000
     atom    2 type  2   force =    -0.00014023   -0.00010414    0.02020677
     atom    3 type  2   force =     0.00056744   -0.00000059   -0.02083244
     atom    4 type  1   force =     0.00000000    0.00000000    0.00000000
     atom    5 type  2   force =    -0.00072858    0.00161874    0.02017447
     atom    6 type  2   force =     0.00001675   -0.00079257   -0.02095938
     atom    7 type  1   force =     0.00000000    0.00000000    0.00000000
     atom    8 type  2   force =    -0.00015746    0.00047376    0.02053181
     atom    9 type  2   force =    -0.00002971    0.00056533   -0.02089856
     atom   10 type  1   force =     0.00000000    0.00000000    0.00000000
     atom   11 type  2   force =    -0.00026111   -0.00065604    0.02039747
     atom   12 type  2   force =     0.00117461    0.00135689   -0.02080950
     atom   13 type  1   force =     0.00000000    0.00000000    0.00000000
     atom   14 type  2   force =     0.01018814    0.01032534    0.00214500
     atom   15 type  2   force =     0.00067423    0.00048886   -0.02088542
     atom   16 type  1   force =     0.00000000    0.00000000    0.00000000
     atom   17 type  2   force =    -0.00001105    0.00169290    0.02006601
     atom   18 type  2   force =     0.00009737   -0.00039485   -0.02099872
     atom   19 type  1   force =     0.00000000    0.00000000    0.00000000
     atom   20 type  2   force =     0.00012731    0.00076548   -0.02114207
     atom   21 type  1   force =     0.00000000    0.00000000    0.00000000
     atom   22 type  2   force =     0.00006706   -0.00131953    0.01865509
     atom   23 type  2   force =    -0.00062394    0.00123432   -0.02084560
     atom   24 type  1   force =     0.00000000    0.00000000    0.00000000
     atom   25 type  2   force =    -0.00048883   -0.00032111    0.02029917
     atom   26 type  2   force =    -0.00044714    0.00064879   -0.02088352
     atom   27 type  1   force =     0.00000000    0.00000000    0.00000000
     atom   28 type  2   force =     0.00023993    0.00172374    0.02095697
     atom   29 type  2   force =    -0.00050745   -0.00047510   -0.02062150
     atom   30 type  1   force =     0.00000000    0.00000000    0.00000000
     atom   31 type  2   force =     0.00044198    0.00013514    0.02059688
     atom   32 type  2   force =    -0.00015833    0.00068345   -0.02099953
     atom   33 type  1   force =     0.00000000    0.00000000    0.00000000
     atom   34 type  2   force =     0.00034780    0.00077089    0.02117040
     atom   35 type  2   force =    -0.00011816    0.00089543   -0.02104790
     atom   36 type  3   force =     0.00000000    0.00000000    0.00000000
     The Hubbard contrib.    to forces
     atom    1 type  1   force =     0.00000000    0.00000000    0.00000000
     atom    2 type  2   force =     0.00000000    0.00000000    0.00000000
     atom    3 type  2   force =     0.00000000    0.00000000    0.00000000
     atom    4 type  1   force =     0.00000000    0.00000000    0.00000000
     atom    5 type  2   force =     0.00000000    0.00000000    0.00000000
     atom    6 type  2   force =     0.00000000    0.00000000    0.00000000
     atom    7 type  1   force =     0.00000000    0.00000000    0.00000000
     atom    8 type  2   force =     0.00000000    0.00000000    0.00000000
     atom    9 type  2   force =     0.00000000    0.00000000    0.00000000
     atom   10 type  1   force =     0.00000000    0.00000000    0.00000000
     atom   11 type  2   force =     0.00000000    0.00000000    0.00000000
     atom   12 type  2   force =     0.00000000    0.00000000    0.00000000
     atom   13 type  1   force =     0.00000000    0.00000000    0.00000000
     atom   14 type  2   force =     0.00000000    0.00000000    0.00000000
     atom   15 type  2   force =     0.00000000    0.00000000    0.00000000
     atom   16 type  1   force =     0.00000000    0.00000000    0.00000000
     atom   17 type  2   force =     0.00000000    0.00000000    0.00000000
     atom   18 type  2   force =     0.00000000    0.00000000    0.00000000
     atom   19 type  1   force =     0.00000000    0.00000000    0.00000000
     atom   20 type  2   force =     0.00000000    0.00000000    0.00000000
     atom   21 type  1   force =     0.00000000    0.00000000    0.00000000
     atom   22 type  2   force =     0.00000000    0.00000000    0.00000000
     atom   23 type  2   force =     0.00000000    0.00000000    0.00000000
     atom   24 type  1   force =     0.00000000    0.00000000    0.00000000
     atom   25 type  2   force =     0.00000000    0.00000000    0.00000000
     atom   26 type  2   force =     0.00000000    0.00000000    0.00000000
     atom   27 type  1   force =     0.00000000    0.00000000    0.00000000
     atom   28 type  2   force =     0.00000000    0.00000000    0.00000000
     atom   29 type  2   force =     0.00000000    0.00000000    0.00000000
     atom   30 type  1   force =     0.00000000    0.00000000    0.00000000
     atom   31 type  2   force =     0.00000000    0.00000000    0.00000000
     atom   32 type  2   force =     0.00000000    0.00000000    0.00000000
     atom   33 type  1   force =     0.00000000    0.00000000    0.00000000
     atom   34 type  2   force =     0.00000000    0.00000000    0.00000000
     atom   35 type  2   force =     0.00000000    0.00000000    0.00000000
     atom   36 type  3   force =     0.00000000    0.00000000    0.00000000
     The SCF correction term to forces
     atom    1 type  1   force =    -0.00057122   -0.00014655    0.00134969
     atom    2 type  2   force =     0.00009259   -0.00018816    0.00057867
     atom    3 type  2   force =     0.00005854   -0.00006473    0.00014417
     atom    4 type  1   force =    -0.00000971    0.00016193    0.00103384
     atom    5 type  2   force =    -0.00010881   -0.00003121    0.00041385
     atom    6 type  2   force =    -0.00010168    0.00005885    0.00024417
     atom    7 type  1   force =    -0.00003296    0.00000134    0.00113974
     atom    8 type  2   force =     0.00000436    0.00003520    0.00046429
     atom    9 type  2   force =    -0.00000225   -0.00007945    0.00020640
     atom   10 type  1   force =     0.00005685    0.00010535    0.00148505
     atom   11 type  2   force =     0.00001717    0.00006982    0.00046614
     atom   12 type  2   force =    -0.00005958   -0.00001532    0.00025025
     atom   13 type  1   force =     0.00047647   -0.00010987    0.00117993
     atom   14 type  2   force =     0.00012955    0.00013576    0.00014314
     atom   15 type  2   force =    -0.00001874    0.00004449    0.00038295
     atom   16 type  1   force =    -0.00006249   -0.00008587    0.00104115
     atom   17 type  2   force =     0.00007803   -0.00000662    0.00041212
     atom   18 type  2   force =     0.00006170    0.00004604    0.00025612
     atom   19 type  1   force =    -0.00008533   -0.00021983    0.00109423
     atom   20 type  2   force =    -0.00006344   -0.00004737    0.00025184
     atom   21 type  1   force =     0.00010016    0.00034200    0.00122797
     atom   22 type  2   force =    -0.00000902   -0.00002466    0.00050481
     atom   23 type  2   force =     0.00001022   -0.00004334    0.00020936
     atom   24 type  1   force =     0.00017775   -0.00027251    0.00123663
     atom   25 type  2   force =    -0.00012622   -0.00010007    0.00045884
     atom   26 type  2   force =     0.00003575    0.00000418    0.00030123
     atom   27 type  1   force =     0.00009122    0.00019253    0.00106104
     atom   28 type  2   force =     0.00002904   -0.00003943    0.00049112
     atom   29 type  2   force =     0.00003234    0.00006432    0.00017809
     atom   30 type  1   force =     0.00011346   -0.00009963    0.00115534
     atom   31 type  2   force =     0.00006088    0.00003339    0.00036575
     atom   32 type  2   force =     0.00005951   -0.00005218    0.00029549
     atom   33 type  1   force =    -0.00007361    0.00018696    0.00134699
     atom   34 type  2   force =    -0.00005941    0.00025577    0.00046478
     atom   35 type  2   force =     0.00005165    0.00003484    0.00023913
     atom   36 type  3   force =    -0.00000890   -0.00001154    0.00006341

     Total force =     0.094338     Total SCF correction =     0.004653
     Energy error            =      1.6E-02 Ry
     Gradient error          =      4.0E-02 Ry/Bohr

     number of scf cycles    =   2
     number of bfgs steps    =   1

     energy             old  =   -2205.5360146032 Ry
     energy             new  =   -2205.5517807611 Ry

     CASE: energy            _new < energy            _old

     new trust radius        =       0.0932007082 bohr
     new conv_thr            =       0.0000000401 Ry


ATOMIC_POSITIONS (angstrom)
Mo            6.6054326868        1.7825319840        2.8069589757
S             8.1655715639        0.8288016884        4.4333747930
S             8.1785112270        0.8202233804        1.2668604658
Mo            8.1036840270        4.4984964623        2.7201065826
S             6.5010709052        3.7166602146        4.3428370958
S             6.5560704850        3.5212115727        1.1205679122
Mo            6.4935058643        7.2022212503        2.6666222890
S             8.0836166923        6.3385274789        4.2610502310
S             8.0974422319        6.3117695543        1.0962598655
Mo            8.1488918183        9.9147103168        2.8205750968
S             6.5021280509        8.9397825569        4.3741140594
S             6.6177755554        9.0498956126        1.1429732889
Mo            3.4266437295        1.7486600125        2.7784091930
S             4.9274150196        0.7680874620        4.4152951053
S             5.0458635174        0.8502539642        1.2166031671
Mo            4.9837936752        4.5161260335        2.6346327137
S             3.4343237577        3.6768169520        4.2812906947
S             3.4325036395        3.5432961459        1.0750310066
Mo            3.4638586816        7.2126924310        2.6263186930
S             4.9858770243        6.3201603360        1.0365751962
Mo            5.0039079329        9.8999571635        2.7376724773
S             3.4716959630        8.9502320225        4.3261773436
S             3.4082814625        9.0661317044        1.1027053420
Mo            0.2836749195        1.7466111824        2.8306669401
S             1.8671507628        0.8139298446        4.4009634659
S             1.8502991667        0.8540773371        1.2035906582
Mo            1.8556664903        4.4899533347        2.6697648415
S             0.2721885419        3.6524779538        4.3308509137
S             0.2337997751        3.5279517674        1.1673644711
Mo            0.2678342491        7.2268510559        2.6999788511
S             1.9025543052        6.3117199410        4.2386111454
S             1.8519733528        6.3171526198        1.0548698395
Mo            1.8588388976        9.9356797708        2.7686082218
S             0.2973633919        9.0403791571        4.3974336131
S             0.2666685972        9.0529053095        1.1648818713
H             4.2294734951       10.9629108369        5.4441651161



     Writing config-only to output data dir ./MoS2-V-O.save/
     NEW-OLD atomic charge density approx. for the potential

     negative rho (up, down):  1.483E-04 0.000E+00

     total cpu time spent up to now is      175.5 secs

     Self-consistent Calculation

     iteration #  1     ecut=    80.00 Ry     beta= 0.70
     Davidson diagonalization with overlap
     c_bands:  1 eigenvalues not converged
     ethr =  1.00E-06,  avg # of iterations = 20.0

     negative rho (up, down):  6.687E-05 0.000E+00

     total cpu time spent up to now is      188.4 secs

     total energy              =   -2205.56238971 Ry
     estimated scf accuracy    <       0.00219136 Ry

     iteration #  2     ecut=    80.00 Ry     beta= 0.70
     Davidson diagonalization with overlap
     ethr =  7.14E-07,  avg # of iterations =  2.0

     negative rho (up, down):  5.083E-05 0.000E+00

     total cpu time spent up to now is      203.0 secs

     total energy              =   -2205.56244556 Ry
     estimated scf accuracy    <       0.00066681 Ry

     iteration #  3     ecut=    80.00 Ry     beta= 0.70
     Davidson diagonalization with overlap
     ethr =  2.17E-07,  avg # of iterations =  2.0

     negative rho (up, down):  3.389E-05 0.000E+00

     total cpu time spent up to now is      217.0 secs

     total energy              =   -2205.56247157 Ry
     estimated scf accuracy    <       0.00031523 Ry

     iteration #  4     ecut=    80.00 Ry     beta= 0.70
     Davidson diagonalization with overlap
     ethr =  1.03E-07,  avg # of iterations =  2.0

     negative rho (up, down):  2.934E-05 0.000E+00

     total cpu time spent up to now is      228.1 secs

     total energy              =   -2205.56249425 Ry
     estimated scf accuracy    <       0.00001938 Ry

     iteration #  5     ecut=    80.00 Ry     beta= 0.70
     Davidson diagonalization with overlap
     ethr =  6.31E-09,  avg # of iterations =  7.0

     negative rho (up, down):  2.936E-05 0.000E+00

     total cpu time spent up to now is      242.2 secs

     total energy              =   -2205.56249981 Ry
     estimated scf accuracy    <       0.00000843 Ry

     iteration #  6     ecut=    80.00 Ry     beta= 0.70
     Davidson diagonalization with overlap
     ethr =  2.75E-09,  avg # of iterations =  3.0

     negative rho (up, down):  3.242E-05 0.000E+00

     total cpu time spent up to now is      255.6 secs

     total energy              =   -2205.56250041 Ry
     estimated scf accuracy    <       0.00000219 Ry

     iteration #  7     ecut=    80.00 Ry     beta= 0.70
     Davidson diagonalization with overlap
     ethr =  7.14E-10,  avg # of iterations =  5.0

     negative rho (up, down):  3.738E-05 0.000E+00

     total cpu time spent up to now is      266.3 secs

     total energy              =   -2205.56250069 Ry
     estimated scf accuracy    <       0.00000060 Ry

     iteration #  8     ecut=    80.00 Ry     beta= 0.70
     Davidson diagonalization with overlap
     ethr =  1.94E-10,  avg # of iterations =  2.0

     negative rho (up, down):  6.286E-05 0.000E+00

     total cpu time spent up to now is      276.6 secs

     total energy              =   -2205.56250063 Ry
     estimated scf accuracy    <       0.00000027 Ry

     iteration #  9     ecut=    80.00 Ry     beta= 0.70
     Davidson diagonalization with overlap
     ethr =  8.90E-11,  avg # of iterations =  3.0

     negative rho (up, down):  8.729E-05 0.000E+00

     total cpu time spent up to now is      289.2 secs

     total energy              =   -2205.56250058 Ry
     estimated scf accuracy    <       0.00000006 Ry

     iteration # 10     ecut=    80.00 Ry     beta= 0.70
     Davidson diagonalization with overlap
     ethr =  1.96E-11,  avg # of iterations =  5.0

     negative rho (up, down):  1.379E-04 0.000E+00

     total cpu time spent up to now is      291.5 secs

     End of self-consistent calculation

          k = 0.0000 0.0000 0.0000 (105382 PWs)   bands (ev):

   -62.8457 -62.8344 -62.8187 -62.8160 -62.8058 -62.7955 -62.7847 -62.7549
   -62.7385 -62.7161 -62.6919 -62.6635 -37.1871 -37.1194 -37.1031 -37.0973
   -37.0918 -37.0725 -37.0506 -37.0324 -37.0266 -37.0189 -37.0148 -37.0135
   -36.9975 -36.9852 -36.9803 -36.9732 -36.9715 -36.9620 -36.9600 -36.9409
   -36.9185 -36.9035 -36.8934 -36.8715 -36.8669 -36.8588 -36.8508 -36.8456
   -36.8365 -36.8253 -36.8202 -36.8021 -36.7996 -36.7618 -36.6747 -36.6463
   -16.1204 -15.5603 -15.1469 -14.9990 -14.9143 -14.8209 -14.5734 -14.4654
   -14.4250 -14.3858 -14.3593 -14.3458 -14.2914 -14.2457 -14.1167 -14.0897
   -14.0797 -14.0735 -14.0337 -13.8590 -13.8045 -13.7834 -13.7454  -8.6668
    -7.5924  -7.3690  -7.2445  -7.2341  -7.1995  -7.1689  -7.1101  -7.0762
    -6.8181  -6.7324  -6.6941  -6.6176  -6.5726  -6.5004  -6.4299  -6.3851
    -6.3188  -6.2300  -6.1669  -5.9313  -5.8881  -5.8692  -5.7769  -5.7661
    -5.7264  -5.7061  -5.6287  -5.6184  -5.5859  -5.5577  -5.4819  -5.4065
    -5.3806  -5.3045  -5.1893  -5.0843  -5.0157  -4.9636  -4.9500  -4.9186
    -4.8737  -4.7974  -4.6746  -4.5453  -4.4430  -4.2955  -4.2618  -4.1990
    -4.1706  -4.1023  -4.0153  -3.9534  -3.7959  -3.7372  -3.6660  -3.6361
    -3.6150  -3.5094  -3.4751  -3.4647  -3.4491  -3.4280  -3.4089  -3.3619
    -3.3087  -3.2332  -3.1071  -2.8810  -2.8471  -2.7567  -2.7321  -2.7218
    -2.6854  -2.6677  -2.6161  -2.5736  -2.5112  -2.2337  -2.0043  -1.9523
    -1.9069  -0.8298  -0.7207  -0.6315  -0.1612  -0.0976  -0.0798   0.0122
     0.0996   0.1567   0.1958   0.2365   0.2977   0.3189   0.4569   0.4979
     0.5425   0.5841   0.5928   0.6314   0.6615   0.6900   0.7509   0.7658
     0.7970   0.8792   0.8888   0.9299   1.0020   1.0076   1.0839   1.2234
     1.4224

     the Fermi energy is    -0.8530 ev

!    total energy              =   -2205.56250048 Ry
     estimated scf accuracy    <       0.00000002 Ry
     smearing contrib. (-TS)   =      -0.00807117 Ry
     internal energy E=F+TS    =   -2205.55442931 Ry

     The total energy is F=E-TS. E is the sum of the following terms:
     one-electron contribution =  -18042.20820056 Ry
     hartree contribution      =    9008.23582789 Ry
     xc contribution           =    -385.30065638 Ry
     ewald contribution        =    7213.71859974 Ry

     convergence has been achieved in  10 iterations

     negative rho (up, down):  1.379E-04 0.000E+00

     Forces acting on atoms (cartesian axes, Ry/au):

     atom    1 type  1   force =    -0.00360870   -0.00243887   -0.00544888
     atom    2 type  2   force =    -0.00399186    0.00726849   -0.00335516
     atom    3 type  2   force =    -0.00627404    0.00478958   -0.01434293
     atom    4 type  1   force =     0.00361593    0.00216181    0.00117774
     atom    5 type  2   force =     0.00248252   -0.00534536   -0.00329862
     atom    6 type  2   force =     0.00411083    0.00581062   -0.00106407
     atom    7 type  1   force =     0.00332563   -0.00508825    0.00177508
     atom    8 type  2   force =     0.00134283   -0.00298011    0.00829173
     atom    9 type  2   force =     0.00929848    0.00317095    0.00396671
     atom   10 type  1   force =    -0.00131966    0.00740226    0.00010936
     atom   11 type  2   force =     0.00376975   -0.00261725   -0.00866508
     atom   12 type  2   force =    -0.00243395   -0.00104875   -0.00125856
     atom   13 type  1   force =    -0.00015703   -0.00055698    0.00424564
     atom   14 type  2   force =    -0.00624896   -0.01073646    0.01456623
     atom   15 type  2   force =    -0.00350074    0.00250159   -0.00069126
     atom   16 type  1   force =     0.00304731   -0.00072118    0.00179896
     atom   17 type  2   force =     0.00444647    0.00288017    0.00234058
     atom   18 type  2   force =    -0.00276388   -0.00236035    0.00859558
     atom   19 type  1   force =     0.00234083   -0.00071244    0.00335924
     atom   20 type  2   force =     0.00201652   -0.00449123   -0.00331033
     atom   21 type  1   force =    -0.00285539   -0.00264310    0.00238875
     atom   22 type  2   force =    -0.00036812   -0.00437329   -0.00189150
     atom   23 type  2   force =     0.00047230   -0.00087629   -0.00024088
     atom   24 type  1   force =    -0.00293640   -0.00201512   -0.00237168
     atom   25 type  2   force =     0.00133219    0.00998132   -0.00465209
     atom   26 type  2   force =    -0.00141790   -0.00042256   -0.00246075
     atom   27 type  1   force =    -0.00110355    0.00048964    0.00492055
     atom   28 type  2   force =    -0.00081378   -0.00325866   -0.00278240
     atom   29 type  2   force =     0.00141229    0.00230744   -0.00389947
     atom   30 type  1   force =    -0.00056426   -0.00273277    0.00484559
     atom   31 type  2   force =     0.00090016   -0.00004211    0.00500146
     atom   32 type  2   force =    -0.00489012    0.00269154    0.00649823
     atom   33 type  1   force =     0.00013898    0.00121465    0.00264409
     atom   34 type  2   force =    -0.00173921   -0.01815169   -0.01296454
     atom   35 type  2   force =    -0.00346276    0.00682435    0.00368808
     atom   36 type  3   force =     0.00639729    0.01411838   -0.00751542
     The non-local contrib.  to forces
     atom    1 type  1   force =    -0.00088661    0.01717485   -0.01504248
     atom    2 type  2   force =     0.00435988   -0.00463331   -0.25710825
     atom    3 type  2   force =    -0.00885693   -0.00244527    0.26268217
     atom    4 type  1   force =     0.00304698    0.00922995    0.00337593
     atom    5 type  2   force =     0.01008392   -0.02596627   -0.25124035
     atom    6 type  2   force =     0.00406743    0.00326812    0.26613882
     atom    7 type  1   force =    -0.02285015   -0.00531815   -0.02157958
     atom    8 type  2   force =     0.00483684   -0.00257131   -0.25979443
     atom    9 type  2   force =     0.00307838   -0.01133203    0.27115592
     atom   10 type  1   force =     0.00176954   -0.00161370   -0.00155552
     atom   11 type  2   force =     0.00609282    0.00422236   -0.25799324
     atom   12 type  2   force =    -0.01470778   -0.01902604    0.26196615
     atom   13 type  1   force =     0.00291611    0.02344188   -0.01236953
     atom   14 type  2   force =    -0.16527572   -0.16690001    0.03367846
     atom   15 type  2   force =    -0.00833150   -0.00898150    0.27046245
     atom   16 type  1   force =    -0.00268196    0.04135901   -0.02546994
     atom   17 type  2   force =     0.00159357   -0.03097629   -0.24662641
     atom   18 type  2   force =    -0.00316967   -0.00288776    0.27091462
     atom   19 type  1   force =     0.01498363   -0.00872708   -0.01917082
     atom   20 type  2   force =    -0.00080281   -0.01991968    0.26228424
     atom   21 type  1   force =     0.00286828    0.02027225    0.00265393
     atom   22 type  2   force =    -0.00987848    0.00629509   -0.22826995
     atom   23 type  2   force =     0.00858888   -0.01677570    0.26373831
     atom   24 type  1   force =     0.00293568    0.01788092   -0.00791101
     atom   25 type  2   force =     0.00552509   -0.00085004   -0.25919371
     atom   26 type  2   force =     0.00674950   -0.01070290    0.26639420
     atom   27 type  1   force =    -0.00501702    0.00872738    0.00832402
     atom   28 type  2   force =    -0.00385874   -0.02434675   -0.27336933
     atom   29 type  2   force =     0.00501722    0.00012233    0.26433626
     atom   30 type  1   force =    -0.00172987    0.01777405    0.00969702
     atom   31 type  2   force =    -0.00701537    0.00012076   -0.26055430
     atom   32 type  2   force =     0.00068053   -0.01349434    0.27353427
     atom   33 type  1   force =    -0.00261003    0.00342232    0.00303751
     atom   34 type  2   force =    -0.00288216   -0.01578140   -0.27614223
     atom   35 type  2   force =     0.00093447   -0.00907366    0.26724860
     atom   36 type  3   force =     0.02267429    0.02461238   -0.03469904
     The ionic contribution  to forces
     atom    1 type  1   force =    -0.72966171    0.31390643    5.18595952
     atom    2 type  2   force =    -0.43679185    0.19220813   39.38058486
     atom    3 type  2   force =    -0.04859068   -0.06729390  -36.45328580
     atom    4 type  1   force =    -0.02542065    0.67893350    0.87765659
     atom    5 type  2   force =    -1.00377016    1.42094051   38.64340501
     atom    6 type  2   force =     0.23214422   -0.42937744  -37.99980815
[...]
     atom   27 type  1   force =    -0.00559075    0.00777036    0.00401676
     atom   28 type  2   force =     0.00208251   -0.01374986   -0.27338292
     atom   29 type  2   force =    -0.00244212   -0.00863846    0.26929984
     atom   30 type  1   force =    -0.00134178    0.01982112    0.00667643
     atom   31 type  2   force =    -0.00539052   -0.00123568   -0.26380755
     atom   32 type  2   force =     0.00782725   -0.01253265    0.26844030
     atom   33 type  1   force =    -0.00253477    0.00326663    0.00183865
     atom   34 type  2   force =     0.00202584   -0.00717420   -0.27059043
     atom   35 type  2   force =     0.00004572   -0.00991462    0.26767839
     atom   36 type  3   force =     0.02843554    0.02101757   -0.04087417
     The ionic contribution  to forces
     atom    1 type  1   force =    -1.19375929   -0.18016720    0.48413838
     atom    2 type  2   force =    -0.41821766    0.06544786   38.51011807
     atom    3 type  2   force =     0.10937331   -0.24017070  -37.87065476
     atom    4 type  1   force =    -0.10508438    0.50874676    0.29049603
     atom    5 type  2   force =    -0.83805296    1.06958053   38.33845097
     atom    6 type  2   force =     0.04291750   -0.15858847  -38.56414875
     atom    7 type  1   force =    -2.93547719   -1.97844668    2.55497310
     atom    8 type  2   force =    -1.18165013    0.06039078   38.25918348
     atom    9 type  2   force =     0.30219867    0.08436026  -37.99172420
     atom   10 type  1   force =    -0.65185801   -0.35443012    2.33316529
     atom   11 type  2   force =    -0.22660213   -1.48748372   38.45844117
     atom   12 type  2   force =     0.06186897    0.35748548  -37.87390517
     atom   13 type  1   force =     0.76187090    1.05732412    4.33273671
     atom   14 type  2   force =     1.66815074    1.01627702   37.85776316
     atom   15 type  2   force =    -0.13068842   -0.23019385  -36.81029116
     atom   16 type  1   force =    -0.34149346    3.67844695    1.52081543
     atom   17 type  2   force =     0.92857527    1.45694080   38.36037744
     atom   18 type  2   force =    -0.20347534   -0.39057508  -37.73620240
     atom   19 type  1   force =     2.85527052   -2.46141978    2.40026285
     atom   20 type  2   force =    -0.09789933   -0.01436772  -38.35084698
     atom   21 type  1   force =     0.69207746    0.12729030    1.67561179
     atom   22 type  2   force =     0.27043304   -1.94276392   38.47342215
     atom   23 type  2   force =    -0.15416966    0.35116403  -37.96219527
     atom   24 type  1   force =     0.05506623    0.44074461    2.10768169
     atom   25 type  2   force =    -0.36449064    0.17115143   38.77907342
     atom   26 type  2   force =     0.07599895   -0.00530568  -37.36553643
     atom   27 type  1   force =     0.41250455    0.48044167    0.84017768
     atom   28 type  2   force =    -0.06437771    0.54707723   38.13955799
     atom   29 type  2   force =     0.15420601   -0.07849091  -37.63223074
     atom   30 type  1   force =     0.06576042   -0.63379575    1.81719331
     atom   31 type  2   force =     1.17272822    0.06491878   38.16088525
     atom   32 type  2   force =    -0.22144495   -0.03800569  -37.82680983
     atom   33 type  1   force =     0.18989902   -0.56106435    2.68106322
     atom   34 type  2   force =    -0.15198144   -0.51110244   38.76126806
     atom   35 type  2   force =     0.02245487    0.17046240  -37.51574259
     atom   36 type  3   force =    -0.56063200   -0.44187894    8.36343165
     The local contribution  to forces
     atom    1 type  1   force =     1.19586052    0.16658506   -0.48137627
     atom    2 type  2   force =     0.40824141   -0.05318092  -38.27787072
     atom    3 type  2   force =    -0.10520404    0.24235350   37.62320905
     atom    4 type  1   force =     0.10178827   -0.51496636   -0.29344477
     atom    5 type  2   force =     0.83200825   -1.05974163  -38.11049015
     atom    6 type  2   force =    -0.04554880    0.16705996   38.31773096
     atom    7 type  1   force =     2.95131782    1.97884204   -2.53452825
     atom    8 type  2   force =     1.17454378   -0.06369437  -38.01671488
     atom    9 type  2   force =    -0.29685484   -0.07213177   37.74482719
     atom   10 type  1   force =     0.65041054    0.35117297   -2.33664777
     atom   11 type  2   force =     0.22651671    1.48509414  -38.22503832
     atom   12 type  2   force =    -0.05507881   -0.34231382   37.62947951
     atom   13 type  1   force =    -0.76474435   -1.08119290   -4.32152562
     atom   14 type  2   force =    -1.46592976   -0.88144027  -37.88237289
     atom   15 type  2   force =     0.13007567    0.24207854   36.56174257
     atom   16 type  1   force =     0.33793561   -3.71532063   -1.49283961
     atom   17 type  2   force =    -0.92450487   -1.42724741  -38.13086919
     atom   18 type  2   force =     0.20366395    0.39304898   37.49115407
     atom   19 type  1   force =    -2.86824477    2.46602968   -2.37789809
     atom   20 type  2   force =     0.09758806    0.02839756   38.10753458
     atom   21 type  1   force =    -0.69453797   -0.15011402   -1.67288260
     atom   22 type  2   force =    -0.25823086    1.93856480  -38.25491067
     atom   23 type  2   force =     0.14804095   -0.33525868   37.71808678
     atom   24 type  1   force =    -0.05366971   -0.45745351   -2.11013139
     atom   25 type  2   force =     0.35872539   -0.16207872  -38.54594430
     atom   26 type  2   force =    -0.07680299    0.01411488   37.11862351
     atom   27 type  1   force =    -0.40727836   -0.48842633   -0.84421173
     atom   28 type  2   force =     0.06202376   -0.53482803  -37.88635879
     atom   29 type  2   force =    -0.15258645    0.08714462   37.38375973
     atom   30 type  1   force =    -0.06462032    0.61292099   -1.82431347
     atom   31 type  2   force =    -1.16684901   -0.06541146  -37.91755617
     atom   32 type  2   force =     0.21571211    0.05040042   37.57841433
     atom   33 type  1   force =    -0.18696532    0.55774281   -2.68265117
     atom   34 type  2   force =     0.15062566    0.51772995  -38.51203879
     atom   35 type  2   force =    -0.02288993   -0.16026139   37.26932404
     atom   36 type  3   force =     0.53021426    0.42295566   -8.32348888
     The core correction contribution to forces
     atom    1 type  1   force =     0.00000000    0.00000000    0.00000000
     atom    2 type  2   force =    -0.00071999    0.00064797    0.02012042
     atom    3 type  2   force =     0.00037853   -0.00006284   -0.02094843
     atom    4 type  1   force =     0.00000000    0.00000000    0.00000000
     atom    5 type  2   force =    -0.00043892    0.00040492    0.02008845
     atom    6 type  2   force =    -0.00001167    0.00019668   -0.02101329
     atom    7 type  1   force =     0.00000000    0.00000000    0.00000000
     atom    8 type  2   force =    -0.00032001    0.00012300    0.02071206
     atom    9 type  2   force =     0.00062604    0.00067112   -0.02086433
     atom   10 type  1   force =     0.00000000    0.00000000    0.00000000
     atom   11 type  2   force =     0.00035350   -0.00051853    0.02020294
     atom   12 type  2   force =     0.00050396    0.00102165   -0.02088297
     atom   13 type  1   force =     0.00000000    0.00000000    0.00000000
     atom   14 type  2   force =     0.01396809    0.00910755    0.00121979
     atom   15 type  2   force =    -0.00029626    0.00038423   -0.02094925
     atom   16 type  1   force =     0.00000000    0.00000000    0.00000000
     atom   17 type  2   force =     0.00045553    0.00170107    0.02002228
     atom   18 type  2   force =    -0.00009295   -0.00041097   -0.02079804
     atom   19 type  1   force =     0.00000000    0.00000000    0.00000000
     atom   20 type  2   force =    -0.00002696    0.00068208   -0.02116177
     atom   21 type  1   force =     0.00000000    0.00000000    0.00000000
     atom   22 type  2   force =     0.00018547   -0.00082169    0.01937785
     atom   23 type  2   force =    -0.00058681    0.00116372   -0.02088787
     atom   24 type  1   force =     0.00000000    0.00000000    0.00000000
     atom   25 type  2   force =    -0.00067326    0.00037002    0.02012185
     atom   26 type  2   force =     0.00001885    0.00045474   -0.02094282
     atom   27 type  1   force =     0.00000000    0.00000000    0.00000000
     atom   28 type  2   force =    -0.00018409    0.00092233    0.02106174
     atom   29 type  2   force =     0.00013993    0.00024983   -0.02085241
     atom   30 type  1   force =     0.00000000    0.00000000    0.00000000
     atom   31 type  2   force =     0.00024822    0.00032566    0.02074088
     atom   32 type  2   force =    -0.00067010    0.00063490   -0.02091602
     atom   33 type  1   force =     0.00000000    0.00000000    0.00000000
     atom   34 type  2   force =    -0.00020205    0.00027954    0.02100750
     atom   35 type  2   force =    -0.00001121    0.00066708   -0.02096490
     atom   36 type  3   force =     0.00000000    0.00000000    0.00000000
     The Hubbard contrib.    to forces
     atom    1 type  1   force =     0.00000000    0.00000000    0.00000000
     atom    2 type  2   force =     0.00000000    0.00000000    0.00000000
     atom    3 type  2   force =     0.00000000    0.00000000    0.00000000
     atom    4 type  1   force =     0.00000000    0.00000000    0.00000000
     atom    5 type  2   force =     0.00000000    0.00000000    0.00000000
     atom    6 type  2   force =     0.00000000    0.00000000    0.00000000
     atom    7 type  1   force =     0.00000000    0.00000000    0.00000000
     atom    8 type  2   force =     0.00000000    0.00000000    0.00000000
     atom    9 type  2   force =     0.00000000    0.00000000    0.00000000
     atom   10 type  1   force =     0.00000000    0.00000000    0.00000000
     atom   11 type  2   force =     0.00000000    0.00000000    0.00000000
     atom   12 type  2   force =     0.00000000    0.00000000    0.00000000
     atom   13 type  1   force =     0.00000000    0.00000000    0.00000000
     atom   14 type  2   force =     0.00000000    0.00000000    0.00000000
     atom   15 type  2   force =     0.00000000    0.00000000    0.00000000
     atom   16 type  1   force =     0.00000000    0.00000000    0.00000000
     atom   17 type  2   force =     0.00000000    0.00000000    0.00000000
     atom   18 type  2   force =     0.00000000    0.00000000    0.00000000
     atom   19 type  1   force =     0.00000000    0.00000000    0.00000000
     atom   20 type  2   force =     0.00000000    0.00000000    0.00000000
     atom   21 type  1   force =     0.00000000    0.00000000    0.00000000
     atom   22 type  2   force =     0.00000000    0.00000000    0.00000000
     atom   23 type  2   force =     0.00000000    0.00000000    0.00000000
     atom   24 type  1   force =     0.00000000    0.00000000    0.00000000
     atom   25 type  2   force =     0.00000000    0.00000000    0.00000000
     atom   26 type  2   force =     0.00000000    0.00000000    0.00000000
     atom   27 type  1   force =     0.00000000    0.00000000    0.00000000
     atom   28 type  2   force =     0.00000000    0.00000000    0.00000000
     atom   29 type  2   force =     0.00000000    0.00000000    0.00000000
     atom   30 type  1   force =     0.00000000    0.00000000    0.00000000
     atom   31 type  2   force =     0.00000000    0.00000000    0.00000000
     atom   32 type  2   force =     0.00000000    0.00000000    0.00000000
     atom   33 type  1   force =     0.00000000    0.00000000    0.00000000
     atom   34 type  2   force =     0.00000000    0.00000000    0.00000000
     atom   35 type  2   force =     0.00000000    0.00000000    0.00000000
     atom   36 type  3   force =     0.00000000    0.00000000    0.00000000
     The SCF correction term to forces
     atom    1 type  1   force =     0.00001909    0.00001156   -0.00001874
     atom    2 type  2   force =     0.00000715    0.00000829   -0.00002083
     atom    3 type  2   force =     0.00000067   -0.00000008    0.00000306
     atom    4 type  1   force =     0.00000473    0.00002039   -0.00002377
     atom    5 type  2   force =     0.00001008    0.00000864   -0.00001321
     atom    6 type  2   force =     0.00000137    0.00001167   -0.00000215
     atom    7 type  1   force =     0.00001043   -0.00001716   -0.00003890
     atom    8 type  2   force =    -0.00000872   -0.00000469   -0.00002056
     atom    9 type  2   force =    -0.00001065   -0.00000072   -0.00000247
     atom   10 type  1   force =     0.00000440   -0.00002402   -0.00003078
     atom   11 type  2   force =     0.00001092   -0.00001512   -0.00002721
     atom   12 type  2   force =    -0.00000087   -0.00001461   -0.00000284
     atom   13 type  1   force =    -0.00000367    0.00001481   -0.00004385
     atom   14 type  2   force =     0.00000770   -0.00000170   -0.00002998
     atom   15 type  2   force =     0.00000225   -0.00000419   -0.00000798
     atom   16 type  1   force =     0.00001481    0.00002684   -0.00003191
     atom   17 type  2   force =    -0.00000451    0.00000850   -0.00001562
     atom   18 type  2   force =    -0.00000689    0.00001553   -0.00001096
     atom   19 type  1   force =     0.00000351   -0.00000507   -0.00005894
     atom   20 type  2   force =     0.00000138    0.00000837   -0.00000903
     atom   21 type  1   force =     0.00000328   -0.00003072   -0.00005036
     atom   22 type  2   force =    -0.00000085   -0.00000902   -0.00003184
     atom   23 type  2   force =     0.00000146   -0.00001538   -0.00001178
     atom   24 type  1   force =    -0.00000870    0.00001181   -0.00001406
     atom   25 type  2   force =    -0.00001895    0.00000248   -0.00001817
     atom   26 type  2   force =    -0.00000248    0.00000066   -0.00000562
     atom   27 type  1   force =    -0.00000753    0.00001679   -0.00003859
     atom   28 type  2   force =    -0.00000764    0.00000262   -0.00001765
     atom   29 type  2   force =     0.00000046    0.00001349   -0.00000109
     atom   30 type  1   force =    -0.00000570   -0.00001420   -0.00003954
     atom   31 type  2   force =    -0.00000432   -0.00000541   -0.00002031
     atom   32 type  2   force =     0.00000684   -0.00000177   -0.00001480
     atom   33 type  1   force =    -0.00001455   -0.00001809   -0.00004140
     atom   34 type  2   force =    -0.00000732    0.00000463   -0.00001764
     atom   35 type  2   force =     0.00000107   -0.00001025   -0.00000340
     atom   36 type  3   force =    -0.00000020   -0.00000040   -0.00000271

     Total force =     0.007177     Total SCF correction =     0.000178
     Energy error            =      9.4E-05 Ry
     Gradient error          =      2.1E-03 Ry/Bohr

     bfgs converged in  17 scf cycles and  16 bfgs steps
     (criteria: energy <  1.0E-04 Ry, force <  1.0E-02 Ry/Bohr)

     End of BFGS Geometry Optimization

     Final energy             =   -2205.5752083530 Ry

     File ./MoS2-V-O.bfgs deleted, as requested
Begin final coordinates

ATOMIC_POSITIONS (angstrom)
Mo            6.5881927571        1.7860497587        2.7098749005
S             8.1165962756        0.8638284578        4.3453921870
S             8.1528586101        0.8394766832        1.1498036249
Mo            8.1309771486        4.5000479084        2.7063097403
S             6.5388816309        3.6591063245        4.3079573160
S             6.5780446042        3.5713641216        1.0786179003
Mo            6.5311153246        7.1774116400        2.6722489099
S             8.0975549872        6.3058144251        4.3025413449
S             8.1529351963        6.3290291320        1.1108592623
Mo            8.1307635894        9.9443145071        2.7613249483
S             6.5400368629        8.9323155602        4.3350302224
S             6.5854134569        9.0295823229        1.1269947039
Mo            3.4241544468        1.7474806185        2.8057780258
S             4.9252391408        0.7420732148        4.4580960627
S             4.9857542087        0.8329595912        1.2081182640
Mo            5.0140147151        4.5116523762        2.6543392935
S             3.4776472319        3.6824084252        4.3260290150
S             3.4386547605        3.5403559472        1.1310864165
Mo            3.4726244408        7.1850132494        2.6721110413
S             4.9989150017        6.3056343445        1.0573158254
Mo            4.9877164552        9.8809226809        2.7577834852
S             3.4570472076        8.9322093472        4.3411397347
S             3.4023123810        9.0295549049        1.1325633257
Mo            0.2638445683        1.7427473171        2.7673693103
S             1.8330893372        0.8462712027        4.3802620162
S             1.8668615371        0.8442990171        1.1916849689
Mo            1.8732161570        4.4900686382        2.7222650579
S             0.2659071300        3.6103422713        4.3152160572
S             0.2799678708        3.5586378631        1.1475741588
Mo            0.2700005302        7.2214525636        2.7378422324
S             1.9000917282        6.3078083084        4.3030466387
S             1.8508188081        6.3162215771        1.1202084379
Mo            1.8518009238        9.9352718307        2.7766006582
S             0.2539204316        9.0334326604        4.3612601004
S             0.2697554754        9.0528107333        1.1719709899
H             4.1686265246       11.1218768858        5.5081453596
End final coordinates



     Writing all to output data dir ./MoS2-V-O.save/
 
     init_run     :      2.42s CPU      2.60s WALL (       1 calls)
     electrons    :   1532.00s CPU   1699.02s WALL (      17 calls)
     update_pot   :     22.55s CPU     23.52s WALL (      16 calls)
     forces       :     22.84s CPU     25.85s WALL (      17 calls)

     Called by init_run:
     wfcinit      :      0.39s CPU      0.43s WALL (       1 calls)
     potinit      :      1.33s CPU      1.42s WALL (       1 calls)
     hinit0       :      0.17s CPU      0.19s WALL (       1 calls)

     Called by electrons:
     c_bands      :    189.84s CPU    192.65s WALL (     153 calls)
     sum_band     :     46.55s CPU     57.37s WALL (     153 calls)
     v_of_rho     :     62.96s CPU     74.94s WALL (     158 calls)
     newd         :     21.42s CPU     31.82s WALL (     158 calls)
     mix_rho      :   1218.51s CPU   1349.38s WALL (     153 calls)

     Called by c_bands:
     init_us_2    :      3.37s CPU      3.50s WALL (     307 calls)
     init_us_2:cp :      3.37s CPU      3.50s WALL (     307 calls)
     regterg      :    178.66s CPU    181.33s WALL (     153 calls)

     Called by *egterg:
     rdiaghg      :     14.32s CPU     14.49s WALL (     848 calls)
     h_psi        :    100.77s CPU    101.68s WALL (     877 calls)
     s_psi        :     12.54s CPU     12.62s WALL (     877 calls)
     g_psi        :      0.95s CPU      0.96s WALL (     723 calls)

     Called by h_psi:
     h_psi:calbec :     14.11s CPU     14.16s WALL (     877 calls)
     vloc_psi     :     72.52s CPU     73.32s WALL (     877 calls)
     add_vuspsi   :     12.42s CPU     12.47s WALL (     877 calls)

     General routines
     calbec       :     20.04s CPU     20.11s WALL (    1098 calls)
     fft          :     42.47s CPU     49.09s WALL (   10635 calls)
     ffts         :    536.82s CPU    663.43s WALL (  298025 calls)
     fftw         :     64.32s CPU     64.96s WALL (   91479 calls)
     interpolate  :      1.13s CPU      1.32s WALL (     158 calls)
 
     Parallel routines
 
     PWSCF        :  26m22.90s CPU  29m16.31s WALL

 
   This run was terminated on:  11:41: 0   4Nov2023            

=------------------------------------------------------------------------------=
   JOB DONE.
=------------------------------------------------------------------------------=
