
     Program PWSCF v.7.2 starts on  4Nov2023 at  3:40:48 

     This program is part of the open-source Quantum ESPRESSO suite
     for quantum simulation of materials; please cite
         "P. Giannozzi et al., J. Phys.:Condens. Matter 21 395502 (2009);
         "P. Giannozzi et al., J. Phys.:Condens. Matter 29 465901 (2017);
         "P. Giannozzi et al., J. Chem. Phys. 152 154105 (2020);
          URL http://www.quantum-espresso.org", 
     in publications or presentations arising from this work. More details at
     http://www.quantum-espresso.org/quote

     Parallel version (MPI & OpenMP), running on      48 processor cores
     Number of MPI processes:                48
     Threads/MPI process:                     1

     MPI processes distributed on     1 nodes
     89184 MiB available memory on the printing compute node when the environment starts
 
     Waiting for input...
     Reading input from standard input
Warning: card &CELL ignored
Warning: card CELL_DYNAMICS = 'BFGS', ignored
Warning: card CELL_DOFREE = '2DXY' ignored
Warning: card / ignored

     Current dimensions of program PWSCF are:
     Max number of different atomic species (ntypx) = 10
     Max number of k-points (npk) =  40000
     Max angular momentum in pseudopotentials (lmaxx) =  4

     IMPORTANT: XC functional enforced from input :
     Exchange-correlation= RVV10
                           (   1   4  13   4  26   0   0)
     Any further DFT definition will be discarded
     Please, verify this is what you really want


     gamma-point specific algorithms are used
     signal trapping enabled: kill the code with -SIGUSR1 to stop cleanly the simulation 
 
     R & G space division:  proc/nbgrp/npool/nimage =      48
     Subspace diagonalization in iterative solution of the eigenvalue problem:
     one sub-group per band group will be used
     scalapack distributed-memory algorithm (size of sub-group:  2*  2 procs)

 
     Parallelization info
     --------------------
     sticks:   dense  smooth     PW     G-vecs:    dense   smooth      PW
     Min         243     194     47                49060    35090    4376
     Max         246     196     50                49086    35128    4410
     Sum       11735    9389   2349              2355467  1685513  210763
 
     Using Slab Decomposition
 


     bravais-lattice index     =            0
     lattice parameter (alat)  =      17.8707  a.u.
     unit-cell volume          =   17436.2743 (a.u.)^3
     number of atoms/cell      =           36
     number of atomic types    =            3
     number of electrons       =       307.00
     number of Kohn-Sham states=          185
     kinetic-energy cutoff     =      80.0000  Ry
     charge density cutoff     =     400.0000  Ry
     scf convergence threshold =      1.0E-06
     mixing beta               =       0.7000
     number of iterations used =            8  local-TF  mixing
     energy convergence thresh.=      1.0E-04
     force convergence thresh. =      1.0E-02
     Exchange-correlation= RVV10
                           (   1   4  13   4  26   0   0)
     nstep                     =          200


     celldm(1)=  17.870686  celldm(2)=   0.000000  celldm(3)=   0.000000
     celldm(4)=   0.000000  celldm(5)=   0.000000  celldm(6)=   0.000000

     crystal axes: (cart. coord. in units of alat)
               a(1) = (   1.000000   0.000000   0.000000 )  
               a(2) = (   0.000000   1.155671   0.000000 )  
               a(3) = (   0.000000   0.000000   2.643601 )  

     reciprocal axes: (cart. coord. in units 2 pi/alat)
               b(1) = (  1.000000  0.000000  0.000000 )  
               b(2) = (  0.000000  0.865298  0.000000 )  
               b(3) = (  0.000000  0.000000  0.378272 )  


     PseudoPot. # 1 for Mo read from file:
     ../pseudo/Mo_ONCV_PBE-1.0.oncvpsp.upf
     MD5 check sum: 1b5d28e075c9ccadda658a603575cd1f
     Pseudo is Norm-conserving, Zval = 14.0
     Generated using ONCVPSP code by D. R. Hamann
     Using radial grid of 1526 points,  6 beta functions with: 
                l(1) =   0
                l(2) =   0
                l(3) =   1
                l(4) =   1
                l(5) =   2
                l(6) =   2

     PseudoPot. # 2 for S  read from file:
     ../pseudo/s_pbe_v1.4.uspp.F.UPF
     MD5 check sum: 88d86576ff6df21479756cfb9bdac1df
     Pseudo is Ultrasoft + core correction, Zval =  6.0
     Generated by new atomic code, or converted to UPF format
     Using radial grid of  907 points,  6 beta functions with: 
                l(1) =   0
                l(2) =   0
                l(3) =   1
                l(4) =   1
                l(5) =   2
                l(6) =   2
     Q(r) pseudized with  8 coefficients,  rinner =    1.300   1.300   1.300
                                                       1.300   1.300

     PseudoPot. # 3 for H  read from file:
     ../pseudo/H_ONCV_PBE-1.0.oncvpsp.upf
     MD5 check sum: 1790becc920ee074925cf490c71280fe
     Pseudo is Norm-conserving, Zval =  1.0
     Generated using ONCVPSP code by D. R. Hamann
     Using radial grid of 1166 points,  2 beta functions with: 
                l(1) =   0
                l(2) =   0

     atomic species   valence    mass     pseudopotential
        Mo            14.00    95.94000     Mo( 1.00)
        S              6.00    32.06500     S ( 1.00)
        H              1.00     1.00794     H ( 1.00)

     No symmetry found



   Cartesian axes

     site n.     atom                  positions (alat units)
         1           Mo  tau(   1) = (   0.6952221   0.1890506   0.2985846  )
         2           S   tau(   2) = (   0.8646417   0.0856217   0.4689279  )
         3           S   tau(   3) = (   0.8663890   0.0857843   0.1351291  )
         4           Mo  tau(   4) = (   0.8560186   0.4753274   0.2873942  )
         5           S   tau(   5) = (   0.6873294   0.3936244   0.4596353  )
         6           S   tau(   6) = (   0.6929804   0.3713468   0.1185692  )
         7           Mo  tau(   7) = (   0.6862796   0.7633098   0.2825370  )
         8           S   tau(   8) = (   0.8545980   0.6708292   0.4486168  )
         9           S   tau(   9) = (   0.8545123   0.6666874   0.1146125  )
        10           Mo  tau(  10) = (   0.8629403   1.0471007   0.3006803  )
        11           S   tau(  11) = (   0.6868280   0.9456650   0.4634891  )
        12           S   tau(  12) = (   0.6998113   0.9568511   0.1205389  )
        13           Mo  tau(  13) = (   0.3618216   0.1847309   0.2935964  )
        14           S   tau(  14) = (   0.5260962   0.0863870   0.4600448  )
        15           S   tau(  15) = (   0.5348379   0.0894875   0.1297123  )
        16           Mo  tau(  16) = (   0.5265817   0.4772436   0.2784130  )
        17           S   tau(  17) = (   0.3624753   0.3882513   0.4525556  )
        18           S   tau(  18) = (   0.3635411   0.3752055   0.1119148  )
        19           Mo  tau(  19) = (   0.3652268   0.7630864   0.2781795  )
        20           S   tau(  20) = (   0.5269494   0.6690381   0.1096838  )
        21           Mo  tau(  21) = (   0.5300192   1.0470394   0.2900995  )
        22           S   tau(  22) = (   0.3670346   0.9457522   0.4574073  )
        23           S   tau(  23) = (   0.3604225   0.9585725   0.1159032  )
        24           Mo  tau(  24) = (   0.0313099   0.1847895   0.3013130  )
        25           S   tau(  25) = (   0.1956761   0.0838230   0.4650863  )
        26           S   tau(  26) = (   0.1967693   0.0903508   0.1278874  )
        27           Mo  tau(  27) = (   0.1967578   0.4753919   0.2813011  )
        28           S   tau(  28) = (   0.0287851   0.3864324   0.4586755  )
        29           S   tau(  29) = (   0.0244514   0.3729871   0.1239344  )
        30           Mo  tau(  30) = (   0.0286728   0.7631204   0.2856894  )
        31           S   tau(  31) = (   0.2011512   0.6675435   0.4465001  )
        32           S   tau(  32) = (   0.1969214   0.6672839   0.1104564  )
        33           Mo  tau(  33) = (   0.1950294   1.0511147   0.2932237  )
        34           S   tau(  34) = (   0.0312912   0.9612169   0.4667423  )
        35           S   tau(  35) = (   0.0292670   0.9563028   0.1216485  )
        36           H   tau(  36) = (   0.4444444   0.0000000   0.5650415  )

     number of k points=     1  Gaussian smearing, width (Ry)=  0.0100
                       cart. coord. in units 2pi/alat
        k(    1) = (   0.0000000   0.0000000   0.0000000), wk =   2.0000000

     Dense  grid:  1177734 G-vectors     FFT dimensions: ( 120, 135, 320)

     Smooth grid:   842757 G-vectors     FFT dimensions: ( 108, 120, 270)

     Estimated max dynamical RAM per process >     146.59 MB

     Estimated total dynamical RAM >       6.87 GB

     Initial potential from superposition of free atoms

     starting charge     306.9873, renormalised to     307.0000

     negative rho (up, down):  1.411E-04 0.000E+00


---------------------------------------------------------------------------------
Carrying out rVV10 run using the following parameters:
Nqs =      20    Nr_points =    1024   r_max =   100.000
b_value =  6.30000    beta =  0.00901
     q_mesh =  0.00010000  0.00030000  0.00058939  0.00100810
               0.00161396  0.00249058  0.00375900  0.00559430
               0.00824984  0.01209221  0.01765183  0.02569619
               0.03733578  0.05417739  0.07854596  0.11380545
               0.16482331  0.23864234  0.34545298  0.50000000

Gradients computed in Reciprocal space

---------------------------------------------------------------------------------


     Starting wfcs are  213 randomized atomic wfcs

     total cpu time spent up to now is        2.7 secs

     Self-consistent Calculation

     iteration #  1     ecut=    80.00 Ry     beta= 0.70
     Davidson diagonalization with overlap
     ethr =  1.00E-02,  avg # of iterations =  2.0

     Threshold (ethr) on eigenvalues was too large:
     Diagonalizing with lowered threshold

     Davidson diagonalization with overlap
     ethr =  3.94E-04,  avg # of iterations =  4.0

     negative rho (up, down):  1.473E-08 0.000E+00

     total cpu time spent up to now is       19.7 secs

     total energy              =   -2205.60775305 Ry
     estimated scf accuracy    <       1.50006466 Ry

     iteration #  2     ecut=    80.00 Ry     beta= 0.70
     Davidson diagonalization with overlap
     ethr =  4.89E-04,  avg # of iterations =  2.0

     total cpu time spent up to now is       22.0 secs

     total energy              =   -2205.48812983 Ry
     estimated scf accuracy    <       0.59988254 Ry

     iteration #  3     ecut=    80.00 Ry     beta= 0.70
     Davidson diagonalization with overlap
     ethr =  1.95E-04,  avg # of iterations =  4.0

     total cpu time spent up to now is       24.4 secs

     total energy              =   -2205.52058003 Ry
     estimated scf accuracy    <       0.21518993 Ry

     iteration #  4     ecut=    80.00 Ry     beta= 0.70
     Davidson diagonalization with overlap
     ethr =  7.01E-05,  avg # of iterations =  8.0

     total cpu time spent up to now is       27.0 secs

     total energy              =   -2205.54295075 Ry
     estimated scf accuracy    <       0.04137003 Ry

     iteration #  5     ecut=    80.00 Ry     beta= 0.70
     Davidson diagonalization with overlap
     c_bands:  1 eigenvalues not converged
     ethr =  1.35E-05,  avg # of iterations = 20.0

     total cpu time spent up to now is       29.8 secs

     total energy              =   -2205.54401000 Ry
     estimated scf accuracy    <       0.02114616 Ry

     iteration #  6     ecut=    80.00 Ry     beta= 0.70
     Davidson diagonalization with overlap
     ethr =  6.89E-06,  avg # of iterations =  2.0

     total cpu time spent up to now is       32.0 secs

     total energy              =   -2205.54300500 Ry
     estimated scf accuracy    <       0.01309940 Ry

     iteration #  7     ecut=    80.00 Ry     beta= 0.70
     Davidson diagonalization with overlap
     ethr =  4.27E-06,  avg # of iterations =  2.0

     total cpu time spent up to now is       34.1 secs

     total energy              =   -2205.54144586 Ry
     estimated scf accuracy    <       0.00810684 Ry

     iteration #  8     ecut=    80.00 Ry     beta= 0.70
     Davidson diagonalization with overlap
     c_bands:  1 eigenvalues not converged
     ethr =  2.64E-06,  avg # of iterations = 20.0

     negative rho (up, down):  2.946E-03 0.000E+00

     total cpu time spent up to now is       39.4 secs

     total energy              =   -2205.54088791 Ry
     estimated scf accuracy    <       0.00431448 Ry

     iteration #  9     ecut=    80.00 Ry     beta= 0.70
     Davidson diagonalization with overlap
     c_bands:  1 eigenvalues not converged
     ethr =  1.41E-06,  avg # of iterations = 20.0

     negative rho (up, down):  2.947E-02 0.000E+00

     total cpu time spent up to now is       44.7 secs

     total energy              =   -2205.54068694 Ry
     estimated scf accuracy    <       0.00262067 Ry

     iteration # 10     ecut=    80.00 Ry     beta= 0.70
     Davidson diagonalization with overlap
     ethr =  8.54E-07,  avg # of iterations =  2.0

     negative rho (up, down):  2.857E-02 0.000E+00

     total cpu time spent up to now is       49.0 secs

     total energy              =   -2205.54073944 Ry
     estimated scf accuracy    <       0.00105986 Ry

     iteration # 11     ecut=    80.00 Ry     beta= 0.70
     Davidson diagonalization with overlap
     ethr =  3.45E-07,  avg # of iterations =  2.0

     negative rho (up, down):  1.707E-02 0.000E+00

     total cpu time spent up to now is       53.7 secs

     total energy              =   -2205.54079129 Ry
     estimated scf accuracy    <       0.00020375 Ry

     iteration # 12     ecut=    80.00 Ry     beta= 0.70
     Davidson diagonalization with overlap
     ethr =  6.64E-08,  avg # of iterations = 14.0

     negative rho (up, down):  4.432E-03 0.000E+00

     total cpu time spent up to now is       59.7 secs

     total energy              =   -2205.54085061 Ry
     estimated scf accuracy    <       0.00005008 Ry

     iteration # 13     ecut=    80.00 Ry     beta= 0.70
     Davidson diagonalization with overlap
     ethr =  1.63E-08,  avg # of iterations =  4.0

     negative rho (up, down):  6.978E-04 0.000E+00

     total cpu time spent up to now is       67.8 secs

     total energy              =   -2205.54085884 Ry
     estimated scf accuracy    <       0.00000791 Ry

     iteration # 14     ecut=    80.00 Ry     beta= 0.70
     Davidson diagonalization with overlap
     ethr =  2.58E-09,  avg # of iterations =  5.0

     negative rho (up, down):  5.354E-04 0.000E+00

     total cpu time spent up to now is       77.3 secs

     total energy              =   -2205.54086590 Ry
     estimated scf accuracy    <       0.00000159 Ry

     iteration # 15     ecut=    80.00 Ry     beta= 0.70
     Davidson diagonalization with overlap
     ethr =  5.17E-10,  avg # of iterations =  4.0

     negative rho (up, down):  1.371E-04 0.000E+00

     total cpu time spent up to now is       79.4 secs

     End of self-consistent calculation

          k = 0.0000 0.0000 0.0000 (105382 PWs)   bands (ev):

   -62.8518 -62.8459 -62.8259 -62.8194 -62.8130 -62.8086 -62.7923 -62.7869
   -62.7546 -62.7277 -62.6931 -62.6614 -37.1997 -37.1266 -37.1199 -37.1115
   -37.1045 -37.0762 -37.0618 -37.0407 -37.0393 -37.0287 -37.0178 -37.0168
   -37.0076 -37.0061 -36.9949 -36.9909 -36.9841 -36.9781 -36.9738 -36.9629
   -36.9295 -36.9130 -36.9021 -36.8877 -36.8805 -36.8706 -36.8614 -36.8531
   -36.8438 -36.8334 -36.8230 -36.8116 -36.8050 -36.7720 -36.6791 -36.6490
   -16.1358 -15.5453 -15.1514 -15.0089 -14.9400 -14.8403 -14.5843 -14.4759
   -14.4463 -14.4179 -14.3663 -14.3344 -14.3095 -14.2613 -14.1356 -14.1032
   -14.0837 -14.0716 -14.0346 -13.8792 -13.8073 -13.7829 -13.7606  -8.6557
    -7.6097  -7.4057  -7.2709  -7.2658  -7.2082  -7.1873  -7.1026  -7.0658
    -6.8217  -6.7444  -6.7081  -6.6478  -6.5945  -6.5158  -6.4371  -6.3862
    -6.3205  -6.2502  -6.1525  -5.9673  -5.9134  -5.8842  -5.7887  -5.7723
    -5.7288  -5.7130  -5.6454  -5.6312  -5.5878  -5.5613  -5.5059  -5.4199
    -5.4120  -5.3450  -5.2362  -5.1046  -5.0156  -4.9793  -4.9624  -4.9178
    -4.8845  -4.8048  -4.6908  -4.5071  -4.4474  -4.3166  -4.2793  -4.2126
    -4.1791  -4.0795  -4.0153  -3.9618  -3.8228  -3.7542  -3.6897  -3.6649
    -3.6065  -3.5207  -3.4962  -3.4637  -3.4499  -3.4345  -3.4062  -3.3911
    -3.3495  -3.2209  -3.1163  -2.8967  -2.8677  -2.7784  -2.7342  -2.7187
    -2.6994  -2.6757  -2.6160  -2.5949  -2.5245  -2.2516  -2.0201  -1.9645
    -1.8770  -0.8468  -0.7327  -0.6299  -0.1607  -0.1125  -0.0922   0.0094
     0.0488   0.1583   0.1904   0.2270   0.2552   0.2890   0.4465   0.4978
     0.5193   0.5649   0.5772   0.6135   0.6412   0.6846   0.7449   0.7684
     0.7889   0.8193   0.8781   0.9022   0.9828   0.9887   1.0804   1.2703
     1.4028

     the Fermi energy is    -0.8679 ev

!    total energy              =   -2205.54086616 Ry
     estimated scf accuracy    <       0.00000046 Ry
     smearing contrib. (-TS)   =      -0.00787398 Ry
     internal energy E=F+TS    =   -2205.53299218 Ry

     The total energy is F=E-TS. E is the sum of the following terms:
     one-electron contribution =  -18048.70834262 Ry
     hartree contribution      =    9011.35601244 Ry
     xc contribution           =    -385.30381000 Ry
     ewald contribution        =    7217.12314801 Ry

     convergence has been achieved in  15 iterations

     negative rho (up, down):  1.371E-04 0.000E+00

     Forces acting on atoms (cartesian axes, Ry/au):

     atom    1 type  1   force =     0.03914275   -0.00130536   -0.01910484
     atom    2 type  2   force =    -0.01022087    0.01713911    0.00041334
     atom    3 type  2   force =    -0.01287268    0.00724805   -0.00439045
     atom    4 type  1   force =     0.00741592    0.00133280    0.00152396
     atom    5 type  2   force =     0.00009627   -0.00373060   -0.00204258
     atom    6 type  2   force =     0.00165426    0.00693562    0.00016659
     atom    7 type  1   force =     0.00126990   -0.01309561   -0.00748640
     atom    8 type  2   force =     0.00129349   -0.00461279    0.01660364
     atom    9 type  2   force =     0.01314125    0.00552225    0.01121817
     atom   10 type  1   force =    -0.01274921    0.00984541   -0.02676804
     atom   11 type  2   force =     0.00579340   -0.00221468   -0.00482146
     atom   12 type  2   force =     0.00093780    0.00209337    0.00504315
     atom   13 type  1   force =     0.00331584    0.00355957   -0.00348038
     atom   14 type  2   force =    -0.04270184   -0.03609642    0.05040448
     atom   15 type  2   force =    -0.01126761    0.00250521   -0.00929266
     atom   16 type  1   force =     0.00275270    0.00163547    0.00023043
     atom   17 type  2   force =     0.00464092    0.00437322    0.00147827
     atom   18 type  2   force =    -0.00479581   -0.00394454    0.01409722
     atom   19 type  1   force =     0.01032607   -0.00285595   -0.00763317
     atom   20 type  2   force =     0.00187872   -0.00495130    0.00166981
     atom   21 type  1   force =    -0.00500648   -0.00451836   -0.01443306
     atom   22 type  2   force =    -0.00088621    0.00660626    0.00238120
     atom   23 type  2   force =    -0.00033660    0.00146487    0.00809625
     atom   24 type  1   force =    -0.01219796    0.00003483   -0.01953450
     atom   25 type  2   force =     0.01640301    0.01794287    0.00559766
     atom   26 type  2   force =    -0.01007698   -0.00015891   -0.00435033
     atom   27 type  1   force =    -0.00480832   -0.00639031    0.00734542
     atom   28 type  2   force =     0.00037193   -0.00048749   -0.00553776
     atom   29 type  2   force =     0.00222663   -0.00018418   -0.00270046
     atom   30 type  1   force =    -0.00303770    0.01255604   -0.00591117
     atom   31 type  2   force =     0.00010120   -0.00141949    0.01581542
     atom   32 type  2   force =    -0.00863116    0.00560469    0.00820795
     atom   33 type  1   force =     0.01526005   -0.00528208   -0.00817180
     atom   34 type  2   force =     0.00249238   -0.04330256   -0.00986157
     atom   35 type  2   force =    -0.00890516    0.00631269    0.01439696
     atom   36 type  3   force =     0.01798011    0.02183832   -0.00916928
     The non-local contrib.  to forces
     atom    1 type  1   force =    -0.00726690    0.01935562   -0.01581407
     atom    2 type  2   force =    -0.00227023    0.00309873   -0.25946686
     atom    3 type  2   force =    -0.01572191   -0.00108836    0.27233120
     atom    4 type  1   force =     0.00180610    0.00833132    0.00502942
     atom    5 type  2   force =     0.00777850   -0.02812863   -0.25043400
     atom    6 type  2   force =     0.00196557    0.00655050    0.26560710
     atom    7 type  1   force =    -0.02345285   -0.00349322   -0.01849121
     atom    8 type  2   force =     0.00472706   -0.00410796   -0.25508347
     atom    9 type  2   force =     0.00681288   -0.01003774    0.27548473
     atom   10 type  1   force =     0.00415733   -0.00273879   -0.00049759
     atom   11 type  2   force =     0.01038260    0.00606744   -0.25486402
     atom   12 type  2   force =    -0.01354004   -0.01574195    0.26380328
     atom   13 type  1   force =     0.00146838    0.02357645   -0.00894285
     atom   14 type  2   force =    -0.16069318   -0.17416279    0.03524325
     atom   15 type  2   force =    -0.01605818   -0.00755855    0.26447848
     atom   16 type  1   force =    -0.00214943    0.04141168   -0.02286935
     atom   17 type  2   force =     0.00246824   -0.03094321   -0.24743072
     atom   18 type  2   force =    -0.00451836   -0.00474379    0.27359408
     atom   19 type  1   force =     0.01353832   -0.00915620   -0.01758402
     atom   20 type  2   force =    -0.00067856   -0.02142572    0.26585085
     atom   21 type  1   force =     0.00554286    0.01878850    0.00731177
     atom   22 type  2   force =    -0.00779138    0.02047269   -0.21850982
     atom   23 type  2   force =     0.00759088   -0.01380721    0.26825768
     atom   24 type  1   force =     0.00734058    0.01634839   -0.01056744
     atom   25 type  2   force =     0.01560126    0.00625854   -0.24995915
     atom   26 type  2   force =     0.00087879   -0.01239151    0.26371698
     atom   27 type  1   force =    -0.00283350    0.01089688    0.00912471
     atom   28 type  2   force =    -0.00350159   -0.02456707   -0.27450303
     atom   29 type  2   force =     0.00642686    0.00179928    0.26401286
     atom   30 type  1   force =    -0.00055994    0.01553517    0.01070352
     atom   31 type  2   force =    -0.00862257   -0.00014796   -0.25241349
     atom   32 type  2   force =    -0.00409778   -0.01192455    0.27361958
     atom   33 type  1   force =    -0.00654954    0.00664963    0.00604924
     atom   34 type  2   force =     0.00008501   -0.03667542   -0.27206847
     atom   35 type  2   force =    -0.00233099   -0.00992773    0.27248733
     atom   36 type  3   force =     0.02037110    0.02172548   -0.02684821
     The ionic contribution  to forces
     atom    1 type  1   force =     0.61793479    0.43320363    5.47617433
     atom    2 type  2   force =    -0.57603327    0.44431083   39.25601494
     atom    3 type  2   force =    -0.14596003    0.02824727  -36.11142852
     atom    4 type  1   force =     0.12049855    0.63436485    0.67797147
     atom    5 type  2   force =    -0.90796435    1.59329421   38.73565495
     atom    6 type  2   force =     0.36282541   -0.47101269  -38.03549252
     atom    7 type  1   force =    -2.53492574   -2.90837066    2.51703109
     atom    8 type  2   force =    -0.96761560    0.00174383   37.39413254
     atom    9 type  2   force =     0.34796820   -0.04550249  -37.99363874
     atom   10 type  1   force =    -0.99304478   -0.38823477    5.56580568
     atom   11 type  2   force =    -0.36355606   -1.79588467   39.06629611
     atom   12 type  2   force =     0.47354814    0.66019777  -37.89286383
     atom   13 type  1   force =     0.32004291    1.36105290    2.36630854
     atom   14 type  2   force =     0.81485492    0.79741667   37.55934223
     atom   15 type  2   force =     0.18403360   -0.03470400  -36.91206159
     atom   16 type  1   force =     0.00693137    4.05091573    0.43870955
     atom   17 type  2   force =     0.77593396    1.65755589   37.89969028
     atom   18 type  2   force =    -0.16940416   -0.60923861  -38.58707968
     atom   19 type  1   force =     2.67706833   -2.62793199    0.55471967
     atom   20 type  2   force =     0.23519207   -0.21374267  -38.48293731
     atom   21 type  1   force =     0.26879548   -0.25242837    0.47060332
     atom   22 type  2   force =     0.27960583   -2.20793437   38.19679676
     atom   23 type  2   force =    -0.10364355    0.62096598  -38.35975644
     atom   24 type  1   force =    -0.64410031    1.24392727    5.75942697
     atom   25 type  2   force =     0.28212087    0.41796416   39.12613841
     atom   26 type  2   force =    -0.33021881    0.08458966  -37.39424275
     atom   27 type  1   force =    -0.03218307    0.48216699   -2.27000717
     atom   28 type  2   force =     0.02507424    1.06175223   38.20735729
     atom   29 type  2   force =    -0.27373034   -0.40590336  -37.26373507
     atom   30 type  1   force =    -0.37886201   -0.98250737   -0.04177749
     atom   31 type  2   force =     1.19082484   -0.09816172   37.32510456
     atom   32 type  2   force =    -0.49259815   -0.01860656  -38.63220696
     atom   33 type  1   force =     0.49489518   -1.00065415    1.76160597
     atom   34 type  2   force =     0.17018220   -1.51239884   39.33742935
     atom   35 type  2   force =    -0.31493248    0.45535142  -37.83002135
     atom   36 type  3   force =    -0.41955817   -0.45580399    8.11493540
     The local contribution  to forces
     atom    1 type  1   force =    -0.57148944   -0.45372396   -5.47865885
     atom    2 type  2   force =     0.56814360   -0.43002850  -39.01593802
     atom    3 type  2   force =     0.14812567   -0.01984389   35.85587971
     atom    4 type  1   force =    -0.11489712   -0.64141515   -0.68066232
     atom    5 type  2   force =     0.90092290   -1.57060731  -38.50707491
     atom    6 type  2   force =    -0.36327862    0.47229859   37.79123876
     atom    7 type  1   force =     2.55973675    2.89874895   -2.50529862
     atom    8 type  2   force =     0.96440929   -0.00282682  -37.14242362
     atom    9 type  2   force =    -0.34147334    0.06041352   37.75044240
     atom   10 type  1   force =     0.97620608    0.40088893   -5.59116074
     atom   11 type  2   force =     0.35934071    1.78837405  -38.83616803
     atom   12 type  2   force =    -0.46028784   -0.64370527   37.65513693
     atom   13 type  1   force =    -0.31818560   -1.38097811   -2.35995881
     atom   14 type  2   force =    -0.70706855   -0.66996210  -37.54660858
     atom   15 type  2   force =    -0.18012760    0.04435890   36.65929896
     atom   16 type  1   force =    -0.00212933   -4.09102299   -0.41484766
     atom   17 type  2   force =    -0.77368245   -1.62395937  -37.67054179
     atom   18 type  2   force =     0.16903584    0.61045844   38.34883118
     atom   19 type  1   force =    -2.68036139    2.63434919   -0.54399032
     atom   20 type  2   force =    -0.23278396    0.22935027   38.24006784
     atom   21 type  1   force =    -0.27948577    0.22913786   -0.49150426
     atom   22 type  2   force =    -0.27275751    2.19575285  -37.99386534
     atom   23 type  2   force =     0.09630915   -0.60689309   38.12067090
     atom   24 type  1   force =     0.62460418   -1.26020958   -5.76739661
     atom   25 type  2   force =    -0.28069516   -0.40580775  -38.89028567
     atom   26 type  2   force =     0.31961705   -0.07298577   37.14727220
     atom   27 type  1   force =     0.03030142   -0.49954483    2.26895247
     atom   28 type  2   force =    -0.02144666   -1.03948688  -37.95889055
     atom   29 type  2   force =     0.27009149    0.40450499   37.01780774
     atom   30 type  1   force =     0.37639838    0.97941091    0.02589958
     atom   31 type  2   force =    -1.18262388    0.09676276  -37.07693093
     atom   32 type  2   force =     0.48808460    0.03538441   38.38795936
     atom   33 type  1   force =    -0.47300751    0.98875718   -1.77494915
     atom   34 type  2   force =    -0.16808349    1.50467197  -39.09584347
     atom   35 type  2   force =     0.30845961   -0.44009409   37.59324841
     atom   36 type  3   force =     0.41716375    0.45592066   -8.09721555
     The core correction contribution to forces
     atom    1 type  1   force =     0.00000000    0.00000000    0.00000000
     atom    2 type  2   force =    -0.00002441   -0.00019795    0.02017667
     atom    3 type  2   force =     0.00068327   -0.00001618   -0.02096559
     atom    4 type  1   force =     0.00000000    0.00000000    0.00000000
     atom    5 type  2   force =    -0.00065574    0.00171703    0.02015406
     atom    6 type  2   force =     0.00007985   -0.00085830   -0.02097668
     atom    7 type  1   force =     0.00000000    0.00000000    0.00000000
     atom    8 type  2   force =    -0.00016389    0.00050602    0.02042638
     atom    9 type  2   force =    -0.00012090    0.00059900   -0.02092698
     atom   10 type  1   force =     0.00000000    0.00000000    0.00000000
     atom   11 type  2   force =    -0.00038746   -0.00073014    0.02029493
     atom   12 type  2   force =     0.00118476    0.00132217   -0.02087034
     atom   13 type  1   force =     0.00000000    0.00000000    0.00000000
     atom   14 type  2   force =     0.01014731    0.01063812    0.00284004
     atom   15 type  2   force =     0.00086558    0.00044855   -0.02079526
     atom   16 type  1   force =     0.00000000    0.00000000    0.00000000
     atom   17 type  2   force =    -0.00004081    0.00170260    0.02006967
     atom   18 type  2   force =     0.00013527   -0.00037543   -0.02102550
     atom   19 type  1   force =     0.00000000    0.00000000    0.00000000
     atom   20 type  2   force =     0.00013825    0.00079456   -0.02119566
     atom   21 type  1   force =     0.00000000    0.00000000    0.00000000
     atom   22 type  2   force =     0.00005371   -0.00165690    0.01833520
     atom   23 type  2   force =    -0.00058776    0.00118143   -0.02089417
     atom   24 type  1   force =     0.00000000    0.00000000    0.00000000
     atom   25 type  2   force =    -0.00063493   -0.00043187    0.02008464
     atom   26 type  2   force =    -0.00032761    0.00066345   -0.02087942
     atom   27 type  1   force =     0.00000000    0.00000000    0.00000000
     atom   28 type  2   force =     0.00023391    0.00180939    0.02092756
     atom   29 type  2   force =    -0.00054905   -0.00054439   -0.02061249
     atom   30 type  1   force =     0.00000000    0.00000000    0.00000000
     atom   31 type  2   force =     0.00046794    0.00009414    0.02046800
     atom   32 type  2   force =    -0.00004932    0.00071350   -0.02102324
     atom   33 type  1   force =     0.00000000    0.00000000    0.00000000
     atom   34 type  2   force =     0.00032272    0.00109579    0.02103932
     atom   35 type  2   force =    -0.00008091    0.00092751   -0.02115677
     atom   36 type  3   force =     0.00000000    0.00000000    0.00000000
     The Hubbard contrib.    to forces
     atom    1 type  1   force =     0.00000000    0.00000000    0.00000000
     atom    2 type  2   force =     0.00000000    0.00000000    0.00000000
     atom    3 type  2   force =     0.00000000    0.00000000    0.00000000
     atom    4 type  1   force =     0.00000000    0.00000000    0.00000000
     atom    5 type  2   force =     0.00000000    0.00000000    0.00000000
     atom    6 type  2   force =     0.00000000    0.00000000    0.00000000
     atom    7 type  1   force =     0.00000000    0.00000000    0.00000000
     atom    8 type  2   force =     0.00000000    0.00000000    0.00000000
     atom    9 type  2   force =     0.00000000    0.00000000    0.00000000
     atom   10 type  1   force =     0.00000000    0.00000000    0.00000000
     atom   11 type  2   force =     0.00000000    0.00000000    0.00000000
     atom   12 type  2   force =     0.00000000    0.00000000    0.00000000
     atom   13 type  1   force =     0.00000000    0.00000000    0.00000000
     atom   14 type  2   force =     0.00000000    0.00000000    0.00000000
     atom   15 type  2   force =     0.00000000    0.00000000    0.00000000
     atom   16 type  1   force =     0.00000000    0.00000000    0.00000000
     atom   17 type  2   force =     0.00000000    0.00000000    0.00000000
     atom   18 type  2   force =     0.00000000    0.00000000    0.00000000
     atom   19 type  1   force =     0.00000000    0.00000000    0.00000000
     atom   20 type  2   force =     0.00000000    0.00000000    0.00000000
     atom   21 type  1   force =     0.00000000    0.00000000    0.00000000
     atom   22 type  2   force =     0.00000000    0.00000000    0.00000000
     atom   23 type  2   force =     0.00000000    0.00000000    0.00000000
     atom   24 type  1   force =     0.00000000    0.00000000    0.00000000
     atom   25 type  2   force =     0.00000000    0.00000000    0.00000000
     atom   26 type  2   force =     0.00000000    0.00000000    0.00000000
     atom   27 type  1   force =     0.00000000    0.00000000    0.00000000
     atom   28 type  2   force =     0.00000000    0.00000000    0.00000000
     atom   29 type  2   force =     0.00000000    0.00000000    0.00000000
     atom   30 type  1   force =     0.00000000    0.00000000    0.00000000
     atom   31 type  2   force =     0.00000000    0.00000000    0.00000000
     atom   32 type  2   force =     0.00000000    0.00000000    0.00000000
     atom   33 type  1   force =     0.00000000    0.00000000    0.00000000
     atom   34 type  2   force =     0.00000000    0.00000000    0.00000000
     atom   35 type  2   force =     0.00000000    0.00000000    0.00000000
     atom   36 type  3   force =     0.00000000    0.00000000    0.00000000
     The SCF correction term to forces
     atom    1 type  1   force =    -0.00003525   -0.00014368   -0.00078951
     atom    2 type  2   force =    -0.00003610   -0.00004703   -0.00035665
     atom    3 type  2   force =     0.00000076   -0.00005383   -0.00019052
     atom    4 type  1   force =     0.00000885    0.00004874   -0.00079786
     atom    5 type  2   force =     0.00001541   -0.00000893   -0.00032594
     atom    6 type  2   force =     0.00006249   -0.00004550   -0.00019333
     atom    7 type  1   force =    -0.00008782    0.00001629   -0.00071091
     atom    8 type  2   force =    -0.00006292    0.00006911   -0.00043146
     atom    9 type  2   force =    -0.00004513    0.00004692   -0.00012649
     atom   10 type  1   force =    -0.00006738   -0.00007299   -0.00089865
     atom   11 type  2   force =     0.00001406   -0.00004440   -0.00036370
     atom   12 type  2   force =     0.00003323    0.00001761   -0.00014614
     atom   13 type  1   force =    -0.00000939   -0.00009471   -0.00087053
     atom   14 type  2   force =     0.00005810   -0.00002936   -0.00039572
     atom   15 type  2   force =     0.00001945   -0.00004274   -0.00019651
     atom   16 type  1   force =     0.00010055    0.00032801   -0.00074536
     atom   17 type  2   force =    -0.00003756    0.00001428   -0.00029243
     atom   18 type  2   force =    -0.00004394   -0.00004820   -0.00020611
     atom   19 type  1   force =     0.00008126   -0.00011999   -0.00076176
     atom   20 type  2   force =     0.00001136    0.00006923   -0.00009918
     atom   21 type  1   force =     0.00014140   -0.00001939   -0.00082715
     atom   22 type  2   force =     0.00000360   -0.00003106   -0.00035884
     atom   23 type  2   force =    -0.00000486    0.00001473   -0.00016497
     atom   24 type  1   force =    -0.00004195   -0.00003428   -0.00098068
     atom   25 type  2   force =     0.00001142   -0.00004325   -0.00036383
     atom   26 type  2   force =    -0.00002594   -0.00003778   -0.00020060
     atom   27 type  1   force =    -0.00009272    0.00008761   -0.00070785
     atom   28 type  2   force =     0.00001248    0.00000180   -0.00041229
     atom   29 type  2   force =    -0.00001187   -0.00004373   -0.00015675
     atom   30 type  1   force =    -0.00001367    0.00011429   -0.00072004
     atom   31 type  2   force =     0.00005531    0.00003027   -0.00039598
     atom   32 type  2   force =     0.00002995    0.00003486   -0.00012405
     atom   33 type  1   force =    -0.00007763   -0.00003778   -0.00086111
     atom   34 type  2   force =    -0.00001360    0.00000091   -0.00040155
     atom   35 type  2   force =    -0.00001994    0.00005254   -0.00014392
     atom   36 type  3   force =     0.00000389   -0.00000687   -0.00002418

     Total force =     0.130211     Total SCF correction =     0.003172

     BFGS Geometry Optimization
     Energy error            =      0.0E+00 Ry
     Gradient error          =      5.0E-02 Ry/Bohr

     number of scf cycles    =   1
     number of bfgs steps    =   0

     energy             new  =   -2205.5408661552 Ry

     new trust radius        =       0.0752795461 bohr
     new conv_thr            =       0.0000010000 Ry


ATOMIC_POSITIONS (angstrom)
Mo            6.5952618613        1.7871154638        2.8135331856
S             8.1713006883        0.8187736505        4.4347570807
S             8.1864211546        0.8150772461        1.2755600994
Mo            8.0990869024        4.4957622342        2.7186248367
S             6.4999601998        3.7204373375        4.3455797592
S             6.5542251947        3.5154077257        1.1213683831
Mo            6.4906536963        7.2115073870        2.6679228540
S             8.0824122146        6.3414300092        4.2512478311
S             8.0878716980        6.3076245678        1.0897993990
Mo            8.1538724589        9.9073903820        2.8292967233
S             6.4982333288        8.9417548538        4.3805541275
S             6.6184434625        9.0498189752        1.1425760220
Mo            3.4234143307        1.7488394957        2.7746294241
S             4.9525686497        0.7978398087        4.3772059950
S             5.0518711911        0.8475878065        1.2217409948
Mo            4.9812133497        4.5140434550        2.6330064870
S             3.4302975286        3.6739138936        4.2804918473
S             3.4353827477        3.5461413352        1.0658116107
Mo            3.4593260593        7.2148132344        2.6266375604
S             4.9842283663        6.3243121725        1.0381373543
Mo            5.0096146048        9.8992090364        2.7357633169
S             3.4704891561        8.9472471492        4.3268513901
S             3.4082510435        9.0657651610        1.1003526515
Mo            0.2896356060        1.7475279618        2.8391074971
S             1.8591423101        0.8021889633        4.4011715908
S             1.8554675274        0.8543418239        1.2070987593
Mo            1.8581468544        4.4922851530        2.6640844078
S             0.2724106653        3.6541408556        4.3346536421
S             0.2324094904        3.5271517639        1.1705888611
Mo            0.2695446683        7.2232904629        2.6985683713
S             1.9022918018        6.3120476733        4.2308132827
S             1.8576708018        6.3133096869        1.0489027425
Mo            1.8524219315        9.9373439958        2.7686219203
S             0.2972318115        9.0670831019        4.4086509496
S             0.2720589914        9.0468662470        1.1580193250
H             4.2125191090        0.0115563401        5.3386095884



     Writing config-only to output data dir ./MoS2-V-O.save/
     NEW-OLD atomic charge density approx. for the potential

     negative rho (up, down):  1.445E-04 0.000E+00

     total cpu time spent up to now is       82.7 secs

     Self-consistent Calculation

     iteration #  1     ecut=    80.00 Ry     beta= 0.70
     Davidson diagonalization with overlap
     ethr =  1.00E-06,  avg # of iterations = 10.0

     negative rho (up, down):  9.109E-05 0.000E+00

     total cpu time spent up to now is       94.9 secs

     total energy              =   -2205.55398472 Ry
     estimated scf accuracy    <       0.00194400 Ry

     iteration #  2     ecut=    80.00 Ry     beta= 0.70
     Davidson diagonalization with overlap
     ethr =  6.33E-07,  avg # of iterations =  2.0

     negative rho (up, down):  8.001E-05 0.000E+00

     total cpu time spent up to now is      107.1 secs

     total energy              =   -2205.55401702 Ry
     estimated scf accuracy    <       0.00048306 Ry

     iteration #  3     ecut=    80.00 Ry     beta= 0.70
     Davidson diagonalization with overlap
     ethr =  1.57E-07,  avg # of iterations =  3.0

     negative rho (up, down):  7.224E-05 0.000E+00

     total cpu time spent up to now is      124.8 secs

     total energy              =   -2205.55403918 Ry
     estimated scf accuracy    <       0.00031025 Ry

     iteration #  4     ecut=    80.00 Ry     beta= 0.70
     Davidson diagonalization with overlap
     ethr =  1.01E-07,  avg # of iterations =  2.0

     negative rho (up, down):  6.975E-05 0.000E+00

     total cpu time spent up to now is      139.4 secs

     total energy              =   -2205.55406093 Ry
     estimated scf accuracy    <       0.00002273 Ry

     iteration #  5     ecut=    80.00 Ry     beta= 0.70
     Davidson diagonalization with overlap
     ethr =  7.40E-09,  avg # of iterations =  7.0

     negative rho (up, down):  6.798E-05 0.000E+00

     total cpu time spent up to now is      154.7 secs

     total energy              =   -2205.55406886 Ry
     estimated scf accuracy    <       0.00000841 Ry

     iteration #  6     ecut=    80.00 Ry     beta= 0.70
     Davidson diagonalization with overlap
     ethr =  2.74E-09,  avg # of iterations =  2.0

     negative rho (up, down):  6.601E-05 0.000E+00

     total cpu time spent up to now is      166.5 secs

     total energy              =   -2205.55406945 Ry
     estimated scf accuracy    <       0.00000211 Ry

     iteration #  7     ecut=    80.00 Ry     beta= 0.70
     Davidson diagonalization with overlap
     ethr =  6.86E-10,  avg # of iterations =  5.0

     negative rho (up, down):  6.710E-05 0.000E+00

     total cpu time spent up to now is      180.4 secs

     total energy              =   -2205.55406989 Ry
     estimated scf accuracy    <       0.00000112 Ry

     iteration #  8     ecut=    80.00 Ry     beta= 0.70
     Davidson diagonalization with overlap
     ethr =  3.64E-10,  avg # of iterations =  2.0

     negative rho (up, down):  1.376E-04 0.000E+00

     total cpu time spent up to now is      182.2 secs

     End of self-consistent calculation

          k = 0.0000 0.0000 0.0000 (105382 PWs)   bands (ev):

   -62.8504 -62.8425 -62.8227 -62.8155 -62.8118 -62.8051 -62.7903 -62.7769
   -62.7478 -62.7166 -62.6890 -62.6569 -37.1937 -37.1235 -37.1113 -37.1058
   -37.1002 -37.0764 -37.0577 -37.0381 -37.0339 -37.0261 -37.0164 -37.0148
   -37.0024 -36.9967 -36.9890 -36.9839 -36.9788 -36.9732 -36.9683 -36.9561
   -36.9250 -36.9087 -36.8971 -36.8781 -36.8720 -36.8629 -36.8553 -36.8465
   -36.8416 -36.8287 -36.8182 -36.8070 -36.8015 -36.7690 -36.6734 -36.6452
   -16.1621 -15.5843 -15.1514 -15.0077 -14.9292 -14.8322 -14.5828 -14.4738
   -14.4359 -14.4029 -14.3667 -14.3415 -14.3018 -14.2557 -14.1258 -14.0967
   -14.0820 -14.0786 -14.0372 -13.8651 -13.8094 -13.7853 -13.7549  -8.7487
    -7.6018  -7.3936  -7.2604  -7.2469  -7.2083  -7.1815  -7.1115  -7.0724
    -6.8229  -6.7417  -6.7018  -6.6321  -6.5893  -6.5115  -6.4348  -6.3866
    -6.3195  -6.2409  -6.1569  -5.9499  -5.8978  -5.8843  -5.7837  -5.7726
    -5.7294  -5.7113  -5.6419  -5.6298  -5.5949  -5.5604  -5.4924  -5.4135
    -5.3991  -5.3211  -5.2156  -5.0975  -5.0119  -4.9644  -4.9632  -4.9257
    -4.8775  -4.8034  -4.6894  -4.5237  -4.4482  -4.3062  -4.2738  -4.2080
    -4.1773  -4.0911  -4.0185  -3.9598  -3.8148  -3.7475  -3.6820  -3.6538
    -3.6111  -3.5150  -3.4894  -3.4645  -3.4510  -3.4383  -3.4090  -3.3773
    -3.3318  -3.2256  -3.1161  -2.8901  -2.8574  -2.7689  -2.7354  -2.7160
    -2.6972  -2.6750  -2.6162  -2.5863  -2.5182  -2.2392  -2.0131  -1.9610
    -1.8942  -0.8306  -0.7281  -0.6273  -0.1655  -0.1024  -0.0843   0.0098
     0.0705   0.1561   0.1934   0.2304   0.2769   0.2990   0.4552   0.4990
     0.5276   0.5733   0.5847   0.6233   0.6506   0.6842   0.7529   0.7606
     0.7896   0.8500   0.8843   0.9152   0.9929   1.0005   1.0817   1.2590
     1.4150

     the Fermi energy is    -0.8554 ev

!    total energy              =   -2205.55406947 Ry
     estimated scf accuracy    <       0.00000060 Ry
     smearing contrib. (-TS)   =      -0.00814610 Ry
     internal energy E=F+TS    =   -2205.54592337 Ry

     The total energy is F=E-TS. E is the sum of the following terms:
     one-electron contribution =  -18047.66669958 Ry
     hartree contribution      =    9010.90183624 Ry
     xc contribution           =    -385.31837805 Ry
     ewald contribution        =    7216.53731802 Ry

     convergence has been achieved in   8 iterations

     negative rho (up, down):  1.376E-04 0.000E+00

     Forces acting on atoms (cartesian axes, Ry/au):

     atom    1 type  1   force =     0.01383110   -0.00347471   -0.01019727
     atom    2 type  2   force =    -0.00672071    0.01219757   -0.00268255
     atom    3 type  2   force =    -0.00919588    0.00625002   -0.01223751
     atom    4 type  1   force =     0.00551692    0.00278063    0.00228987
     atom    5 type  2   force =     0.00166088   -0.00475092   -0.00330735
     atom    6 type  2   force =     0.00352987    0.00701155   -0.00150236
     atom    7 type  1   force =     0.00291387   -0.00906493   -0.00069105
     atom    8 type  2   force =     0.00152427   -0.00346552    0.01132259
     atom    9 type  2   force =     0.01170123    0.00430113    0.00729349
     atom   10 type  1   force =    -0.00564497    0.00899256   -0.00879854
     atom   11 type  2   force =     0.00435258   -0.00220851   -0.00863868
     atom   12 type  2   force =    -0.00050948    0.00008666   -0.00051844
     atom   13 type  1   force =     0.00072815    0.00203898    0.00114724
     atom   14 type  2   force =    -0.02048632   -0.01967235    0.02715251
     atom   15 type  2   force =    -0.00614943    0.00346786   -0.00576786
     atom   16 type  1   force =     0.00296924    0.00003165    0.00178484
     atom   17 type  2   force =     0.00454074    0.00350655    0.00144259
     atom   18 type  2   force =    -0.00401490   -0.00316242    0.01091798
     atom   19 type  1   force =     0.00551738   -0.00181260    0.00038437
     atom   20 type  2   force =     0.00217660   -0.00532275   -0.00240488
     atom   21 type  1   force =    -0.00434752   -0.00399500   -0.00291677
     atom   22 type  2   force =     0.00003438    0.00080198   -0.00160198
     atom   23 type  2   force =     0.00011099   -0.00003317    0.00191682
     atom   24 type  1   force =    -0.00641733   -0.00199396   -0.00788732
     atom   25 type  2   force =     0.00901260    0.01448545   -0.00188561
     atom   26 type  2   force =    -0.00613763   -0.00030481   -0.00471192
     atom   27 type  1   force =    -0.00290997   -0.00224807    0.00703494
     atom   28 type  2   force =    -0.00027286   -0.00215377   -0.00477094
     atom   29 type  2   force =     0.00170198    0.00125078   -0.00436823
     atom   30 type  1   force =    -0.00174035    0.00326003    0.00255537
     atom   31 type  2   force =     0.00043133   -0.00026872    0.00900784
     atom   32 type  2   force =    -0.00718461    0.00417786    0.00698130
     atom   33 type  1   force =     0.00675319   -0.00123800    0.00057621
     atom   34 type  2   force =    -0.00005211   -0.03129491   -0.01463754
     atom   35 type  2   force =    -0.00631586    0.00744156    0.00757840
     atom   36 type  3   force =     0.00909264    0.01438229    0.00014043
     The non-local contrib.  to forces
     atom    1 type  1   force =    -0.00180767    0.01921635   -0.01535465
     atom    2 type  2   force =     0.00155586   -0.00044583   -0.25861403
     atom    3 type  2   force =    -0.01202817   -0.00167071    0.26593701
     atom    4 type  1   force =     0.00221786    0.00885876    0.00384917
     atom    5 type  2   force =     0.00938907   -0.02690313   -0.25096413
     atom    6 type  2   force =     0.00352270    0.00529971    0.26510751
     atom    7 type  1   force =    -0.02361503   -0.00506268   -0.02016542
     atom    8 type  2   force =     0.00461807   -0.00339803   -0.25831845
     atom    9 type  2   force =     0.00553609   -0.01076204    0.27352761
     atom   10 type  1   force =     0.00265176   -0.00264286   -0.00181631
     atom   11 type  2   force =     0.00805000    0.00529747   -0.25707251
     atom   12 type  2   force =    -0.01401429   -0.01776314    0.26114332
     atom   13 type  1   force =     0.00194188    0.02421299   -0.01066497
     atom   14 type  2   force =    -0.15712443   -0.17107760    0.02208563
     atom   15 type  2   force =    -0.01107751   -0.00753378    0.26752886
     atom   16 type  1   force =    -0.00245332    0.04182722   -0.02408513
     atom   17 type  2   force =     0.00230058   -0.03085147   -0.24747045
     atom   18 type  2   force =    -0.00397652   -0.00392715    0.27177644
     atom   19 type  1   force =     0.01488536   -0.00949299   -0.01852094
     atom   20 type  2   force =    -0.00063466   -0.02121113    0.26311147
     atom   21 type  1   force =     0.00448179    0.01878216    0.00479252
     atom   22 type  2   force =    -0.00902784    0.01256338   -0.22391629
     atom   23 type  2   force =     0.00820793   -0.01548250    0.26480422
     atom   24 type  1   force =     0.00484363    0.01742738   -0.01005844
     atom   25 type  2   force =     0.00975708    0.00316102   -0.25581816
     atom   26 type  2   force =     0.00350168   -0.01162690    0.26444542
     atom   27 type  1   force =    -0.00369562    0.00980813    0.00846649
     atom   28 type  2   force =    -0.00371438   -0.02482071   -0.27410766
     atom   29 type  2   force =     0.00568040    0.00108131    0.26344676
     atom   30 type  1   force =    -0.00099356    0.01680701    0.00996148
     atom   31 type  2   force =    -0.00761055    0.00028444   -0.25758939
     atom   32 type  2   force =    -0.00218764   -0.01279890    0.27353315
     atom   33 type  1   force =    -0.00458648    0.00445369    0.00380106
     atom   34 type  2   force =    -0.00182545   -0.02651622   -0.27612132
     atom   35 type  2   force =    -0.00080379   -0.00864014    0.26878972
     atom   36 type  3   force =     0.02386864    0.02577074   -0.03166078
     The ionic contribution  to forces
     atom    1 type  1   force =    -0.15863572    0.33306837    5.31849083
     atom    2 type  2   force =    -0.50385041    0.29384012   39.34462132
     atom    3 type  2   force =    -0.08538373   -0.02824685  -36.26348510
     atom    4 type  1   force =     0.05898121    0.73617072    0.81256952
     atom    5 type  2   force =    -0.97008382    1.51210067   38.71546662
     atom    6 type  2   force =     0.28681917   -0.43057780  -38.02385166
     atom    7 type  1   force =    -2.49784944   -2.78695820    2.49484631
     atom    8 type  2   force =    -0.97119290    0.04094848   37.49651972
     atom    9 type  2   force =     0.34287189   -0.07312472  -37.95692624
     atom   10 type  1   force =    -0.80708563   -0.40255030    5.32128444
     atom   11 type  2   force =    -0.33654690   -1.75842757   39.00913553
     atom   12 type  2   force =     0.42779653    0.59214445  -37.87923339
     atom   13 type  1   force =     0.52876261    1.30834340    2.39398414
     atom   14 type  2   force =     1.06356645    0.98314933   37.56575973
     atom   15 type  2   force =     0.18651558    0.02987044  -36.83617003
     atom   16 type  1   force =    -0.03284947    3.88133968    0.53739209
     atom   17 type  2   force =     0.81575104    1.62896141   37.90349634
     atom   18 type  2   force =    -0.15455990   -0.57327900  -38.49552573
     atom   19 type  1   force =     2.52113947   -2.70715497    0.51098703
     atom   20 type  2   force =     0.21060850   -0.24189742  -38.52691922
     atom   21 type  1   force =     0.39634519   -0.04744549    0.29755613
     atom   22 type  2   force =     0.28104604   -2.23941466   38.23363644
     atom   23 type  2   force =    -0.12548507    0.58624792  -38.37763282
     atom   24 type  1   force =    -0.32518491    1.01437036    5.52549252
     atom   25 type  2   force =     0.12752690    0.36325912   39.07984298
     atom   26 type  2   force =    -0.28048941    0.08024222  -37.35718783
     atom   27 type  1   force =     0.06944255    0.62550065   -2.02431614
     atom   28 type  2   force =     0.04319783    0.99588327   38.23532498
     atom   29 type  2   force =    -0.22684106   -0.33520047  -37.31984858
     atom   30 type  1   force =    -0.28193618   -1.10168792   -0.06220450
     atom   31 type  2   force =     1.21084572   -0.06525697   37.34764279
     atom   32 type  2   force =    -0.46128881   -0.06393474  -38.54267620
     atom   33 type  1   force =     0.26321644   -0.80397821    1.84969306
     atom   34 type  2   force =     0.10932831   -1.29723208   39.24210085
     atom   35 type  2   force =    -0.25269910    0.47146021  -37.75518341
     atom   36 type  3   force =    -0.47179895   -0.52053345    8.18531750
     The local contribution  to forces
     atom    1 type  1   force =     0.17479618   -0.35559815   -5.31452763
     atom    2 type  2   force =     0.49567039   -0.28090024  -39.10937030
     atom    3 type  2   force =     0.08761697    0.03623977   36.00597308
     atom    4 type  1   force =    -0.05569350   -0.74234917   -0.81506355
     atom    5 type  2   force =     0.96320518   -1.49147919  -38.48833123
     atom    6 type  2   force =    -0.28669367    0.43303247   37.77795274
     atom    7 type  1   force =     2.52441164    2.78289247   -2.47639202
     atom    8 type  2   force =     0.96823050   -0.04153880  -37.24784166
     atom    9 type  2   force =    -0.33666700    0.08765784   37.71139974
     atom   10 type  1   force =     0.79876485    0.41406329   -5.32958180
     atom   11 type  2   force =     0.33311183    1.75152776  -38.78146515
     atom   12 type  2   force =    -0.41539955   -0.57565075   37.63812461
     atom   13 type  1   force =    -0.53033362   -1.33038549   -2.38317756
     atom   14 type  2   force =    -0.93745252   -0.84277107  -37.56356145
     atom   15 type  2   force =    -0.18222515   -0.01940929   36.58332876
     atom   16 type  1   force =     0.03835385   -3.92294808   -0.51244897
     atom   17 type  2   force =    -0.81353862   -1.59626405  -37.67503235
     atom   18 type  2   force =     0.15438549    0.57440606   38.25540767
     atom   19 type  1   force =    -2.53039458    2.71492552   -0.49309572
     atom   20 type  2   force =    -0.20785586    0.25704506   38.28233013
     atom   21 type  1   force =    -0.40520464    0.02436058   -0.30636322
     atom   22 type  2   force =    -0.27209776    2.22898640  -38.03031147
     atom   23 type  2   force =     0.11802270   -0.57202375   38.13534875
     atom   24 type  1   force =     0.31370292   -1.03353121   -5.52441365
     atom   25 type  2   force =    -0.12771147   -0.35154657  -38.84651980
     atom   26 type  2   force =     0.27123541   -0.06955219   37.10859603
     atom   27 type  1   force =    -0.06875052   -0.63768371    2.02192507
     atom   28 type  2   force =    -0.04003619   -0.97492177  -37.98737222
     atom   29 type  2   force =     0.22332472    0.33579189   37.07247435
     atom   30 type  1   force =     0.28104203    1.08819972    0.05376359
     atom   31 type  2   force =    -1.20327804    0.06454375  -37.10197367
     atom   32 type  2   force =     0.45638110    0.08024677   38.29683452
     atom   33 type  1   force =    -0.25188402    0.79808270   -1.85411517
     atom   34 type  2   force =    -0.10786998    1.29147423  -39.00219482
     atom   35 type  2   force =     0.24724100   -0.45631068   37.51478090
     atom   36 type  3   force =     0.45703476    0.50915675   -8.15358713
     The core correction contribution to forces
     atom    1 type  1   force =     0.00000000    0.00000000    0.00000000
     atom    2 type  2   force =    -0.00014629   -0.00014635    0.02019466
     atom    3 type  2   force =     0.00056723   -0.00003388   -0.02084717
     atom    4 type  1   force =     0.00000000    0.00000000    0.00000000
     atom    5 type  2   force =    -0.00075465    0.00161202    0.02014806
     atom    6 type  2   force =    -0.00002350   -0.00074833   -0.02095766
     atom    7 type  1   force =     0.00000000    0.00000000    0.00000000
     atom    8 type  2   force =    -0.00014803    0.00048400    0.02052347
     atom    9 type  2   force =    -0.00004808    0.00059104   -0.02090150
     atom   10 type  1   force =     0.00000000    0.00000000    0.00000000
     atom   11 type  2   force =    -0.00024760   -0.00069759    0.02033099
     atom   12 type  2   force =     0.00117316    0.00134146   -0.02079256
     atom   13 type  1   force =     0.00000000    0.00000000    0.00000000
     atom   14 type  2   force =     0.01040829    0.01090997    0.00277573
     atom   15 type  2   force =     0.00065728    0.00049212   -0.02088194
     atom   16 type  1   force =     0.00000000    0.00000000    0.00000000
     atom   17 type  2   force =    -0.00001393    0.00170212    0.02006575
     atom   18 type  2   force =     0.00010403   -0.00036985   -0.02098460
     atom   19 type  1   force =     0.00000000    0.00000000    0.00000000
     atom   20 type  2   force =     0.00013452    0.00076901   -0.02113074
     atom   21 type  1   force =     0.00000000    0.00000000    0.00000000
     atom   22 type  2   force =     0.00012075   -0.00133080    0.01856597
     atom   23 type  2   force =    -0.00063191    0.00122824   -0.02083982
     atom   24 type  1   force =     0.00000000    0.00000000    0.00000000
     atom   25 type  2   force =    -0.00046847   -0.00030683    0.02023956
     atom   26 type  2   force =    -0.00042972    0.00063009   -0.02088776
     atom   27 type  1   force =     0.00000000    0.00000000    0.00000000
     atom   28 type  2   force =     0.00023564    0.00175149    0.02094774
     atom   29 type  2   force =    -0.00050610   -0.00045775   -0.02062364
     atom   30 type  1   force =     0.00000000    0.00000000    0.00000000
     atom   31 type  2   force =     0.00042134    0.00012206    0.02058513
     atom   32 type  2   force =    -0.00014061    0.00070533   -0.02099669
     atom   33 type  1   force =     0.00000000    0.00000000    0.00000000
     atom   34 type  2   force =     0.00034403    0.00075102    0.02116190
     atom   35 type  2   force =    -0.00011892    0.00088802   -0.02104842
     atom   36 type  3   force =     0.00000000    0.00000000    0.00000000
     The Hubbard contrib.    to forces
     atom    1 type  1   force =     0.00000000    0.00000000    0.00000000
     atom    2 type  2   force =     0.00000000    0.00000000    0.00000000
     atom    3 type  2   force =     0.00000000    0.00000000    0.00000000
     atom    4 type  1   force =     0.00000000    0.00000000    0.00000000
     atom    5 type  2   force =     0.00000000    0.00000000    0.00000000
     atom    6 type  2   force =     0.00000000    0.00000000    0.00000000
     atom    7 type  1   force =     0.00000000    0.00000000    0.00000000
     atom    8 type  2   force =     0.00000000    0.00000000    0.00000000
     atom    9 type  2   force =     0.00000000    0.00000000    0.00000000
     atom   10 type  1   force =     0.00000000    0.00000000    0.00000000
     atom   11 type  2   force =     0.00000000    0.00000000    0.00000000
     atom   12 type  2   force =     0.00000000    0.00000000    0.00000000
     atom   13 type  1   force =     0.00000000    0.00000000    0.00000000
     atom   14 type  2   force =     0.00000000    0.00000000    0.00000000
     atom   15 type  2   force =     0.00000000    0.00000000    0.00000000
     atom   16 type  1   force =     0.00000000    0.00000000    0.00000000
     atom   17 type  2   force =     0.00000000    0.00000000    0.00000000
     atom   18 type  2   force =     0.00000000    0.00000000    0.00000000
     atom   19 type  1   force =     0.00000000    0.00000000    0.00000000
     atom   20 type  2   force =     0.00000000    0.00000000    0.00000000
     atom   21 type  1   force =     0.00000000    0.00000000    0.00000000
     atom   22 type  2   force =     0.00000000    0.00000000    0.00000000
     atom   23 type  2   force =     0.00000000    0.00000000    0.00000000
     atom   24 type  1   force =     0.00000000    0.00000000    0.00000000
     atom   25 type  2   force =     0.00000000    0.00000000    0.00000000
     atom   26 type  2   force =     0.00000000    0.00000000    0.00000000
     atom   27 type  1   force =     0.00000000    0.00000000    0.00000000
     atom   28 type  2   force =     0.00000000    0.00000000    0.00000000
     atom   29 type  2   force =     0.00000000    0.00000000    0.00000000
     atom   30 type  1   force =     0.00000000    0.00000000    0.00000000
     atom   31 type  2   force =     0.00000000    0.00000000    0.00000000
     atom   32 type  2   force =     0.00000000    0.00000000    0.00000000
     atom   33 type  1   force =     0.00000000    0.00000000    0.00000000
     atom   34 type  2   force =     0.00000000    0.00000000    0.00000000
     atom   35 type  2   force =     0.00000000    0.00000000    0.00000000
     atom   36 type  3   force =     0.00000000    0.00000000    0.00000000
     The SCF correction term to forces
     atom    1 type  1   force =    -0.00051915   -0.00016331    0.00117239
     atom    2 type  2   force =     0.00005229   -0.00015215    0.00046401
     atom    3 type  2   force =     0.00003437   -0.00004034    0.00016288
     atom    4 type  1   force =     0.00001390    0.00009829    0.00091294
     atom    5 type  2   force =    -0.00009237   -0.00008331    0.00035153
     atom    6 type  2   force =    -0.00009229    0.00000347    0.00022491
     atom    7 type  1   force =    -0.00003075    0.00006145    0.00099829
     atom    8 type  2   force =     0.00001918    0.00003679    0.00041773
     atom    9 type  2   force =     0.00001087   -0.00006301    0.00017210
     atom   10 type  1   force =     0.00002659    0.00012040    0.00129333
     atom   11 type  2   force =    -0.00001221    0.00008938    0.00041066
     atom   12 type  2   force =    -0.00006280    0.00001260    0.00021778
     atom   13 type  1   force =     0.00035982   -0.00013395    0.00098385
     atom   14 type  2   force =     0.00011842    0.00011499    0.00007107
     atom   15 type  2   force =    -0.00001708    0.00004635    0.00040470
     atom   16 type  1   force =    -0.00007928   -0.00018920    0.00090506
     atom   17 type  2   force =     0.00004420   -0.00004349    0.00036152
     atom   18 type  2   force =     0.00003454    0.00000549    0.00022242
     atom   19 type  1   force =    -0.00011033   -0.00009220    0.00099221
     atom   20 type  2   force =    -0.00007337   -0.00003030    0.00018169
     atom   21 type  1   force =     0.00003268    0.00030572    0.00107602
     atom   22 type  2   force =    -0.00000427   -0.00000436    0.00040158
     atom   23 type  2   force =    -0.00000013   -0.00000510    0.00021471
     atom   24 type  1   force =     0.00022356   -0.00026251    0.00107046
     atom   25 type  2   force =    -0.00008891   -0.00008332    0.00034802
     atom   26 type  2   force =     0.00004694   -0.00000007    0.00030043
     atom   27 type  1   force =     0.00009616    0.00012482    0.00093774
     atom   28 type  2   force =     0.00004678   -0.00004808    0.00041443
     atom   29 type  2   force =     0.00004655    0.00003377    0.00016109
     atom   30 type  1   force =     0.00014991   -0.00006081    0.00101302
     atom   31 type  2   force =     0.00005539    0.00003598    0.00032119
     atom   32 type  2   force =     0.00005388   -0.00004262    0.00026474
     atom   33 type  1   force =     0.00000979    0.00020179    0.00117548
     atom   34 type  2   force =    -0.00002649    0.00022611    0.00039406
     atom   35 type  2   force =     0.00006749    0.00004212    0.00021782
     atom   36 type  3   force =    -0.00000927   -0.00001379    0.00004905

     Total force =     0.078000     Total SCF correction =     0.004062
     Energy error            =      1.3E-02 Ry
     Gradient error          =      3.1E-02 Ry/Bohr

     number of scf cycles    =   2
     number of bfgs steps    =   1

     energy             old  =   -2205.5408661552 Ry
     energy             new  =   -2205.5540694666 Ry

     CASE: energy            _new < energy            _old

     new trust radius        =       0.0828075007 bohr
     new conv_thr            =       0.0000000313 Ry


ATOMIC_POSITIONS (angstrom)
Mo            6.6120583921        1.7838187805        2.8022052672
S             8.1640913693        0.8317053060        4.4323657761
S             8.1766771110        0.8215373807        1.2639719767
Mo            8.1048994779        4.4984315886        2.7208692197
S             6.5014788687        3.7157192395        4.3423552640
S             6.5576097311        3.5225255999        1.1200221086
Mo            6.4934372418        7.2018581328        2.6664850499
S             8.0839364075        6.3377837056        4.2633269558
S             8.0999199270        6.3121281263        1.0976368005
Mo            8.1473663830        9.9166221500        2.8184095999
S             6.5028129544        8.9395095957        4.3721874673
S             6.6180822986        9.0501242346        1.1426510458
Mo            3.4244344462        1.7510763595        2.7752945534
S             4.9293432692        0.7760685111        4.4073186315
S             5.0450673650        0.8510081281        1.2154974217
Mo            4.9842076560        4.5142492043        2.6346522505
S             3.4349232827        3.6775715274        4.2819618669
S             3.4312177428        3.5428426041        1.0772520367
Mo            3.4654540158        7.2128581018        2.6261604651
S             4.9864082812        6.3189426727        1.0361341945
Mo            5.0051247477        9.8950921332        2.7315524895
S             3.4704244592        8.9486904331        4.3256543426
S             3.4083153994        9.0658935873        1.1029695893
Mo            0.2824878022        1.7457210079        2.8298307555
S             1.8691020019        0.8172852395        4.4000650999
S             1.8488032764        0.8540478256        1.2023490041
Mo            1.8549838900        4.4895520405        2.6712678710
S             0.2722031318        3.6521322453        4.3297217703
S             0.2341960566        3.5282676740        1.1663297803
Mo            0.2676354780        7.2276098584        2.7002491472
S             1.9026944488        6.3116500111        4.2407050568
S             1.8502122687        6.3177102232        1.0561308516
Mo            1.8602061415        9.9356480756        2.7682607455
S             0.2974542398        9.0339773771        4.3942911979
S             0.2653597177        9.0543071889        1.1664595022
H             4.2227221752        0.0269805408        5.3377447163



     Writing config-only to output data dir ./MoS2-V-O.save/
     NEW-OLD atomic charge density approx. for the potential

     negative rho (up, down):  1.505E-04 0.000E+00

     total cpu time spent up to now is      185.5 secs

     Self-consistent Calculation

     iteration #  1     ecut=    80.00 Ry     beta= 0.70
     Davidson diagonalization with overlap
     ethr =  1.00E-06,  avg # of iterations = 14.0

     negative rho (up, down):  9.369E-05 0.000E+00

     total cpu time spent up to now is      199.2 secs

     total energy              =   -2205.56208575 Ry
     estimated scf accuracy    <       0.00173086 Ry

     iteration #  2     ecut=    80.00 Ry     beta= 0.70
     Davidson diagonalization with overlap
     ethr =  5.64E-07,  avg # of iterations =  2.0

     negative rho (up, down):  6.479E-05 0.000E+00

     total cpu time spent up to now is      215.5 secs

     total energy              =   -2205.56212104 Ry
     estimated scf accuracy    <       0.00031021 Ry

     iteration #  3     ecut=    80.00 Ry     beta= 0.70
     Davidson diagonalization with overlap
     ethr =  1.01E-07,  avg # of iterations =  4.0

     negative rho (up, down):  5.731E-05 0.000E+00

     total cpu time spent up to now is      239.8 secs

     total energy              =   -2205.56215971 Ry
     estimated scf accuracy    <       0.00009005 Ry

     iteration #  4     ecut=    80.00 Ry     beta= 0.70
     Davidson diagonalization with overlap
     ethr =  2.93E-08,  avg # of iterations =  2.0

     negative rho (up, down):  5.272E-05 0.000E+00

     total cpu time spent up to now is      256.6 secs

     total energy              =   -2205.56216811 Ry
     estimated scf accuracy    <       0.00002063 Ry

     iteration #  5     ecut=    80.00 Ry     beta= 0.70
     Davidson diagonalization with overlap
     ethr =  6.72E-09,  avg # of iterations =  5.0

     negative rho (up, down):  5.215E-05 0.000E+00

     total cpu time spent up to now is      274.2 secs

     total energy              =   -2205.56217012 Ry
     estimated scf accuracy    <       0.00000355 Ry

     iteration #  6     ecut=    80.00 Ry     beta= 0.70
     Davidson diagonalization with overlap
     ethr =  1.16E-09,  avg # of iterations =  5.0

     negative rho (up, down):  5.604E-05 0.000E+00

     total cpu time spent up to now is      288.8 secs

     total energy              =   -2205.56217114 Ry
     estimated scf accuracy    <       0.00000100 Ry

     iteration #  7     ecut=    80.00 Ry     beta= 0.70
     Davidson diagonalization with overlap
     ethr =  3.26E-10,  avg # of iterations =  2.0

     negative rho (up, down):  6.619E-05 0.000E+00

     total cpu time spent up to now is      300.4 secs

     total energy              =   -2205.56217113 Ry
     estimated scf accuracy    <       0.00000027 Ry

     iteration #  8     ecut=    80.00 Ry     beta= 0.70
     Davidson diagonalization with overlap
     ethr =  8.69E-11,  avg # of iterations =  5.0

     negative rho (up, down):  7.960E-05 0.000E+00

     total cpu time spent up to now is      311.2 secs

     total energy              =   -2205.56217107 Ry
     estimated scf accuracy    <       0.00000009 Ry

     iteration #  9     ecut=    80.00 Ry     beta= 0.70
     Davidson diagonalization with overlap
     ethr =  2.84E-11,  avg # of iterations =  2.0

     negative rho (up, down):  1.023E-04 0.000E+00

     total cpu time spent up to now is      325.9 secs

     total energy              =   -2205.56217099 Ry
     estimated scf accuracy    <       0.00000003 Ry

     iteration # 10     ecut=    80.00 Ry     beta= 0.70
     Davidson diagonalization with overlap
     ethr =  1.10E-11,  avg # of iterations =  5.0

     negative rho (up, down):  1.383E-04 0.000E+00

     total cpu time spent up to now is      327.9 secs

     End of self-consistent calculation

          k = 0.0000 0.0000 0.0000 (105382 PWs)   bands (ev):

   -62.8474 -62.8370 -62.8199 -62.8155 -62.8054 -62.7957 -62.7859 -62.7604
   -62.7373 -62.7068 -62.6848 -62.6533 -37.1868 -37.1198 -37.1030 -37.0996
   -37.0927 -37.0749 -37.0534 -37.0347 -37.0268 -37.0213 -37.0152 -37.0103
   -36.9972 -36.9861 -36.9806 -36.9732 -36.9722 -36.9647 -36.9599 -36.9435
   -36.9185 -36.9031 -36.8909 -36.8673 -36.8626 -36.8549 -36.8471 -36.8397
   -36.8362 -36.8225 -36.8141 -36.8006 -36.7964 -36.7637 -36.6670 -36.6407
   -16.2046 -15.6297 -15.1514 -15.0039 -14.9165 -14.8220 -14.5819 -14.4679
   -14.4264 -14.3859 -14.3628 -14.3507 -14.2934 -14.2486 -14.1181 -14.0930
   -14.0845 -14.0746 -14.0356 -13.8613 -13.8068 -13.7837 -13.7455  -8.8399
    -7.5948  -7.3811  -7.2486  -7.2387  -7.2040  -7.1705  -7.1140  -7.0787
    -6.8228  -6.7366  -6.6957  -6.6183  -6.5845  -6.5063  -6.4319  -6.3876
    -6.3161  -6.2325  -6.1644  -5.9397  -5.8898  -5.8724  -5.7794  -5.7675
    -5.7333  -5.7085  -5.6308  -5.6212  -5.5881  -5.5630  -5.4795  -5.4071
    -5.3840  -5.3054  -5.1931  -5.0873  -5.0170  -4.9616  -4.9560  -4.9218
    -4.8742  -4.7972  -4.6837  -4.5365  -4.4445  -4.3002  -4.2665  -4.2014
    -4.1723  -4.1014  -4.0147  -3.9569  -3.8024  -3.7424  -3.6683  -3.6371
    -3.6195  -3.5127  -3.4764  -3.4677  -3.4521  -3.4319  -3.4098  -3.3647
    -3.3112  -3.2314  -3.1127  -2.8854  -2.8507  -2.7549  -2.7369  -2.7191
    -2.6852  -2.6681  -2.6189  -2.5719  -2.5101  -2.2277  -2.0048  -1.9521
    -1.9057  -0.8151  -0.7215  -0.6234  -0.1667  -0.0979  -0.0755   0.0116
     0.1014   0.1555   0.1947   0.2309   0.3016   0.3180   0.4536   0.4979
     0.5404   0.5839   0.5937   0.6344   0.6618   0.6887   0.7485   0.7627
     0.7958   0.8879   0.8919   0.9344   1.0003   1.0087   1.0853   1.2392
     1.4209

     the Fermi energy is    -0.8431 ev

!    total energy              =   -2205.56217091 Ry
     estimated scf accuracy    <          8.2E-09 Ry
     smearing contrib. (-TS)   =      -0.00836432 Ry
     internal energy E=F+TS    =   -2205.55380659 Ry

     The total energy is F=E-TS. E is the sum of the following terms:
     one-electron contribution =  -18047.18761669 Ry
     hartree contribution      =    9010.71209218 Ry
     xc contribution           =    -385.34165832 Ry
     ewald contribution        =    7216.26337623 Ry

     convergence has been achieved in  10 iterations

     negative rho (up, down):  1.383E-04 0.000E+00

     Forces acting on atoms (cartesian axes, Ry/au):

     atom    1 type  1   force =    -0.00620697   -0.00177395   -0.00537831
     atom    2 type  2   force =    -0.00335202    0.00633238   -0.00342362
     atom    3 type  2   force =    -0.00447510    0.00412147   -0.01547002
     atom    4 type  1   force =     0.00304136    0.00232734    0.00077036
     atom    5 type  2   force =     0.00294415   -0.00537946   -0.00340335
     atom    6 type  2   force =     0.00475011    0.00620517   -0.00185593
     atom    7 type  1   force =     0.00385718   -0.00436580    0.00199570
     atom    8 type  2   force =     0.00121194   -0.00276676    0.00731018
     atom    9 type  2   force =     0.00851344    0.00277708    0.00344794
     atom   10 type  1   force =    -0.00046317    0.00691417    0.00168933
     atom   11 type  2   force =     0.00289463   -0.00205459   -0.00875578
     atom   12 type  2   force =    -0.00174375   -0.00186708   -0.00263894
     atom   13 type  1   force =    -0.00101673    0.00011409    0.00275001
     atom   14 type  2   force =     0.00555738    0.00229457   -0.00190000
     atom   15 type  2   force =    -0.00246172    0.00227357   -0.00080085
     atom   16 type  1   force =     0.00303562   -0.00076377    0.00151264
     atom   17 type  2   force =     0.00399998    0.00253923    0.00253231
     atom   18 type  2   force =    -0.00286964   -0.00161652    0.00720149
     atom   19 type  1   force =     0.00100823   -0.00149665    0.00347399
     atom   20 type  2   force =     0.00207900   -0.00455431   -0.00322642
     atom   21 type  1   force =    -0.00239748   -0.00153810    0.00281568
     atom   22 type  2   force =     0.00032172   -0.00449616   -0.00235738
     atom   23 type  2   force =     0.00007011   -0.00170820   -0.00151970
     atom   24 type  1   force =    -0.00205412   -0.00186601   -0.00205866
     atom   25 type  2   force =     0.00068807    0.00897554   -0.00522883
     atom   26 type  2   force =    -0.00130420   -0.00063840   -0.00265158
     atom   27 type  1   force =    -0.00044614    0.00146608    0.00427505
     atom   28 type  2   force =    -0.00085124   -0.00353763   -0.00206955
     atom   29 type  2   force =     0.00141743    0.00237502   -0.00355606
     atom   30 type  1   force =    -0.00036272   -0.00438828    0.00516455
     atom   31 type  2   force =     0.00108856    0.00009506    0.00411693
     atom   32 type  2   force =    -0.00426658    0.00232486    0.00632161
     atom   33 type  1   force =    -0.00089287    0.00183825    0.00300963
     atom   34 type  2   force =    -0.00210310   -0.01481855   -0.01244310
     atom   35 type  2   force =    -0.00284515    0.00652070    0.00274866
     atom   36 type  3   force =    -0.00636620    0.00013565    0.01760204
     The non-local contrib.  to forces
     atom    1 type  1   force =     0.00235096    0.01847916   -0.01413740
     atom    2 type  2   force =     0.00536403   -0.00508692   -0.25624057
     atom    3 type  2   force =    -0.00736085   -0.00259667    0.26167534
     atom    4 type  1   force =     0.00278975    0.00982101    0.00303523
     atom    5 type  2   force =     0.01097351   -0.02511332   -0.25086123
     atom    6 type  2   force =     0.00458549    0.00280934    0.26562894
     atom    7 type  1   force =    -0.02307625   -0.00641110   -0.02146817
     atom    8 type  2   force =     0.00443404   -0.00268511   -0.26032335
     atom    9 type  2   force =     0.00251758   -0.01166880    0.27106963
     atom   10 type  1   force =     0.00150523   -0.00202027   -0.00182742
     atom   11 type  2   force =     0.00596728    0.00438814   -0.25710897
     atom   12 type  2   force =    -0.01407433   -0.01959568    0.26093812
     atom   13 type  1   force =     0.00220729    0.02503112   -0.01186335
     atom   14 type  2   force =    -0.15158243   -0.16203943    0.00288045
     atom   15 type  2   force =    -0.00722977   -0.00938646    0.27077370
     atom   16 type  1   force =    -0.00268642    0.04199248   -0.02487935
     atom   17 type  2   force =     0.00145648   -0.03081171   -0.24685634
     atom   18 type  2   force =    -0.00306482   -0.00246546    0.26978914
     atom   19 type  1   force =     0.01563519   -0.00918802   -0.01882467
     atom   20 type  2   force =    -0.00087798   -0.01993366    0.26221629
     atom   21 type  1   force =     0.00342275    0.01863742    0.00304165
     atom   22 type  2   force =    -0.01088165    0.00483262   -0.22789045
     atom   23 type  2   force =     0.00818110   -0.01726984    0.26281631
     atom   24 type  1   force =     0.00248797    0.01801730   -0.00857469
     atom   25 type  2   force =     0.00342055   -0.00207434   -0.25889643
     atom   26 type  2   force =     0.00658911   -0.01054401    0.26631906
     atom   27 type  1   force =    -0.00469283    0.00872596    0.00804158
     atom   28 type  2   force =    -0.00373852   -0.02468866   -0.27290085
     atom   29 type  2   force =     0.00488933   -0.00034488    0.26468156
     atom   30 type  1   force =    -0.00151508    0.01814807    0.00971077
     atom   31 type  2   force =    -0.00643613    0.00018165   -0.26123335
     atom   32 type  2   force =     0.00135287   -0.01383376    0.27366920
     atom   33 type  1   force =    -0.00258213    0.00243845    0.00260287
     atom   34 type  2   force =    -0.00316737   -0.01287472   -0.27604315
     atom   35 type  2   force =     0.00130731   -0.00925524    0.26684835
     atom   36 type  3   force =     0.02810005    0.03048127   -0.03772063
     The ionic contribution  to forces
     atom    1 type  1   force =    -0.88115392    0.27840446    5.00924011
[...]
     atom   27 type  1   force =    -0.00593832    0.00714786    0.00380134
     atom   28 type  2   force =     0.00282694   -0.01297377   -0.27431068
     atom   29 type  2   force =    -0.00245527   -0.00844653    0.26865057
     atom   30 type  1   force =    -0.00108429    0.01943952    0.00709486
     atom   31 type  2   force =    -0.00577410    0.00089116   -0.26441244
     atom   32 type  2   force =     0.00567369   -0.01363341    0.26890271
     atom   33 type  1   force =    -0.00290142    0.00355344    0.00184576
     atom   34 type  2   force =     0.00149529   -0.00750856   -0.27000205
     atom   35 type  2   force =     0.00017686   -0.01183097    0.26838401
     atom   36 type  3   force =     0.03025229    0.02053829   -0.03949156
     The ionic contribution  to forces
     atom    1 type  1   force =    -1.24964984   -0.14972198   -0.01521659
     atom    2 type  2   force =    -0.43333615    0.10722927   38.47991768
     atom    3 type  2   force =     0.12771875   -0.25619474  -37.96862388
     atom    4 type  1   force =    -0.08931882    0.53201221    0.08150023
     atom    5 type  2   force =    -0.83796650    1.05299323   38.21687934
     atom    6 type  2   force =     0.00479243   -0.14839163  -38.59738064
     atom    7 type  1   force =    -2.88781683   -1.98569286    2.61914994
     atom    8 type  2   force =    -1.17303595    0.07587418   38.24626886
     atom    9 type  2   force =     0.31111491    0.10713326  -38.04337129
     atom   10 type  1   force =    -0.62040567   -0.42306898    2.20665122
     atom   11 type  2   force =    -0.17720560   -1.52311973   38.48523596
     atom   12 type  2   force =     0.03276978    0.33470630  -37.80635355
     atom   13 type  1   force =     0.77917766    1.10086039    4.33582308
     atom   14 type  2   force =     1.74825487    1.07723076   38.06002134
     atom   15 type  2   force =    -0.16016266   -0.22611112  -36.85447896
     atom   16 type  1   force =    -0.27093205    3.61501873    1.48338440
     atom   17 type  2   force =     0.93551180    1.43686025   38.34738508
     atom   18 type  2   force =    -0.20306155   -0.40372336  -37.72630439
     atom   19 type  1   force =     2.85339940   -2.37715995    2.92665607
     atom   20 type  2   force =    -0.09861336    0.01391321  -38.32288974
     atom   21 type  1   force =     0.66689667    0.08189560    2.27096623
     atom   22 type  2   force =     0.25137617   -1.96641167   38.55313246
     atom   23 type  2   force =    -0.13020550    0.31461572  -37.82693103
     atom   24 type  1   force =     0.08749492    0.48309761    1.91365999
     atom   25 type  2   force =    -0.38882174    0.21265527   38.72091892
     atom   26 type  2   force =     0.09285111    0.00513539  -37.36508069
     atom   27 type  1   force =     0.36853041    0.44330871    0.85536420
     atom   28 type  2   force =    -0.08617370    0.54263344   38.11585832
     atom   29 type  2   force =     0.17548362   -0.05642219  -37.64096892
     atom   30 type  1   force =     0.05434710   -0.62011000    1.64518680
     atom   31 type  2   force =     1.11223263    0.09199058   38.21406819
     atom   32 type  2   force =    -0.22959266   -0.02158850  -37.80970881
     atom   33 type  1   force =     0.16833674   -0.62508158    2.70361163
     atom   34 type  2   force =    -0.17458980   -0.54224963   38.67302930
     atom   35 type  2   force =     0.04002142    0.12693143  -37.51364175
     atom   36 type  3   force =    -0.59942203   -0.43104758    8.33628101
     The local contribution  to forces
     atom    1 type  1   force =     1.25257232    0.13588573    0.01591721
     atom    2 type  2   force =     0.42204850   -0.09398078  -38.24814621
     atom    3 type  2   force =    -0.12359501    0.25832080   37.72156301
     atom    4 type  1   force =     0.08591922   -0.53812404   -0.08487387
     atom    5 type  2   force =     0.83146670   -1.04454055  -37.98894262
     atom    6 type  2   force =    -0.00747939    0.15699644   38.35069458
     atom    7 type  1   force =     2.90206103    1.98520894   -2.59769124
     atom    8 type  2   force =     1.16667373   -0.07925675  -38.00472835
     atom    9 type  2   force =    -0.30534631   -0.09518332   37.79713523
     atom   10 type  1   force =     0.61945699    0.41924184   -2.21028392
     atom   11 type  2   force =     0.17786134    1.52042929  -38.25149997
     atom   12 type  2   force =    -0.02656213   -0.31977721   37.56170502
     atom   13 type  1   force =    -0.78403333   -1.12332777   -4.32530209
     atom   14 type  2   force =    -1.53550278   -0.94257431  -38.06489381
     atom   15 type  2   force =     0.15890577    0.23766091   36.60751956
     atom   16 type  1   force =     0.26781889   -3.65164093   -1.45539185
     atom   17 type  2   force =    -0.93093159   -1.40775607  -38.11799714
     atom   18 type  2   force =     0.20364740    0.40609089   37.48105711
     atom   19 type  1   force =    -2.86491334    2.38086281   -2.90274457
     atom   20 type  2   force =     0.09789035    0.00050063   38.07981870
     atom   21 type  1   force =    -0.66928594   -0.10778873   -2.26800796
     atom   22 type  2   force =    -0.23969790    1.96239062  -38.33441471
     atom   23 type  2   force =     0.12435806   -0.29877317   37.58268508
     atom   24 type  1   force =    -0.08528023   -0.49982472   -1.91607875
     atom   25 type  2   force =     0.38400227   -0.20266282  -38.48873435
     atom   26 type  2   force =    -0.09305072    0.00371666   37.11797131
     atom   27 type  1   force =    -0.36266622   -0.45080914   -0.85957077
     atom   28 type  2   force =     0.08354114   -0.53053023  -37.86344180
     atom   29 type  2   force =    -0.17357131    0.06524705   37.39267513
     atom   30 type  1   force =    -0.05381542    0.60103098   -1.65209837
     atom   31 type  2   force =    -1.10721518   -0.09240168  -37.97131257
     atom   32 type  2   force =     0.22368899    0.03402800   37.56184543
     atom   33 type  1   force =    -0.16529772    0.62103080   -2.70519048
     atom   34 type  2   force =     0.17302338    0.54918262  -38.42273737
     atom   35 type  2   force =    -0.04033242   -0.11691721   37.26703654
     atom   36 type  3   force =     0.56777494    0.41183674   -8.29722100
     The core correction contribution to forces
     atom    1 type  1   force =     0.00000000    0.00000000    0.00000000
     atom    2 type  2   force =    -0.00072882    0.00062724    0.02017620
     atom    3 type  2   force =     0.00041325   -0.00009229   -0.02095005
     atom    4 type  1   force =     0.00000000    0.00000000    0.00000000
     atom    5 type  2   force =    -0.00041410    0.00026415    0.02008724
     atom    6 type  2   force =     0.00001841    0.00027441   -0.02099798
     atom    7 type  1   force =     0.00000000    0.00000000    0.00000000
     atom    8 type  2   force =    -0.00033892    0.00004885    0.02073470
     atom    9 type  2   force =     0.00055709    0.00070946   -0.02091627
     atom   10 type  1   force =     0.00000000    0.00000000    0.00000000
     atom   11 type  2   force =     0.00039834   -0.00043835    0.02023691
     atom   12 type  2   force =     0.00038991    0.00108156   -0.02086917
     atom   13 type  1   force =     0.00000000    0.00000000    0.00000000
     atom   14 type  2   force =     0.01484890    0.00915791    0.00228533
     atom   15 type  2   force =    -0.00033031    0.00020034   -0.02096796
     atom   16 type  1   force =     0.00000000    0.00000000    0.00000000
     atom   17 type  2   force =     0.00044706    0.00168611    0.02004411
     atom   18 type  2   force =    -0.00017503   -0.00042356   -0.02081415
     atom   19 type  1   force =     0.00000000    0.00000000    0.00000000
     atom   20 type  2   force =    -0.00010523    0.00069720   -0.02117860
     atom   21 type  1   force =     0.00000000    0.00000000    0.00000000
     atom   22 type  2   force =     0.00015459   -0.00075446    0.01944835
     atom   23 type  2   force =    -0.00053634    0.00113856   -0.02088385
     atom   24 type  1   force =     0.00000000    0.00000000    0.00000000
     atom   25 type  2   force =    -0.00069910    0.00041304    0.02007860
     atom   26 type  2   force =     0.00007864    0.00041490   -0.02095391
     atom   27 type  1   force =     0.00000000    0.00000000    0.00000000
     atom   28 type  2   force =    -0.00024421    0.00087171    0.02108831
     atom   29 type  2   force =     0.00014571    0.00023899   -0.02082275
     atom   30 type  1   force =     0.00000000    0.00000000    0.00000000
     atom   31 type  2   force =     0.00021762    0.00025913    0.02076734
     atom   32 type  2   force =    -0.00053444    0.00068112   -0.02094744
     atom   33 type  1   force =     0.00000000    0.00000000    0.00000000
     atom   34 type  2   force =    -0.00018870    0.00026591    0.02098134
     atom   35 type  2   force =    -0.00000387    0.00074277   -0.02096962
     atom   36 type  3   force =     0.00000000    0.00000000    0.00000000
     The Hubbard contrib.    to forces
     atom    1 type  1   force =     0.00000000    0.00000000    0.00000000
     atom    2 type  2   force =     0.00000000    0.00000000    0.00000000
     atom    3 type  2   force =     0.00000000    0.00000000    0.00000000
     atom    4 type  1   force =     0.00000000    0.00000000    0.00000000
     atom    5 type  2   force =     0.00000000    0.00000000    0.00000000
     atom    6 type  2   force =     0.00000000    0.00000000    0.00000000
     atom    7 type  1   force =     0.00000000    0.00000000    0.00000000
     atom    8 type  2   force =     0.00000000    0.00000000    0.00000000
     atom    9 type  2   force =     0.00000000    0.00000000    0.00000000
     atom   10 type  1   force =     0.00000000    0.00000000    0.00000000
     atom   11 type  2   force =     0.00000000    0.00000000    0.00000000
     atom   12 type  2   force =     0.00000000    0.00000000    0.00000000
     atom   13 type  1   force =     0.00000000    0.00000000    0.00000000
     atom   14 type  2   force =     0.00000000    0.00000000    0.00000000
     atom   15 type  2   force =     0.00000000    0.00000000    0.00000000
     atom   16 type  1   force =     0.00000000    0.00000000    0.00000000
     atom   17 type  2   force =     0.00000000    0.00000000    0.00000000
     atom   18 type  2   force =     0.00000000    0.00000000    0.00000000
     atom   19 type  1   force =     0.00000000    0.00000000    0.00000000
     atom   20 type  2   force =     0.00000000    0.00000000    0.00000000
     atom   21 type  1   force =     0.00000000    0.00000000    0.00000000
     atom   22 type  2   force =     0.00000000    0.00000000    0.00000000
     atom   23 type  2   force =     0.00000000    0.00000000    0.00000000
     atom   24 type  1   force =     0.00000000    0.00000000    0.00000000
     atom   25 type  2   force =     0.00000000    0.00000000    0.00000000
     atom   26 type  2   force =     0.00000000    0.00000000    0.00000000
     atom   27 type  1   force =     0.00000000    0.00000000    0.00000000
     atom   28 type  2   force =     0.00000000    0.00000000    0.00000000
     atom   29 type  2   force =     0.00000000    0.00000000    0.00000000
     atom   30 type  1   force =     0.00000000    0.00000000    0.00000000
     atom   31 type  2   force =     0.00000000    0.00000000    0.00000000
     atom   32 type  2   force =     0.00000000    0.00000000    0.00000000
     atom   33 type  1   force =     0.00000000    0.00000000    0.00000000
     atom   34 type  2   force =     0.00000000    0.00000000    0.00000000
     atom   35 type  2   force =     0.00000000    0.00000000    0.00000000
     atom   36 type  3   force =     0.00000000    0.00000000    0.00000000
     The SCF correction term to forces
     atom    1 type  1   force =     0.00001978    0.00003394    0.00000340
     atom    2 type  2   force =     0.00002996   -0.00000574   -0.00000047
     atom    3 type  2   force =    -0.00000018   -0.00001096    0.00000137
     atom    4 type  1   force =    -0.00003836    0.00003422    0.00002342
     atom    5 type  2   force =    -0.00000101    0.00003212    0.00002091
     atom    6 type  2   force =     0.00000323    0.00003952   -0.00000530
     atom    7 type  1   force =    -0.00004779   -0.00004584   -0.00000645
     atom    8 type  2   force =    -0.00000601   -0.00001215   -0.00000189
     atom    9 type  2   force =    -0.00001603   -0.00000384    0.00000589
     atom   10 type  1   force =     0.00000949   -0.00002707   -0.00000561
     atom   11 type  2   force =    -0.00001460   -0.00001294    0.00000101
     atom   12 type  2   force =    -0.00001451   -0.00000616   -0.00001537
     atom   13 type  1   force =    -0.00007490    0.00003053    0.00008560
     atom   14 type  2   force =    -0.00005094   -0.00001268    0.00005045
     atom   15 type  2   force =    -0.00000379   -0.00002813   -0.00002541
     atom   16 type  1   force =    -0.00002071    0.00011789    0.00000551
     atom   17 type  2   force =    -0.00000210    0.00000657    0.00001321
     atom   18 type  2   force =     0.00000196    0.00002721    0.00001822
     atom   19 type  1   force =     0.00004204   -0.00000778   -0.00000505
     atom   20 type  2   force =     0.00000082    0.00000319    0.00001426
     atom   21 type  1   force =    -0.00004045   -0.00010679   -0.00002570
     atom   22 type  2   force =    -0.00000289    0.00000002   -0.00000241
     atom   23 type  2   force =     0.00000320   -0.00000928    0.00000707
     atom   24 type  1   force =    -0.00001233    0.00000720    0.00005295
     atom   25 type  2   force =     0.00001278   -0.00000652    0.00002859
     atom   26 type  2   force =     0.00001247   -0.00001577   -0.00000221
     atom   27 type  1   force =     0.00005641    0.00004117    0.00004151
     atom   28 type  2   force =     0.00000863    0.00000910    0.00002458
     atom   29 type  2   force =    -0.00000478    0.00002010    0.00000002
     atom   30 type  1   force =     0.00002132    0.00001291    0.00003476
     atom   31 type  2   force =     0.00001437   -0.00000705    0.00001400
     atom   32 type  2   force =     0.00001123    0.00000607   -0.00000651
     atom   33 type  1   force =     0.00003333   -0.00003356    0.00002192
     atom   34 type  2   force =     0.00001819   -0.00000490    0.00001048
     atom   35 type  2   force =     0.00000507   -0.00001736   -0.00000453
     atom   36 type  3   force =    -0.00000139   -0.00000088    0.00000142

     Total force =     0.005799     Total SCF correction =     0.000293
     Energy error            =      7.8E-05 Ry
     Gradient error          =      1.8E-03 Ry/Bohr

     bfgs converged in  19 scf cycles and  18 bfgs steps
     (criteria: energy <  1.0E-04 Ry, force <  1.0E-02 Ry/Bohr)

     End of BFGS Geometry Optimization

     Final energy             =   -2205.5754848224 Ry

     File ./MoS2-V-O.bfgs deleted, as requested
Begin final coordinates

ATOMIC_POSITIONS (angstrom)
Mo            6.5941200736        1.7839811994        2.6957238179
S             8.1213986401        0.8591248872        4.3403081765
S             8.1588712480        0.8374299077        1.1385845512
Mo            8.1313531155        4.5023572266        2.6980331780
S             6.5432538581        3.6514243810        4.2956508139
S             6.5803404821        3.5771366458        1.0703360184
Mo            6.5297619579        7.1799294699        2.6696887645
S             8.0935117709        6.3010262692        4.2989886316
S             8.1473827938        6.3348838105        1.1012825846
Mo            8.1319955375        9.9442577611        2.7553119775
S             6.5431993232        8.9378464088        4.3344538465
S             6.5795291215        9.0336592347        1.1284361128
Mo            3.4310408422        1.7447328898        2.8020882919
S             4.9294900812        0.7481707181        4.4751784588
S             4.9893839614        0.8249361312        1.2009471325
Mo            5.0125745744        4.5115425815        2.6495976691
S             3.4780546395        3.6818091205        4.3227131004
S             3.4366898681        3.5388898617        1.1273072722
Mo            3.4744730678        7.1825097056        2.6780676268
S             4.9950570784        6.3069449301        1.0558382845
Mo            4.9882419893        9.8867439902        2.7651636680
S             3.4548791507        8.9357510277        4.3475070145
S             3.4063591154        9.0282241773        1.1383772916
Mo            0.2658521329        1.7422845914        2.7594708468
S             1.8316638932        0.8462067068        4.3738950517
S             1.8729154340        0.8410214206        1.1869145125
Mo            1.8736272597        4.4892264711        2.7191669226
S             0.2629512208        3.6073484817        4.3115072374
S             0.2812409824        3.5594372663        1.1422306064
Mo            0.2708318465        7.2165704698        2.7312055027
S             1.9008042063        6.3000784289        4.3048334970
S             1.8613066527        6.3190592178        1.1174995612
Mo            1.8532617779        9.9351890535        2.7740820460
S             0.2555854953        9.0291868699        4.3512576103
S             0.2719718149        9.0550469500        1.1666851475
H             4.1223764494        0.2069781472        5.4920070461
End final coordinates



     Writing all to output data dir ./MoS2-V-O.save/
 
     init_run     :      2.38s CPU      2.57s WALL (       1 calls)
     electrons    :   1704.14s CPU   1863.19s WALL (      19 calls)
     update_pot   :     25.17s CPU     26.21s WALL (      18 calls)
     forces       :     25.67s CPU     27.50s WALL (      19 calls)

     Called by init_run:
     wfcinit      :      0.38s CPU      0.42s WALL (       1 calls)
     potinit      :      1.32s CPU      1.41s WALL (       1 calls)
     hinit0       :      0.17s CPU      0.18s WALL (       1 calls)

     Called by electrons:
     c_bands      :    196.98s CPU    199.40s WALL (     165 calls)
     sum_band     :     51.95s CPU     56.92s WALL (     165 calls)
     v_of_rho     :     67.97s CPU     78.25s WALL (     173 calls)
     newd         :     27.61s CPU     31.03s WALL (     173 calls)
     mix_rho      :   1367.95s CPU   1505.14s WALL (     165 calls)

     Called by c_bands:
     init_us_2    :      3.63s CPU      3.77s WALL (     331 calls)
     init_us_2:cp :      3.63s CPU      3.77s WALL (     331 calls)
     regterg      :    185.14s CPU    187.39s WALL (     165 calls)

     Called by *egterg:
     rdiaghg      :     15.30s CPU     15.43s WALL (     911 calls)
     h_psi        :    106.27s CPU    107.29s WALL (     941 calls)
     s_psi        :     13.73s CPU     13.78s WALL (     941 calls)
     g_psi        :      0.73s CPU      0.73s WALL (     775 calls)

     Called by h_psi:
     h_psi:calbec :     14.88s CPU     14.97s WALL (     941 calls)
     vloc_psi     :     76.16s CPU     77.00s WALL (     941 calls)
     add_vuspsi   :     13.44s CPU     13.52s WALL (     941 calls)

     General routines
     calbec       :     21.26s CPU     21.37s WALL (    1182 calls)
     fft          :     45.27s CPU     52.64s WALL (   11665 calls)
     ffts         :    615.45s CPU    747.80s WALL (  332177 calls)
     fftw         :     64.98s CPU     65.60s WALL (   99795 calls)
     interpolate  :      1.23s CPU      1.42s WALL (     173 calls)
 
     Parallel routines
 
     PWSCF        :  29m21.18s CPU  32m 4.87s WALL

 
   This run was terminated on:   4:12:53   4Nov2023            

=------------------------------------------------------------------------------=
   JOB DONE.
=------------------------------------------------------------------------------=
