
     Program PWSCF v.7.2 starts on  4Nov2023 at  1:39:37 

     This program is part of the open-source Quantum ESPRESSO suite
     for quantum simulation of materials; please cite
         "P. Giannozzi et al., J. Phys.:Condens. Matter 21 395502 (2009);
         "P. Giannozzi et al., J. Phys.:Condens. Matter 29 465901 (2017);
         "P. Giannozzi et al., J. Chem. Phys. 152 154105 (2020);
          URL http://www.quantum-espresso.org", 
     in publications or presentations arising from this work. More details at
     http://www.quantum-espresso.org/quote

     Parallel version (MPI & OpenMP), running on      48 processor cores
     Number of MPI processes:                48
     Threads/MPI process:                     1

     MPI processes distributed on     1 nodes
     109505 MiB available memory on the printing compute node when the environment starts
 
     Waiting for input...
     Reading input from standard input
Warning: card &CELL ignored
Warning: card CELL_DYNAMICS = 'BFGS', ignored
Warning: card CELL_DOFREE = '2DXY' ignored
Warning: card / ignored

     Current dimensions of program PWSCF are:
     Max number of different atomic species (ntypx) = 10
     Max number of k-points (npk) =  40000
     Max angular momentum in pseudopotentials (lmaxx) =  4

     IMPORTANT: XC functional enforced from input :
     Exchange-correlation= RVV10
                           (   1   4  13   4  26   0   0)
     Any further DFT definition will be discarded
     Please, verify this is what you really want


     gamma-point specific algorithms are used
     signal trapping enabled: kill the code with -SIGUSR1 to stop cleanly the simulation 
 
     R & G space division:  proc/nbgrp/npool/nimage =      48
     Subspace diagonalization in iterative solution of the eigenvalue problem:
     one sub-group per band group will be used
     scalapack distributed-memory algorithm (size of sub-group:  2*  2 procs)

 
     Parallelization info
     --------------------
     sticks:   dense  smooth     PW     G-vecs:    dense   smooth      PW
     Min         243     194     47                49060    35090    4376
     Max         246     196     50                49086    35128    4410
     Sum       11735    9389   2349              2355467  1685513  210763
 
     Using Slab Decomposition
 


     bravais-lattice index     =            0
     lattice parameter (alat)  =      17.8707  a.u.
     unit-cell volume          =   17436.2743 (a.u.)^3
     number of atoms/cell      =           36
     number of atomic types    =            3
     number of electrons       =       307.00
     number of Kohn-Sham states=          185
     kinetic-energy cutoff     =      80.0000  Ry
     charge density cutoff     =     400.0000  Ry
     scf convergence threshold =      1.0E-06
     mixing beta               =       0.7000
     number of iterations used =            8  local-TF  mixing
     energy convergence thresh.=      1.0E-04
     force convergence thresh. =      1.0E-02
     Exchange-correlation= RVV10
                           (   1   4  13   4  26   0   0)
     nstep                     =          200


     celldm(1)=  17.870686  celldm(2)=   0.000000  celldm(3)=   0.000000
     celldm(4)=   0.000000  celldm(5)=   0.000000  celldm(6)=   0.000000

     crystal axes: (cart. coord. in units of alat)
               a(1) = (   1.000000   0.000000   0.000000 )  
               a(2) = (   0.000000   1.155671   0.000000 )  
               a(3) = (   0.000000   0.000000   2.643601 )  

     reciprocal axes: (cart. coord. in units 2 pi/alat)
               b(1) = (  1.000000  0.000000  0.000000 )  
               b(2) = (  0.000000  0.865298  0.000000 )  
               b(3) = (  0.000000  0.000000  0.378272 )  


     PseudoPot. # 1 for Mo read from file:
     ../pseudo/Mo_ONCV_PBE-1.0.oncvpsp.upf
     MD5 check sum: 1b5d28e075c9ccadda658a603575cd1f
     Pseudo is Norm-conserving, Zval = 14.0
     Generated using ONCVPSP code by D. R. Hamann
     Using radial grid of 1526 points,  6 beta functions with: 
                l(1) =   0
                l(2) =   0
                l(3) =   1
                l(4) =   1
                l(5) =   2
                l(6) =   2

     PseudoPot. # 2 for S  read from file:
     ../pseudo/s_pbe_v1.4.uspp.F.UPF
     MD5 check sum: 88d86576ff6df21479756cfb9bdac1df
     Pseudo is Ultrasoft + core correction, Zval =  6.0
     Generated by new atomic code, or converted to UPF format
     Using radial grid of  907 points,  6 beta functions with: 
                l(1) =   0
                l(2) =   0
                l(3) =   1
                l(4) =   1
                l(5) =   2
                l(6) =   2
     Q(r) pseudized with  8 coefficients,  rinner =    1.300   1.300   1.300
                                                       1.300   1.300

     PseudoPot. # 3 for H  read from file:
     ../pseudo/H_ONCV_PBE-1.0.oncvpsp.upf
     MD5 check sum: 1790becc920ee074925cf490c71280fe
     Pseudo is Norm-conserving, Zval =  1.0
     Generated using ONCVPSP code by D. R. Hamann
     Using radial grid of 1166 points,  2 beta functions with: 
                l(1) =   0
                l(2) =   0

     atomic species   valence    mass     pseudopotential
        Mo            14.00    95.94000     Mo( 1.00)
        S              6.00    32.06500     S ( 1.00)
        H              1.00     1.00794     H ( 1.00)

     No symmetry found



   Cartesian axes

     site n.     atom                  positions (alat units)
         1           Mo  tau(   1) = (   0.6952221   0.1890506   0.2985846  )
         2           S   tau(   2) = (   0.8646417   0.0856217   0.4689279  )
         3           S   tau(   3) = (   0.8663890   0.0857843   0.1351291  )
         4           Mo  tau(   4) = (   0.8560186   0.4753274   0.2873942  )
         5           S   tau(   5) = (   0.6873294   0.3936244   0.4596353  )
         6           S   tau(   6) = (   0.6929804   0.3713468   0.1185692  )
         7           Mo  tau(   7) = (   0.6862796   0.7633098   0.2825370  )
         8           S   tau(   8) = (   0.8545980   0.6708292   0.4486168  )
         9           S   tau(   9) = (   0.8545123   0.6666874   0.1146125  )
        10           Mo  tau(  10) = (   0.8629403   1.0471007   0.3006803  )
        11           S   tau(  11) = (   0.6868280   0.9456650   0.4634891  )
        12           S   tau(  12) = (   0.6998113   0.9568511   0.1205389  )
        13           Mo  tau(  13) = (   0.3618216   0.1847309   0.2935964  )
        14           S   tau(  14) = (   0.5260962   0.0863870   0.4600448  )
        15           S   tau(  15) = (   0.5348379   0.0894875   0.1297123  )
        16           Mo  tau(  16) = (   0.5265817   0.4772436   0.2784130  )
        17           S   tau(  17) = (   0.3624753   0.3882513   0.4525556  )
        18           S   tau(  18) = (   0.3635411   0.3752055   0.1119148  )
        19           Mo  tau(  19) = (   0.3652268   0.7630864   0.2781795  )
        20           S   tau(  20) = (   0.5269494   0.6690381   0.1096838  )
        21           Mo  tau(  21) = (   0.5300192   1.0470394   0.2900995  )
        22           S   tau(  22) = (   0.3670346   0.9457522   0.4574073  )
        23           S   tau(  23) = (   0.3604225   0.9585725   0.1159032  )
        24           Mo  tau(  24) = (   0.0313099   0.1847895   0.3013130  )
        25           S   tau(  25) = (   0.1956761   0.0838230   0.4650863  )
        26           S   tau(  26) = (   0.1967693   0.0903508   0.1278874  )
        27           Mo  tau(  27) = (   0.1967578   0.4753919   0.2813011  )
        28           S   tau(  28) = (   0.0287851   0.3864324   0.4586755  )
        29           S   tau(  29) = (   0.0244514   0.3729871   0.1239344  )
        30           Mo  tau(  30) = (   0.0286728   0.7631204   0.2856894  )
        31           S   tau(  31) = (   0.2011512   0.6675435   0.4465001  )
        32           S   tau(  32) = (   0.1969214   0.6672839   0.1104564  )
        33           Mo  tau(  33) = (   0.1950294   1.0511147   0.2932237  )
        34           S   tau(  34) = (   0.0312912   0.9612169   0.4667423  )
        35           S   tau(  35) = (   0.0292670   0.9563028   0.1216485  )
        36           H   tau(  36) = (   1.0000000   0.3852236   0.5407634  )

     number of k points=     1  Gaussian smearing, width (Ry)=  0.0100
                       cart. coord. in units 2pi/alat
        k(    1) = (   0.0000000   0.0000000   0.0000000), wk =   2.0000000

     Dense  grid:  1177734 G-vectors     FFT dimensions: ( 120, 135, 320)

     Smooth grid:   842757 G-vectors     FFT dimensions: ( 108, 120, 270)

     Estimated max dynamical RAM per process >     146.59 MB

     Estimated total dynamical RAM >       6.87 GB

     Initial potential from superposition of free atoms

     starting charge     306.9873, renormalised to     307.0000

     negative rho (up, down):  1.417E-04 0.000E+00


---------------------------------------------------------------------------------
Carrying out rVV10 run using the following parameters:
Nqs =      20    Nr_points =    1024   r_max =   100.000
b_value =  6.30000    beta =  0.00901
     q_mesh =  0.00010000  0.00030000  0.00058939  0.00100810
               0.00161396  0.00249058  0.00375900  0.00559430
               0.00824984  0.01209221  0.01765183  0.02569619
               0.03733578  0.05417739  0.07854596  0.11380545
               0.16482331  0.23864234  0.34545298  0.50000000

Gradients computed in Reciprocal space

---------------------------------------------------------------------------------


     Starting wfcs are  213 randomized atomic wfcs

     total cpu time spent up to now is        2.8 secs

     Self-consistent Calculation

     iteration #  1     ecut=    80.00 Ry     beta= 0.70
     Davidson diagonalization with overlap
     ethr =  1.00E-02,  avg # of iterations =  3.0

     Threshold (ethr) on eigenvalues was too large:
     Diagonalizing with lowered threshold

     Davidson diagonalization with overlap
     ethr =  4.16E-04,  avg # of iterations =  4.0

     negative rho (up, down):  2.053E-08 0.000E+00

     total cpu time spent up to now is       18.6 secs

     total energy              =   -2204.88772090 Ry
     estimated scf accuracy    <       1.56212805 Ry

     iteration #  2     ecut=    80.00 Ry     beta= 0.70
     Davidson diagonalization with overlap
     ethr =  5.09E-04,  avg # of iterations =  2.0

     total cpu time spent up to now is       21.1 secs

     total energy              =   -2204.71534203 Ry
     estimated scf accuracy    <       0.61556099 Ry

     iteration #  3     ecut=    80.00 Ry     beta= 0.70
     Davidson diagonalization with overlap
     ethr =  2.01E-04,  avg # of iterations =  2.0

     total cpu time spent up to now is       23.8 secs

     total energy              =   -2204.80129876 Ry
     estimated scf accuracy    <       0.07249991 Ry

     iteration #  4     ecut=    80.00 Ry     beta= 0.70
     Davidson diagonalization with overlap
     c_bands:  1 eigenvalues not converged
     ethr =  2.36E-05,  avg # of iterations = 20.0

     total cpu time spent up to now is       27.2 secs

     total energy              =   -2204.80506350 Ry
     estimated scf accuracy    <       0.03806157 Ry

     iteration #  5     ecut=    80.00 Ry     beta= 0.70
     Davidson diagonalization with overlap
     ethr =  1.24E-05,  avg # of iterations =  2.0

     total cpu time spent up to now is       29.5 secs

     total energy              =   -2204.80378970 Ry
     estimated scf accuracy    <       0.02154442 Ry

     iteration #  6     ecut=    80.00 Ry     beta= 0.70
     Davidson diagonalization with overlap
     ethr =  7.02E-06,  avg # of iterations =  2.0

     total cpu time spent up to now is       31.7 secs

     total energy              =   -2204.80327174 Ry
     estimated scf accuracy    <       0.01397635 Ry

     iteration #  7     ecut=    80.00 Ry     beta= 0.70
     Davidson diagonalization with overlap
     ethr =  4.55E-06,  avg # of iterations =  2.0

     total cpu time spent up to now is       33.9 secs

     total energy              =   -2204.80193354 Ry
     estimated scf accuracy    <       0.00925977 Ry

     iteration #  8     ecut=    80.00 Ry     beta= 0.70
     Davidson diagonalization with overlap
     ethr =  3.02E-06,  avg # of iterations = 10.0

     negative rho (up, down):  4.688E-03 0.000E+00

     total cpu time spent up to now is       38.2 secs

     total energy              =   -2204.80060810 Ry
     estimated scf accuracy    <       0.00566173 Ry

     iteration #  9     ecut=    80.00 Ry     beta= 0.70
     Davidson diagonalization with overlap
     ethr =  1.84E-06,  avg # of iterations =  2.0

     negative rho (up, down):  2.323E-02 0.000E+00

     total cpu time spent up to now is       42.6 secs

     total energy              =   -2204.80017889 Ry
     estimated scf accuracy    <       0.00323535 Ry

     iteration # 10     ecut=    80.00 Ry     beta= 0.70
     Davidson diagonalization with overlap
     ethr =  1.05E-06,  avg # of iterations =  2.0

     negative rho (up, down):  3.073E-02 0.000E+00

     total cpu time spent up to now is       47.4 secs

     total energy              =   -2204.80020096 Ry
     estimated scf accuracy    <       0.00152974 Ry

     iteration # 11     ecut=    80.00 Ry     beta= 0.70
     Davidson diagonalization with overlap
     ethr =  4.98E-07,  avg # of iterations =  2.0

     negative rho (up, down):  2.225E-02 0.000E+00

     total cpu time spent up to now is       53.0 secs

     total energy              =   -2204.80023465 Ry
     estimated scf accuracy    <       0.00050959 Ry

     iteration # 12     ecut=    80.00 Ry     beta= 0.70
     Davidson diagonalization with overlap
     ethr =  1.66E-07,  avg # of iterations =  5.0

     negative rho (up, down):  7.068E-03 0.000E+00

     total cpu time spent up to now is       58.3 secs

     total energy              =   -2204.80028220 Ry
     estimated scf accuracy    <       0.00009999 Ry

     iteration # 13     ecut=    80.00 Ry     beta= 0.70
     Davidson diagonalization with overlap
     ethr =  3.26E-08,  avg # of iterations =  6.0

     negative rho (up, down):  1.686E-03 0.000E+00

     total cpu time spent up to now is       66.4 secs

     total energy              =   -2204.80030864 Ry
     estimated scf accuracy    <       0.00002078 Ry

     iteration # 14     ecut=    80.00 Ry     beta= 0.70
     Davidson diagonalization with overlap
     ethr =  6.77E-09,  avg # of iterations =  5.0

     negative rho (up, down):  6.113E-04 0.000E+00

     total cpu time spent up to now is       74.6 secs

     total energy              =   -2204.80031162 Ry
     estimated scf accuracy    <       0.00000659 Ry

     iteration # 15     ecut=    80.00 Ry     beta= 0.70
     Davidson diagonalization with overlap
     ethr =  2.15E-09,  avg # of iterations =  2.0

     negative rho (up, down):  4.269E-04 0.000E+00

     total cpu time spent up to now is       82.0 secs

     total energy              =   -2204.80031809 Ry
     estimated scf accuracy    <       0.00000259 Ry

     iteration # 16     ecut=    80.00 Ry     beta= 0.70
     Davidson diagonalization with overlap
     ethr =  8.43E-10,  avg # of iterations =  2.0

     negative rho (up, down):  1.762E-04 0.000E+00

     total cpu time spent up to now is       93.8 secs

     total energy              =   -2204.80032078 Ry
     estimated scf accuracy    <       0.00000109 Ry

     iteration # 17     ecut=    80.00 Ry     beta= 0.70
     Davidson diagonalization with overlap
     ethr =  3.55E-10,  avg # of iterations =  6.0

     negative rho (up, down):  1.386E-04 0.000E+00

     total cpu time spent up to now is       96.0 secs

     End of self-consistent calculation

          k = 0.0000 0.0000 0.0000 (105382 PWs)   bands (ev):

   -62.9626 -62.8945 -62.8721 -62.7646 -62.7541 -62.7475 -62.7407 -62.7369
   -62.7135 -62.5189 -62.5024 -62.4646 -37.2595 -37.1939 -37.1686 -37.1267
   -37.0998 -37.0878 -37.0780 -37.0394 -37.0270 -37.0142 -37.0083 -36.9818
   -36.9650 -36.9575 -36.9486 -36.9331 -36.9289 -36.9223 -36.9174 -36.9119
   -36.8851 -36.8670 -36.8608 -36.8189 -36.7938 -36.7883 -36.7585 -36.7514
   -36.7211 -36.6973 -36.6859 -36.6607 -36.6338 -36.6314 -36.4734 -36.4632
   -19.0584 -15.8252 -15.0457 -15.0366 -14.8802 -14.7712 -14.6958 -14.4249
   -14.3977 -14.3674 -14.3089 -14.2785 -14.2439 -14.1931 -14.1356 -14.0556
   -14.0342 -14.0296 -13.9266 -13.8856 -13.7503 -13.7175 -13.7029 -10.5593
    -7.6822  -7.4143  -7.3109  -7.2733  -7.1904  -7.1762  -7.0769  -7.0505
    -6.8253  -6.7584  -6.7139  -6.6710  -6.5671  -6.4949  -6.4111  -6.3562
    -6.3368  -6.1780  -6.1577  -5.9232  -5.8955  -5.8562  -5.7946  -5.7153
    -5.6464  -5.6321  -5.6211  -5.5996  -5.5748  -5.5356  -5.4787  -5.4050
    -5.3665  -5.3164  -5.1204  -5.0828  -5.0063  -4.9640  -4.9321  -4.8951
    -4.8379  -4.7696  -4.5817  -4.5651  -4.4006  -4.3040  -4.2313  -4.2062
    -4.1477  -4.0553  -3.9276  -3.8391  -3.7328  -3.7161  -3.6824  -3.6578
    -3.6057  -3.5322  -3.4970  -3.4757  -3.4423  -3.3887  -3.3577  -3.3129
    -3.2675  -3.1702  -3.0710  -2.8684  -2.8086  -2.7306  -2.7141  -2.6949
    -2.6368  -2.5847  -2.5522  -2.5016  -2.4466  -2.2177  -1.9321  -1.9167
    -1.7734  -0.6180  -0.5328  -0.3539  -0.1616  -0.1122  -0.0189   0.0245
     0.0780   0.1185   0.2454   0.3286   0.3687   0.3891   0.4168   0.4909
     0.5161   0.6234   0.6448   0.6508   0.7146   0.7463   0.7815   0.8288
     0.8691   0.8898   0.9517   0.9845   1.0349   1.0591   1.0915   1.3638
     1.4495

     the Fermi energy is    -0.6470 ev

!    total energy              =   -2204.80031982 Ry
     estimated scf accuracy    <       0.00000034 Ry
     smearing contrib. (-TS)   =      -0.00823253 Ry
     internal energy E=F+TS    =   -2204.79208729 Ry

     The total energy is F=E-TS. E is the sum of the following terms:
     one-electron contribution =  -18058.46377469 Ry
     hartree contribution      =    9016.62784791 Ry
     xc contribution           =    -385.79500727 Ry
     ewald contribution        =    7222.83884675 Ry

     convergence has been achieved in  17 iterations

     negative rho (up, down):  1.386E-04 0.000E+00

     Forces acting on atoms (cartesian axes, Ry/au):

     atom    1 type  1   force =     0.01417084   -0.02246559    0.00307361
     atom    2 type  2   force =    -0.01619578    0.01488406    0.00192677
     atom    3 type  2   force =    -0.01043657    0.00960870   -0.00368533
     atom    4 type  1   force =    -0.00338884    0.00207313   -0.00205025
     atom    5 type  2   force =    -0.00307817   -0.00488251   -0.00774175
     atom    6 type  2   force =     0.00606058    0.01134164    0.00316938
     atom    7 type  1   force =    -0.00195094    0.00130933   -0.00609178
     atom    8 type  2   force =     0.00141701   -0.00071805    0.01877469
     atom    9 type  2   force =     0.01489547    0.00175500    0.01006090
     atom   10 type  1   force =    -0.01031161    0.00870278   -0.02606860
     atom   11 type  2   force =     0.00295991   -0.00243902   -0.00513021
     atom   12 type  2   force =    -0.00095852    0.00155713    0.00580856
     atom   13 type  1   force =     0.00301667    0.00738393   -0.00817469
     atom   14 type  2   force =     0.00782632    0.00068286    0.01140136
     atom   15 type  2   force =    -0.01213229    0.00083712   -0.00947930
     atom   16 type  1   force =     0.00146499   -0.00358590    0.00204107
     atom   17 type  2   force =     0.01387899    0.00168229   -0.00198125
     atom   18 type  2   force =    -0.00981097   -0.00519610    0.01663310
     atom   19 type  1   force =     0.00971645    0.00395323   -0.00269225
     atom   20 type  2   force =     0.00327427   -0.00517608    0.00062359
     atom   21 type  1   force =    -0.00486167    0.00673481   -0.00111300
     atom   22 type  2   force =    -0.00105448   -0.00271190   -0.00106694
     atom   23 type  2   force =    -0.00088675    0.00204514    0.00925853
     atom   24 type  1   force =    -0.01321670   -0.02116572   -0.01935381
     atom   25 type  2   force =     0.01843736    0.01523379    0.00730077
     atom   26 type  2   force =    -0.01135657   -0.00038980   -0.00385818
     atom   27 type  1   force =     0.01301768    0.00783685    0.01160052
     atom   28 type  2   force =     0.78875676    0.02171322   -2.36327025
     atom   29 type  2   force =     0.00316460    0.00200238   -0.00023906
     atom   30 type  1   force =    -0.00343548    0.00714733   -0.00569736
     atom   31 type  2   force =     0.00335701    0.00761919    0.01818778
     atom   32 type  2   force =    -0.01098529   -0.00046094    0.00670663
     atom   33 type  1   force =     0.01349422   -0.00398865   -0.00861316
     atom   34 type  2   force =     0.00292773   -0.04452956   -0.01019363
     atom   35 type  2   force =    -0.00790437    0.00873262    0.01526359
     atom   36 type  3   force =    -0.79987191   -0.02712670    2.34466994
     The non-local contrib.  to forces
     atom    1 type  1   force =    -0.00657038    0.03147053   -0.01152640
     atom    2 type  2   force =    -0.00259572    0.00851666   -0.26246743
     atom    3 type  2   force =    -0.00857008   -0.00360894    0.27440019
     atom    4 type  1   force =    -0.01778114    0.01635350   -0.00371143
     atom    5 type  2   force =     0.01432575   -0.02973993   -0.24920918
     atom    6 type  2   force =     0.00086367    0.01343306    0.26156947
     atom    7 type  1   force =    -0.03749800   -0.01068594   -0.00892619
     atom    8 type  2   force =     0.00624039   -0.01170124   -0.24350686
     atom    9 type  2   force =     0.01227660   -0.01745477    0.27684565
     atom   10 type  1   force =    -0.00214420   -0.00417293   -0.00111025
     atom   11 type  2   force =     0.01583704    0.00516151   -0.26120203
     atom   12 type  2   force =    -0.01098074   -0.01401360    0.26109003
     atom   13 type  1   force =     0.00578769    0.01744457   -0.00606586
     atom   14 type  2   force =     0.00989165   -0.00563384   -0.25885317
     atom   15 type  2   force =    -0.01373191   -0.00204799    0.26072279
     atom   16 type  1   force =     0.00034421    0.05880404   -0.00491125
     atom   17 type  2   force =    -0.00111599   -0.02554507   -0.24798028
     atom   18 type  2   force =    -0.00924727   -0.00038676    0.27324866
     atom   19 type  1   force =     0.03025099   -0.01095427   -0.00557935
     atom   20 type  2   force =    -0.00021966   -0.02083256    0.26288852
     atom   21 type  1   force =     0.00191795    0.01286253    0.00534106
     atom   22 type  2   force =    -0.00877736    0.00335896   -0.26040799
     atom   23 type  2   force =     0.00530185   -0.01199954    0.26580197
     atom   24 type  1   force =     0.00864628   -0.00038071   -0.02101706
     atom   25 type  2   force =     0.00270563    0.00947944   -0.25250059
     atom   26 type  2   force =    -0.00585736   -0.01499004    0.26595827
     atom   27 type  1   force =     0.01955169    0.01700790   -0.01086158
     atom   28 type  2   force =     0.45832363    0.01231920   -1.34913988
     atom   29 type  2   force =     0.00653791    0.00220382    0.27152616
     atom   30 type  1   force =    -0.00109971    0.02272412    0.01125618
     atom   31 type  2   force =    -0.00907067   -0.00238369   -0.24575756
     atom   32 type  2   force =    -0.00879758   -0.02068123    0.27370004
     atom   33 type  1   force =    -0.00046862    0.00073871    0.00616343
     atom   34 type  2   force =    -0.00028753   -0.04018665   -0.27215272
     atom   35 type  2   force =    -0.00238545   -0.01300422    0.27226048
     atom   36 type  3   force =     0.07395443    0.00440724   -0.19648137
     The ionic contribution  to forces
     atom    1 type  1   force =     0.17451690    0.04265510    5.55255206
     atom    2 type  2   force =    -0.77877083    0.14146836   39.24049820
     atom    3 type  2   force =    -0.18642452   -0.04003362  -36.12905429
     atom    4 type  1   force =    -0.30191215    0.84360884    0.01811027
     atom    5 type  2   force =    -1.24964795    1.50541059   38.68610724
     atom    6 type  2   force =     0.30262184   -0.50374858  -38.07857723
     atom    7 type  1   force =    -2.69796049   -2.64709341    2.54288871
     atom    8 type  2   force =    -1.11263584    0.28955356   37.32843911
     atom    9 type  2   force =     0.31901015    0.01446478  -38.04672563
     atom   10 type  1   force =    -1.14790738   -0.40702041    5.64935722
     atom   11 type  2   force =    -0.59052015   -1.59726454   39.15344573
     atom   12 type  2   force =     0.43102009    0.69468339  -37.84438299
     atom   13 type  1   force =     0.63013052    0.84190245    2.76106038
     atom   14 type  2   force =     0.04657928   -0.07321407   38.52440499
     atom   15 type  2   force =     0.15230617   -0.09180080  -36.80822115
     atom   16 type  1   force =    -0.05829018    4.00801442    0.40478755
     atom   17 type  2   force =     0.99329518    1.50191821   37.89606898
     atom   18 type  2   force =    -0.12954297   -0.64780830  -38.60328695
     atom   19 type  1   force =     2.78277291   -2.33224048    0.64133444
     atom   20 type  2   force =     0.22525982   -0.17062238  -38.48251044
     atom   21 type  1   force =     0.02964793    0.00921797    1.19413072
     atom   22 type  2   force =     0.47974986   -1.70819569   38.44564520
     atom   23 type  2   force =    -0.07740279    0.66730307  -38.27810663
     atom   24 type  1   force =    -0.47221955    0.61253786    5.29083830
     atom   25 type  2   force =     0.77856302    0.08283545   39.24179445
     atom   26 type  2   force =    -0.26179064    0.01694168  -37.36695343
     atom   27 type  1   force =     0.40079337    0.59656081   -2.71492340
     atom   28 type  2   force =     1.68863383    1.07517153   33.55572780
     atom   29 type  2   force =    -0.25595470   -0.43333034  -37.41100704
     atom   30 type  1   force =    -0.32179386   -0.64921814   -0.14939014
     atom   31 type  2   force =     1.36059981    0.14846678   37.28335424
     atom   32 type  2   force =    -0.45529959    0.03870676  -38.66953012
     atom   33 type  1   force =     0.85114531   -0.93693670    2.05809322
     atom   34 type  2   force =     0.24490093   -1.43865823   39.36199978
     atom   35 type  2   force =    -0.29834078    0.48043919  -37.81596435
     atom   36 type  3   force =    -1.49513256    0.06532494   11.56799519
     The local contribution  to forces
     atom    1 type  1   force =    -0.15363968   -0.09659833   -5.53738233
     atom    2 type  2   force =     0.76547856   -0.13432211  -38.99591576
     atom    3 type  2   force =     0.18427263    0.05323433   35.87217201
     atom    4 type  1   force =     0.31668019   -0.85815384   -0.01574542
     atom    5 type  2   force =     1.23367108   -1.48233517  -38.46417634
     atom    6 type  2   force =    -0.29740350    0.50279790   37.84106449
     atom    7 type  1   force =     2.73336246    2.65902510   -2.53945964
     atom    8 type  2   force =     1.10838951   -0.27982714  -37.08536532
     atom    9 type  2   force =    -0.31583536    0.00361671   37.80094782
     atom   10 type  1   force =     1.13980627    0.42005382   -5.67378819
     atom   11 type  2   force =     0.57845127    1.59034709  -38.91754522
     atom   12 type  2   force =    -0.42201885   -0.68016017   37.60980986
     atom   13 type  1   force =    -0.63306684   -0.85194461   -2.76260390
     atom   14 type  2   force =    -0.04813479    0.07979653  -38.27417883
     atom   15 type  2   force =    -0.15145298    0.09453891   36.55863114
     atom   16 type  1   force =     0.05931310   -4.07032730   -0.39723859
     atom   17 type  2   force =    -0.97885132   -1.47609130  -37.66964880
     atom   18 type  2   force =     0.12843498    0.64356873   38.36776938
     atom   19 type  1   force =    -2.80336396    2.34711175   -0.63781847
     atom   20 type  2   force =    -0.22201427    0.18542454   38.24137793
     atom   21 type  1   force =    -0.03654345   -0.01526478   -1.20008384
     atom   22 type  2   force =    -0.47239345    1.70262217  -38.20647600
     atom   23 type  2   force =     0.07162527   -0.65430043   38.04244726
     atom   24 type  1   force =     0.45039215   -0.63301780   -5.28847353
     atom   25 type  2   force =    -0.76322173   -0.07618533  -39.00177430
     atom   26 type  2   force =     0.25620921   -0.00309094   37.11823429
     atom   27 type  1   force =    -0.40758324   -0.60586919    2.73814183
     atom   28 type  2   force =    -1.33420815   -1.06580728  -34.64812996
     atom   29 type  2   force =     0.25316755    0.43365643   37.16060392
     atom   30 type  1   force =     0.31962487    0.63357837    0.13302365
     atom   31 type  2   force =    -1.34888679   -0.13899933  -37.03900853
     atom   32 type  2   force =     0.45288941   -0.01975977   38.42369362
     atom   33 type  1   force =    -0.83714417    0.93219579   -2.07233627
     atom   34 type  2   force =    -0.24201358    1.43305017  -39.12067351
     atom   35 type  2   force =     0.29292538   -0.45973428   37.58020806
     atom   36 type  3   force =     0.62132063   -0.09686442   -9.02679877
     The core correction contribution to forces
     atom    1 type  1   force =     0.00000000    0.00000000    0.00000000
     atom    2 type  2   force =    -0.00026495   -0.00072224    0.02020884
     atom    3 type  2   force =     0.00029912    0.00002161   -0.02109920
     atom    4 type  1   force =     0.00000000    0.00000000    0.00000000
     atom    5 type  2   force =    -0.00137421    0.00175621    0.01994328
     atom    6 type  2   force =     0.00000404   -0.00118772   -0.02079204
     atom    7 type  1   force =     0.00000000    0.00000000    0.00000000
     atom    8 type  2   force =    -0.00045851    0.00115345    0.01968343
     atom    9 type  2   force =    -0.00045870    0.00106295   -0.02098315
     atom   10 type  1   force =     0.00000000    0.00000000    0.00000000
     atom   11 type  2   force =    -0.00080350   -0.00060457    0.02062672
     atom   12 type  2   force =     0.00103180    0.00117901   -0.02069499
     atom   13 type  1   force =     0.00000000    0.00000000    0.00000000
     atom   14 type  2   force =    -0.00051644   -0.00026491    0.02042897
     atom   15 type  2   force =     0.00075073    0.00013549   -0.02053692
     atom   16 type  1   force =     0.00000000    0.00000000    0.00000000
     atom   17 type  2   force =     0.00045351    0.00141141    0.01999222
     atom   18 type  2   force =     0.00050596   -0.00059751   -0.02098977
     atom   19 type  1   force =     0.00000000    0.00000000    0.00000000
     atom   20 type  2   force =     0.00014321    0.00081290   -0.02104738
     atom   21 type  1   force =     0.00000000    0.00000000    0.00000000
     atom   22 type  2   force =     0.00032704   -0.00053377    0.02052359
     atom   23 type  2   force =    -0.00043702    0.00104437   -0.02075092
     atom   24 type  1   force =     0.00000000    0.00000000    0.00000000
     atom   25 type  2   force =     0.00035049   -0.00083509    0.02018176
     atom   26 type  2   force =     0.00005940    0.00075692   -0.02100122
     atom   27 type  1   force =     0.00000000    0.00000000    0.00000000
     atom   28 type  2   force =    -0.02391070    0.00002236    0.07850056
     atom   29 type  2   force =    -0.00057611   -0.00055851   -0.02116274
     atom   30 type  1   force =     0.00000000    0.00000000    0.00000000
     atom   31 type  2   force =     0.00072173    0.00047591    0.01998473
     atom   32 type  2   force =     0.00023672    0.00127113   -0.02102372
     atom   33 type  1   force =     0.00000000    0.00000000    0.00000000
     atom   34 type  2   force =     0.00036081    0.00126829    0.02103874
     atom   35 type  2   force =    -0.00008397    0.00106847   -0.02114562
     atom   36 type  3   force =     0.00000000    0.00000000    0.00000000
     The Hubbard contrib.    to forces
     atom    1 type  1   force =     0.00000000    0.00000000    0.00000000
     atom    2 type  2   force =     0.00000000    0.00000000    0.00000000
     atom    3 type  2   force =     0.00000000    0.00000000    0.00000000
     atom    4 type  1   force =     0.00000000    0.00000000    0.00000000
     atom    5 type  2   force =     0.00000000    0.00000000    0.00000000
     atom    6 type  2   force =     0.00000000    0.00000000    0.00000000
     atom    7 type  1   force =     0.00000000    0.00000000    0.00000000
     atom    8 type  2   force =     0.00000000    0.00000000    0.00000000
     atom    9 type  2   force =     0.00000000    0.00000000    0.00000000
     atom   10 type  1   force =     0.00000000    0.00000000    0.00000000
     atom   11 type  2   force =     0.00000000    0.00000000    0.00000000
     atom   12 type  2   force =     0.00000000    0.00000000    0.00000000
     atom   13 type  1   force =     0.00000000    0.00000000    0.00000000
     atom   14 type  2   force =     0.00000000    0.00000000    0.00000000
     atom   15 type  2   force =     0.00000000    0.00000000    0.00000000
     atom   16 type  1   force =     0.00000000    0.00000000    0.00000000
     atom   17 type  2   force =     0.00000000    0.00000000    0.00000000
     atom   18 type  2   force =     0.00000000    0.00000000    0.00000000
     atom   19 type  1   force =     0.00000000    0.00000000    0.00000000
     atom   20 type  2   force =     0.00000000    0.00000000    0.00000000
     atom   21 type  1   force =     0.00000000    0.00000000    0.00000000
     atom   22 type  2   force =     0.00000000    0.00000000    0.00000000
     atom   23 type  2   force =     0.00000000    0.00000000    0.00000000
     atom   24 type  1   force =     0.00000000    0.00000000    0.00000000
     atom   25 type  2   force =     0.00000000    0.00000000    0.00000000
     atom   26 type  2   force =     0.00000000    0.00000000    0.00000000
     atom   27 type  1   force =     0.00000000    0.00000000    0.00000000
     atom   28 type  2   force =     0.00000000    0.00000000    0.00000000
     atom   29 type  2   force =     0.00000000    0.00000000    0.00000000
     atom   30 type  1   force =     0.00000000    0.00000000    0.00000000
     atom   31 type  2   force =     0.00000000    0.00000000    0.00000000
     atom   32 type  2   force =     0.00000000    0.00000000    0.00000000
     atom   33 type  1   force =     0.00000000    0.00000000    0.00000000
     atom   34 type  2   force =     0.00000000    0.00000000    0.00000000
     atom   35 type  2   force =     0.00000000    0.00000000    0.00000000
     atom   36 type  3   force =     0.00000000    0.00000000    0.00000000
     The SCF correction term to forces
     atom    1 type  1   force =    -0.00013649    0.00000312   -0.00054082
     atom    2 type  2   force =    -0.00004332   -0.00006060   -0.00036816
     atom    3 type  2   force =    -0.00001421   -0.00000867   -0.00007512
     atom    4 type  1   force =    -0.00037623    0.00026063   -0.00067476
     atom    5 type  2   force =    -0.00005331    0.00002178   -0.00037783
     atom    6 type  2   force =    -0.00002596    0.00004298   -0.00006639
     atom    7 type  1   force =     0.00014460    0.00005958   -0.00056575
     atom    8 type  2   force =    -0.00011904    0.00009933   -0.00044676
     atom    9 type  2   force =    -0.00009771    0.00006133    0.00000512
     atom   10 type  1   force =    -0.00006678   -0.00016169   -0.00049846
     atom   11 type  2   force =    -0.00000523   -0.00008251   -0.00042650
     atom   12 type  2   force =    -0.00001130   -0.00013548    0.00001557
     atom   13 type  1   force =     0.00016482   -0.00002247   -0.00053639
     atom   14 type  2   force =     0.00000613   -0.00000484   -0.00037167
     atom   15 type  2   force =    -0.00000479    0.00000752   -0.00004625
     atom   16 type  1   force =     0.00009738   -0.00008105   -0.00056774
     atom   17 type  2   force =     0.00009713   -0.00001496   -0.00038446
     atom   18 type  2   force =     0.00003785    0.00002375   -0.00007930
     atom   19 type  1   force =     0.00005602    0.00003223   -0.00059996
     atom   20 type  2   force =     0.00010468    0.00003743   -0.00005613
     atom   21 type  1   force =     0.00011542   -0.00008491   -0.00047202
     atom   22 type  2   force =     0.00003896    0.00003244   -0.00032282
     atom   23 type  2   force =     0.00002545   -0.00000632   -0.00010425
     atom   24 type  1   force =    -0.00003606   -0.00030906   -0.00067261
     atom   25 type  2   force =     0.00003946   -0.00006468   -0.00037163
     atom   26 type  2   force =     0.00002233   -0.00001142   -0.00006718
     atom   27 type  1   force =     0.00025538    0.00013334   -0.00072742
     atom   28 type  2   force =    -0.00008234    0.00000342   -0.00019985
     atom   29 type  2   force =    -0.00001053    0.00002699   -0.00017045
     atom   30 type  1   force =    -0.00016726    0.00005899   -0.00055814
     atom   31 type  2   force =    -0.00000755    0.00005553   -0.00035618
     atom   32 type  2   force =    -0.00001473   -0.00000183   -0.00010428
     atom   33 type  1   force =    -0.00003878    0.00000957   -0.00050462
     atom   34 type  2   force =    -0.00003339   -0.00000714   -0.00037701
     atom   35 type  2   force =    -0.00002004   -0.00004055   -0.00006606
     atom   36 type  3   force =    -0.00001489    0.00000155   -0.00001619

     Total force =     3.515122     Total SCF correction =     0.002514

     BFGS Geometry Optimization
     Energy error            =      0.0E+00 Ry
     Gradient error          =      2.4E+00 Ry/Bohr

     number of scf cycles    =   1
     number of bfgs steps    =   0

     energy             new  =   -2204.8003198226 Ry

     new trust radius        =       0.5000000000 bohr
     new conv_thr            =       0.0000010000 Ry


ATOMIC_POSITIONS (angstrom)
Mo            6.5760532917        1.7854204783        2.8239694360
S             8.1749894154        0.8112846492        4.4347429678
S             8.1921247662        0.8122621481        1.2774920599
Mo            8.0948026845        4.4952771025        2.7176006659
S             6.4995823683        3.7218929851        4.3458385076
S             6.5539934062        3.5129419902        1.1216168031
Mo            6.4897745151        7.2185763298        2.6712375628
S             8.0818782084        6.3437947391        4.2444553561
S             8.0824994839        6.3048886898        1.0849314237
Mo            8.1595239985        9.9031046118        2.8406933849
S             6.4954819261        8.9426678008        4.3825607271
S             6.6178454093        9.0488765737        1.1405241476
Mo            3.4219800210        1.7477399935        2.7756030447
S             4.9759966130        0.8170137259        4.3517438698
S             5.0565453559        0.8463510074        1.2256517989
Mo            4.9799122575        4.5127971955        2.6331013019
S             3.4293155525        3.6717783376        4.2794991788
S             3.4368786974        3.5476768935        1.0601180478
Mo            3.4548935862        7.2167443546        2.6303909561
S             4.9835819070        6.3263826077        1.0373199534
Mo            5.0117476311        9.9023152595        2.7432827648
S             3.4708461362        8.9434632768        4.3254780077
S             3.4083349965        9.0652071688        1.0970515159
Mo            0.2946869294        1.7452618201        2.8473894156
S             1.8524201828        0.7943117714        4.3989847498
S             1.8595940142        0.8543845231        1.2089911318
Mo            1.8620737325        4.4964990014        2.6614293061
S             0.3559765070        3.6567046793        4.0866147182
S             0.2315672747        3.5274618710        1.1719924963
Mo            0.2707873180        7.2174051106        2.7010913922
S             1.9025947484        6.3136079612        4.2243755874
S             1.8610716227        6.3102948620        1.0452714992
Mo            1.8457796927        9.9397155757        2.7720315706
S             0.2962238118        9.0852689754        4.4127869450
S             0.2759319892        9.0444530817        1.1520217093
H             9.3718169608        3.6400859250        5.3628635726



     Writing config-only to output data dir ./MoS2-V-O.save/
     NEW-OLD atomic charge density approx. for the potential

     negative rho (up, down):  1.509E-04 0.000E+00

     total cpu time spent up to now is       99.4 secs

     Self-consistent Calculation

     iteration #  1     ecut=    80.00 Ry     beta= 0.70
     Davidson diagonalization with overlap
     c_bands:  1 eigenvalues not converged
     ethr =  1.00E-06,  avg # of iterations = 20.0

     negative rho (up, down):  2.694E-04 0.000E+00

     total cpu time spent up to now is      111.4 secs

     total energy              =   -2205.53282975 Ry
     estimated scf accuracy    <       0.16859495 Ry

     iteration #  2     ecut=    80.00 Ry     beta= 0.70
     Davidson diagonalization with overlap
     ethr =  5.49E-05,  avg # of iterations =  3.0

     negative rho (up, down):  4.022E-04 0.000E+00

     total cpu time spent up to now is      122.6 secs

     total energy              =   -2205.53442358 Ry
     estimated scf accuracy    <       0.02859684 Ry

     iteration #  3     ecut=    80.00 Ry     beta= 0.70
     Davidson diagonalization with overlap
     ethr =  9.31E-06,  avg # of iterations =  3.0

     negative rho (up, down):  5.065E-04 0.000E+00

     total cpu time spent up to now is      142.0 secs

     total energy              =   -2205.53727784 Ry
     estimated scf accuracy    <       0.00166123 Ry

     iteration #  4     ecut=    80.00 Ry     beta= 0.70
     Davidson diagonalization with overlap
     ethr =  5.41E-07,  avg # of iterations =  9.0

     negative rho (up, down):  5.661E-04 0.000E+00

     total cpu time spent up to now is      160.6 secs

     total energy              =   -2205.53765813 Ry
     estimated scf accuracy    <       0.00019261 Ry

     iteration #  5     ecut=    80.00 Ry     beta= 0.70
     Davidson diagonalization with overlap
     ethr =  6.27E-08,  avg # of iterations =  2.0

     negative rho (up, down):  5.849E-04 0.000E+00

     total cpu time spent up to now is      172.7 secs

     total energy              =   -2205.53766886 Ry
     estimated scf accuracy    <       0.00004128 Ry

     iteration #  6     ecut=    80.00 Ry     beta= 0.70
     Davidson diagonalization with overlap
     ethr =  1.34E-08,  avg # of iterations =  3.0

     negative rho (up, down):  5.636E-04 0.000E+00

     total cpu time spent up to now is      185.4 secs

     total energy              =   -2205.53767280 Ry
     estimated scf accuracy    <       0.00000907 Ry

     iteration #  7     ecut=    80.00 Ry     beta= 0.70
     Davidson diagonalization with overlap
     ethr =  2.95E-09,  avg # of iterations =  6.0

     negative rho (up, down):  5.054E-04 0.000E+00

     total cpu time spent up to now is      196.1 secs

     total energy              =   -2205.53767378 Ry
     estimated scf accuracy    <       0.00000253 Ry

     iteration #  8     ecut=    80.00 Ry     beta= 0.70
     Davidson diagonalization with overlap
     ethr =  8.23E-10,  avg # of iterations =  5.0

     negative rho (up, down):  1.363E-04 0.000E+00

     total cpu time spent up to now is      198.2 secs

     End of self-consistent calculation

          k = 0.0000 0.0000 0.0000 (105382 PWs)   bands (ev):

   -62.8950 -62.8272 -62.8051 -62.7657 -62.7577 -62.7469 -62.7416 -62.7374
   -62.7167 -62.5353 -62.5155 -62.4769 -37.2762 -37.1647 -37.1351 -37.0894
   -37.0599 -37.0533 -37.0400 -37.0237 -37.0110 -36.9963 -36.9902 -36.9662
   -36.9611 -36.9564 -36.9408 -36.9343 -36.9279 -36.9224 -36.9179 -36.9137
   -36.8864 -36.8678 -36.8491 -36.8156 -36.7920 -36.7871 -36.7669 -36.7516
   -36.7306 -36.7113 -36.6942 -36.6720 -36.6495 -36.6417 -36.4868 -36.4753
   -16.9309 -15.7449 -15.0434 -15.0093 -14.8793 -14.7676 -14.6799 -14.4341
   -14.4082 -14.3564 -14.3207 -14.2753 -14.2366 -14.1910 -14.1323 -14.0552
   -14.0416 -14.0276 -13.9262 -13.8794 -13.7510 -13.7167 -13.7041  -9.6934
    -7.8276  -7.6776  -7.3676  -7.2913  -7.1987  -7.1726  -7.0654  -7.0191
    -6.8451  -6.7855  -6.7059  -6.6374  -6.5720  -6.5070  -6.4016  -6.3629
    -6.3175  -6.1817  -6.1661  -5.9748  -5.9590  -5.8794  -5.7869  -5.7529
    -5.6518  -5.6384  -5.6254  -5.6001  -5.5831  -5.5486  -5.4884  -5.4066
    -5.3688  -5.3335  -5.1528  -5.0771  -5.0215  -4.9805  -4.9470  -4.8755
    -4.8393  -4.7649  -4.6044  -4.4866  -4.3991  -4.3517  -4.2357  -4.2263
    -4.1395  -4.0528  -3.9297  -3.8642  -3.7387  -3.7218  -3.6695  -3.6430
    -3.6153  -3.5315  -3.5151  -3.4959  -3.4444  -3.3896  -3.3652  -3.3194
    -3.2704  -3.1677  -3.0688  -2.8606  -2.8094  -2.7682  -2.7101  -2.6835
    -2.6387  -2.5893  -2.5595  -2.5125  -2.4486  -2.2205  -1.9454  -1.9180
    -1.7831  -0.6495  -0.5471  -0.2510  -0.1310  -0.0985  -0.0323   0.0508
     0.1285   0.1471   0.2997   0.3248   0.3646   0.3974   0.4258   0.5206
     0.5648   0.6214   0.6322   0.7054   0.7270   0.7590   0.7912   0.8429
     0.8807   0.9027   0.9342   0.9973   1.0330   1.0644   1.0866   1.3956
     1.4613

     the Fermi energy is    -0.6728 ev

!    total energy              =   -2205.53767468 Ry
     estimated scf accuracy    <       0.00000095 Ry
     smearing contrib. (-TS)   =      -0.00788244 Ry
     internal energy E=F+TS    =   -2205.52979224 Ry

     The total energy is F=E-TS. E is the sum of the following terms:
     one-electron contribution =  -18083.75874491 Ry
     hartree contribution      =    9029.28179990 Ry
     xc contribution           =    -385.55265992 Ry
     ewald contribution        =    7234.49981268 Ry

     convergence has been achieved in   8 iterations

     negative rho (up, down):  1.363E-04 0.000E+00

     Forces acting on atoms (cartesian axes, Ry/au):

     atom    1 type  1   force =     0.00988285   -0.02073869    0.00150274
     atom    2 type  2   force =    -0.01329942    0.01778949    0.00431974
     atom    3 type  2   force =    -0.01376191    0.00761511   -0.00596342
     atom    4 type  1   force =    -0.01600238    0.01074423   -0.02950718
     atom    5 type  2   force =     0.00244293   -0.00470415   -0.00375339
     atom    6 type  2   force =     0.00336786    0.01013264    0.00470942
     atom    7 type  1   force =    -0.00165580    0.00116217   -0.00473441
     atom    8 type  2   force =     0.00203045   -0.00454702    0.02027089
     atom    9 type  2   force =     0.01443426    0.00391713    0.00915015
     atom   10 type  1   force =    -0.00949635    0.00818260   -0.02288009
     atom   11 type  2   force =     0.00266622   -0.00215058   -0.00463285
     atom   12 type  2   force =    -0.00134447    0.00123138    0.00413303
     atom   13 type  1   force =     0.00583268    0.00397888   -0.00965650
     atom   14 type  2   force =     0.00760626    0.00035386    0.01079573
     atom   15 type  2   force =    -0.01175806    0.00094302   -0.00901103
     atom   16 type  1   force =     0.00023056   -0.00447801   -0.00249812
     atom   17 type  2   force =     0.01459220    0.00073285    0.00258308
     atom   18 type  2   force =    -0.00512355   -0.00754722    0.01515985
     atom   19 type  1   force =     0.00980058    0.00690735   -0.00266426
     atom   20 type  2   force =     0.00294265   -0.00547093    0.00051981
     atom   21 type  1   force =    -0.00526708    0.00634218   -0.00034751
     atom   22 type  2   force =    -0.00041277   -0.00243685   -0.00038147
     atom   23 type  2   force =    -0.00083349    0.00146451    0.00854636
     atom   24 type  1   force =    -0.00739679   -0.05760820   -0.05356752
     atom   25 type  2   force =     0.01659410    0.01542759    0.00912243
     atom   26 type  2   force =    -0.00778703   -0.00184249   -0.00465448
     atom   27 type  1   force =     0.06719248    0.03440764   -0.03692216
     atom   28 type  2   force =    -0.07623551   -0.01231547    0.07659089
     atom   29 type  2   force =     0.00108984    0.00108398   -0.01727243
     atom   30 type  1   force =    -0.00523573    0.00932922   -0.00569801
     atom   31 type  2   force =     0.00220921    0.00741384    0.01952632
     atom   32 type  2   force =    -0.01199458    0.00353333    0.00469516
     atom   33 type  1   force =     0.01253470   -0.00355669   -0.00722780
     atom   34 type  2   force =     0.00254566   -0.04172958   -0.01138045
     atom   35 type  2   force =    -0.00754485    0.00761808    0.01406854
     atom   36 type  3   force =     0.01715426    0.00881483    0.02705892
     The non-local contrib.  to forces
     atom    1 type  1   force =    -0.00563730    0.03111495   -0.01124213
     atom    2 type  2   force =    -0.00187002    0.00980803   -0.26005401
     atom    3 type  2   force =    -0.01406488   -0.00453853    0.27034958
     atom    4 type  1   force =    -0.01317212    0.01601343    0.00893478
     atom    5 type  2   force =     0.01397125   -0.03237740   -0.24552644
     atom    6 type  2   force =    -0.00115791    0.00903496    0.26041353
     atom    7 type  1   force =    -0.03526211   -0.01048821   -0.01156209
     atom    8 type  2   force =     0.00784027   -0.01173493   -0.24561147
     atom    9 type  2   force =     0.01386626   -0.01608227    0.27550987
     atom   10 type  1   force =    -0.00105517   -0.00521575   -0.00081821
     atom   11 type  2   force =     0.01485856    0.00587524   -0.26092866
     atom   12 type  2   force =    -0.01144198   -0.01357117    0.26071294
     atom   13 type  1   force =     0.00590034    0.01836346   -0.00719641
     atom   14 type  2   force =     0.00934774   -0.00552523   -0.26016167
     atom   15 type  2   force =    -0.01336949   -0.00204616    0.26042144
     atom   16 type  1   force =     0.00361688    0.05480622   -0.00787302
     atom   17 type  2   force =    -0.00590520   -0.02462588   -0.24753588
     atom   18 type  2   force =    -0.00556070   -0.00365085    0.27086353
     atom   19 type  1   force =     0.02951551   -0.01057014   -0.00444161
     atom   20 type  2   force =    -0.00023649   -0.02090594    0.26303180
     atom   21 type  1   force =     0.00254839    0.01430422    0.00574362
     atom   22 type  2   force =    -0.00825801    0.00404025   -0.26030298
     atom   23 type  2   force =     0.00563203   -0.01223231    0.26504476
     atom   24 type  1   force =     0.00671637    0.00601685   -0.01207712
     atom   25 type  2   force =     0.00087915    0.01117820   -0.25567675
     atom   26 type  2   force =    -0.00313093   -0.01479507    0.26464568
     atom   27 type  1   force =     0.00526079    0.01085221   -0.00131684
     atom   28 type  2   force =    -0.07736367    0.00685323    0.29028746
     atom   29 type  2   force =     0.00722289    0.00168194    0.26860968
     atom   30 type  1   force =    -0.00089160    0.02191754    0.01037035
     atom   31 type  2   force =    -0.00972509   -0.00733047   -0.24690224
     atom   32 type  2   force =    -0.01110192   -0.01691706    0.27064465
     atom   33 type  1   force =    -0.00149140    0.00075603    0.00687687
     atom   34 type  2   force =    -0.00047041   -0.03803831   -0.27332375
     atom   35 type  2   force =    -0.00212977   -0.01324692    0.27259564
     atom   36 type  3   force =     0.02422963    0.00171182   -0.06139804
     The ionic contribution  to forces
     atom    1 type  1   force =     0.09841925    0.08002761    5.77117893
     atom    2 type  2   force =    -0.72405721    0.21347359   39.39831020
     atom    3 type  2   force =    -0.22658384   -0.08670677  -36.15175583
     atom    4 type  1   force =    -1.13902803    1.14193796    0.35203224
     atom    5 type  2   force =    -1.10950642    1.49948920   38.80974164
     atom    6 type  2   force =     0.25397028   -0.51447396  -38.05526654
     atom    7 type  1   force =    -2.68719671   -2.64416106    2.65113032
     atom    8 type  2   force =    -1.09921361    0.20458776   37.49926993
     atom    9 type  2   force =     0.27198109    0.06006062  -38.03671367
     atom   10 type  1   force =    -1.12702818   -0.44034704    5.71313111
     atom   11 type  2   force =    -0.57365479   -1.59734323   39.19882635
     atom   12 type  2   force =     0.41470888    0.68427169  -37.82638259
     atom   13 type  1   force =     0.81957574    0.67455284    2.85986175
     atom   14 type  2   force =     0.05510506   -0.06559721   38.60104806
     atom   15 type  2   force =     0.16618476   -0.09677272  -36.80108969
     atom   16 type  1   force =     0.06199928    4.03034393    0.54093690
     atom   17 type  2   force =     1.07540758    1.49338900   38.08817214
     atom   18 type  2   force =    -0.04652917   -0.64197990  -38.63095957
     atom   19 type  1   force =     2.81970472   -2.28321025    0.72805050
     atom   20 type  2   force =     0.23432293   -0.16043633  -38.47264794
     atom   21 type  1   force =     0.04880883   -0.00129860    1.30673366
     atom   22 type  2   force =     0.48066569   -1.70302367   38.50565096
     atom   23 type  2   force =    -0.06663278    0.66013945  -38.26549241
     atom   24 type  1   force =    -0.71439306   -0.52094811    5.34782708
     atom   25 type  2   force =     0.72814919    0.06327362   39.39396330
     atom   26 type  2   force =    -0.22315879   -0.05541412  -37.38551781
     atom   27 type  1   force =     1.59421710    1.40964605   -3.20915053
     atom   28 type  2   force =     0.05421118    1.01011904   34.51811201
     atom   29 type  2   force =    -0.31030460   -0.44382515  -37.70971269
     atom   30 type  1   force =    -0.36669689   -0.50859601   -0.00836236
     atom   31 type  2   force =     1.34170467    0.19900647   37.47426332
     atom   32 type  2   force =    -0.41867222    0.10954833  -38.68802111
     atom   33 type  1   force =     0.82033265   -0.95159096    2.18456961
     atom   34 type  2   force =     0.22447782   -1.39836853   39.40519120
     atom   35 type  2   force =    -0.29268784    0.47816345  -37.78590252
     atom   36 type  3   force =    -0.43860254    0.10206301    8.67897404
     The local contribution  to forces
     atom    1 type  1   force =    -0.08326550   -0.13226605   -5.75863684
     atom    2 type  2   force =     0.71289076   -0.20496078  -39.15387307
     atom    3 type  2   force =     0.22635242    0.09860045   35.89603700
     atom    4 type  1   force =     1.13614626   -1.14729660   -0.39105685
     atom    5 type  2   force =     1.09903275   -1.47367541  -38.58766348
     atom    6 type  2   force =    -0.24973951    0.51659651   37.81998937
     atom    7 type  1   force =     2.72018064    2.65619951   -2.64447302
     atom    8 type  2   force =     1.09401889   -0.19841205  -37.25285409
     atom    9 type  2   force =    -0.27077894   -0.04102799   37.79072554
     atom   10 type  1   force =     1.11870269    0.45375526   -5.73524310
     atom   11 type  2   force =     0.56208633    1.59018340  -38.96282528
     atom   12 type  2   force =    -0.40576497   -0.67039254   37.59002387
     atom   13 type  1   force =    -0.81953674   -0.68927485   -2.86240391
     atom   14 type  2   force =    -0.05642138    0.07152749  -38.35041467
     atom   15 type  2   force =    -0.16536549    0.09941538   36.55186417
     atom   16 type  1   force =    -0.06578561   -4.08943811   -0.53578418
     atom   17 type  2   force =    -1.05548748   -1.46930711  -37.85801788
     atom   18 type  2   force =     0.04677976    0.63859786   38.39588910
     atom   19 type  1   force =    -2.83945163    2.30104583   -0.72639840
     atom   20 type  2   force =    -0.23160089    0.17505228   38.23087256
     atom   21 type  1   force =    -0.05700779   -0.00680328   -1.31293416
     atom   22 type  2   force =    -0.47311795    1.69706630  -38.26618599
     atom   23 type  2   force =     0.06062114   -0.64756177   38.02953221
     atom   24 type  1   force =     0.70054241    0.45683881   -5.38981260
     atom   25 type  2   force =    -0.71275636   -0.05834136  -39.14934858
     atom   26 type  2   force =     0.21860232    0.06743909   37.13686168
     atom   27 type  1   force =    -1.53198110   -1.38594664    3.17322487
     atom   28 type  2   force =    -0.05840897   -1.02975586  -34.72135844
     atom   29 type  2   force =     0.30483338    0.44368697   37.44443291
     atom   30 type  1   force =     0.36298273    0.49651575   -0.00783033
     atom   31 type  2   force =    -1.33027029   -0.18478450  -37.22780243
     atom   32 type  2   force =     0.41762244   -0.08999681   38.44266505
     atom   33 type  1   force =    -0.80605941    0.94694512   -2.19878751
     atom   34 type  2   force =    -0.22170909    1.39356439  -39.16417076
     atom   35 type  2   force =     0.28747958   -0.45828040   37.54822602
     atom   36 type  3   force =     0.43153017   -0.09497177   -8.59048061
     The core correction contribution to forces
     atom    1 type  1   force =     0.00000000    0.00000000    0.00000000
     atom    2 type  2   force =    -0.00028625   -0.00081426    0.02011857
     atom    3 type  2   force =     0.00057511    0.00007159   -0.02094041
     atom    4 type  1   force =     0.00000000    0.00000000    0.00000000
     atom    5 type  2   force =    -0.00133293    0.00187646    0.01976725
     atom    6 type  2   force =     0.00011652   -0.00099156   -0.02073669
     atom    7 type  1   force =     0.00000000    0.00000000    0.00000000
     atom    8 type  2   force =    -0.00053738    0.00115802    0.01978055
     atom    9 type  2   force =    -0.00052878    0.00096552   -0.02092923
     atom   10 type  1   force =     0.00000000    0.00000000    0.00000000
     atom   11 type  2   force =    -0.00074183   -0.00063294    0.02061369
     atom   12 type  2   force =     0.00104377    0.00116678   -0.02068724
     atom   13 type  1   force =     0.00000000    0.00000000    0.00000000
     atom   14 type  2   force =    -0.00049524   -0.00026808    0.02049153
     atom   15 type  2   force =     0.00074369    0.00014881   -0.02052354
     atom   16 type  1   force =     0.00000000    0.00000000    0.00000000
     atom   17 type  2   force =     0.00073307    0.00135708    0.01997217
     atom   18 type  2   force =     0.00031202   -0.00042488   -0.02089533
     atom   19 type  1   force =     0.00000000    0.00000000    0.00000000
     atom   20 type  2   force =     0.00014774    0.00080625   -0.02106128
     atom   21 type  1   force =     0.00000000    0.00000000    0.00000000
     atom   22 type  2   force =     0.00030314   -0.00056271    0.02052064
     atom   23 type  2   force =    -0.00044773    0.00105978   -0.02073635
     atom   24 type  1   force =     0.00000000    0.00000000    0.00000000
     atom   25 type  2   force =     0.00042495   -0.00094248    0.02031075
     atom   26 type  2   force =    -0.00008705    0.00074929   -0.02093772
     atom   27 type  1   force =     0.00000000    0.00000000    0.00000000
     atom   28 type  2   force =     0.00545473    0.00042582   -0.01058403
     atom   29 type  2   force =    -0.00059534   -0.00051996   -0.02093420
     atom   30 type  1   force =     0.00000000    0.00000000    0.00000000
     atom   31 type  2   force =     0.00075892    0.00076648    0.02002222
     atom   32 type  2   force =     0.00035458    0.00108102   -0.02088233
     atom   33 type  1   force =     0.00000000    0.00000000    0.00000000
     atom   34 type  2   force =     0.00034948    0.00118657    0.02108510
     atom   35 type  2   force =    -0.00008779    0.00108341   -0.02117668
     atom   36 type  3   force =     0.00000000    0.00000000    0.00000000
     The Hubbard contrib.    to forces
     atom    1 type  1   force =     0.00000000    0.00000000    0.00000000
     atom    2 type  2   force =     0.00000000    0.00000000    0.00000000
     atom    3 type  2   force =     0.00000000    0.00000000    0.00000000
     atom    4 type  1   force =     0.00000000    0.00000000    0.00000000
     atom    5 type  2   force =     0.00000000    0.00000000    0.00000000
     atom    6 type  2   force =     0.00000000    0.00000000    0.00000000
     atom    7 type  1   force =     0.00000000    0.00000000    0.00000000
     atom    8 type  2   force =     0.00000000    0.00000000    0.00000000
     atom    9 type  2   force =     0.00000000    0.00000000    0.00000000
     atom   10 type  1   force =     0.00000000    0.00000000    0.00000000
     atom   11 type  2   force =     0.00000000    0.00000000    0.00000000
     atom   12 type  2   force =     0.00000000    0.00000000    0.00000000
     atom   13 type  1   force =     0.00000000    0.00000000    0.00000000
     atom   14 type  2   force =     0.00000000    0.00000000    0.00000000
     atom   15 type  2   force =     0.00000000    0.00000000    0.00000000
     atom   16 type  1   force =     0.00000000    0.00000000    0.00000000
     atom   17 type  2   force =     0.00000000    0.00000000    0.00000000
     atom   18 type  2   force =     0.00000000    0.00000000    0.00000000
     atom   19 type  1   force =     0.00000000    0.00000000    0.00000000
     atom   20 type  2   force =     0.00000000    0.00000000    0.00000000
     atom   21 type  1   force =     0.00000000    0.00000000    0.00000000
     atom   22 type  2   force =     0.00000000    0.00000000    0.00000000
     atom   23 type  2   force =     0.00000000    0.00000000    0.00000000
     atom   24 type  1   force =     0.00000000    0.00000000    0.00000000
     atom   25 type  2   force =     0.00000000    0.00000000    0.00000000
     atom   26 type  2   force =     0.00000000    0.00000000    0.00000000
     atom   27 type  1   force =     0.00000000    0.00000000    0.00000000
     atom   28 type  2   force =     0.00000000    0.00000000    0.00000000
     atom   29 type  2   force =     0.00000000    0.00000000    0.00000000
     atom   30 type  1   force =     0.00000000    0.00000000    0.00000000
     atom   31 type  2   force =     0.00000000    0.00000000    0.00000000
     atom   32 type  2   force =     0.00000000    0.00000000    0.00000000
     atom   33 type  1   force =     0.00000000    0.00000000    0.00000000
     atom   34 type  2   force =     0.00000000    0.00000000    0.00000000
     atom   35 type  2   force =     0.00000000    0.00000000    0.00000000
     atom   36 type  3   force =     0.00000000    0.00000000    0.00000000
     The SCF correction term to forces
     atom    1 type  1   force =     0.00036687    0.00037929    0.00018799
     atom    2 type  2   force =     0.00002377    0.00027741   -0.00019673
     atom    3 type  2   force =    -0.00004025    0.00018286    0.00033145
     atom    4 type  1   force =     0.00005198    0.00008394    0.00056786
     atom    5 type  2   force =     0.00027874   -0.00002251   -0.00008716
     atom    6 type  2   force =     0.00017896   -0.00003881    0.00029496
     atom    7 type  1   force =     0.00062284   -0.00039357    0.00015558
     atom    8 type  2   force =    -0.00007725   -0.00015133   -0.00032881
     atom    9 type  2   force =    -0.00010489   -0.00000425    0.00054285
     atom   10 type  1   force =    -0.00011521   -0.00001538    0.00003532
     atom   11 type  2   force =     0.00011841   -0.00023856   -0.00033374
     atom   12 type  2   force =     0.00011030   -0.00024889    0.00045126
     atom   13 type  1   force =    -0.00010620    0.00033193    0.00006728
     atom   14 type  2   force =     0.00007055    0.00021139   -0.00018231
     atom   15 type  2   force =     0.00004893    0.00019221    0.00030179
     atom   16 type  1   force =     0.00040049   -0.00019555    0.00020738
     atom   17 type  2   force =    -0.00015529   -0.00008573   -0.00002227
     atom   18 type  2   force =    -0.00012499   -0.00009494    0.00024734
     atom   19 type  1   force =     0.00003246   -0.00036360    0.00011046
     atom   20 type  2   force =     0.00030984    0.00000731    0.00030988
     atom   21 type  1   force =     0.00038397    0.00013435    0.00009458
     atom   22 type  2   force =    -0.00000517    0.00003749   -0.00007889
     atom   23 type  2   force =    -0.00000569    0.00005385    0.00018336
     atom   24 type  1   force =    -0.00026204    0.00047875    0.00048034
     atom   25 type  2   force =    -0.00010235    0.00025411   -0.00014109
     atom   26 type  2   force =    -0.00001211    0.00017281    0.00027890
     atom   27 type  1   force =    -0.00030385   -0.00014948    0.00030554
     atom   28 type  2   force =    -0.00012832    0.00003680    0.00011911
     atom   29 type  2   force =    -0.00006603    0.00005467    0.00031708
     atom   30 type  1   force =    -0.00062950   -0.00051355    0.00010954
     atom   31 type  2   force =    -0.00025853   -0.00024964   -0.00006934
     atom   32 type  2   force =    -0.00019699   -0.00018764    0.00027411
     atom   33 type  1   force =    -0.00024667    0.00032761    0.00009843
     atom   34 type  2   force =    -0.00010167   -0.00007920   -0.00017703
     atom   35 type  2   force =    -0.00011855   -0.00010697    0.00031129
     atom   36 type  3   force =    -0.00000253    0.00000626   -0.00005126

     Total force =     0.189966     Total SCF correction =     0.002498
     Energy error            =      7.4E-01 Ry
     Gradient error          =      7.7E-02 Ry/Bohr

     number of scf cycles    =   2
     number of bfgs steps    =   1

     energy             old  =   -2204.8003198226 Ry
     energy             new  =   -2205.5376746752 Ry

     CASE: energy            _new < energy            _old

     new trust radius        =       0.0829481292 bohr
     new conv_thr            =       0.0000000766 Ry


ATOMIC_POSITIONS (angstrom)
Mo            6.5813137815        1.7744359192        2.8247761895
S             8.1679318100        0.8206743391        4.4370104154
S             8.1848689771        0.8163057609        1.2743541769
Mo            8.0864309955        4.5008964633        2.7021952805
S             6.5008335251        3.7194029547        4.3438230003
S             6.5557952678        3.5183116231        1.1240967792
Mo            6.4888963204        7.2191922661        2.6687227151
S             8.0829478166        6.3414177811        4.2551683442
S             8.0901392726        6.3069448633        1.0897790516
Mo            8.1544939341        9.9074374430        2.8285650156
S             6.4968946660        8.9415278962        4.3801060354
S             6.6171370105        9.0495304582        1.1427232153
Mo            3.4250447160        1.7498704364        2.7705054186
S             4.9800222940        0.8172033928        4.3574597962
S             5.0503220415        0.8468491123        1.2208810803
Mo            4.9800434571        4.5104348054        2.6318136083
S             3.4370301215        3.6721731421        4.2808316331
S             3.4341330940        3.5437016621        1.0681492658
Mo            3.4600778845        7.2203765649        2.6289812414
S             4.9851411747        6.3234904565        1.0375957296
Mo            5.0089641522        9.9056734757        2.7430931968
S             3.4706229664        8.9421720241        4.3252710700
S             3.4078936472        9.0659862940        1.1015782267
Mo            0.2907302227        1.7150569344        2.8193055699
S             1.8612129463        0.8024721759        4.4037972909
S             1.8554476718        0.8534206199        1.2065346636
Mo            1.8972166061        4.5145035615        2.6422584876
S             0.3221082578        3.6504435482        4.1089028842
S             0.2321593514        3.5280422038        1.1629819219
Mo            0.2680308473        7.2223243644        2.6980769062
S             1.9037720930        6.3175317355        4.2346958442
S             1.8547335207        6.3121342980        1.0477704715
Mo            1.8524182549        9.9378307048        2.7681974044
S             0.2975734281        9.0631713247        4.4067750686
S             0.2719377565        9.0484916970        1.1594734997
H             9.3747871289        3.6444807745        5.3944970782



     Writing config-only to output data dir ./MoS2-V-O.save/
     NEW-OLD atomic charge density approx. for the potential

     negative rho (up, down):  1.443E-04 0.000E+00

     total cpu time spent up to now is      201.6 secs

     Self-consistent Calculation

     iteration #  1     ecut=    80.00 Ry     beta= 0.70
     Davidson diagonalization with overlap
     ethr =  1.00E-06,  avg # of iterations = 13.0

     negative rho (up, down):  8.801E-05 0.000E+00

     total cpu time spent up to now is      215.9 secs

     total energy              =   -2205.56118004 Ry
     estimated scf accuracy    <       0.00620192 Ry

     iteration #  2     ecut=    80.00 Ry     beta= 0.70
     Davidson diagonalization with overlap
     ethr =  2.02E-06,  avg # of iterations =  2.0

     negative rho (up, down):  7.087E-05 0.000E+00

     total cpu time spent up to now is      239.4 secs

     total energy              =   -2205.56146724 Ry
     estimated scf accuracy    <       0.00083072 Ry

     iteration #  3     ecut=    80.00 Ry     beta= 0.70
     Davidson diagonalization with overlap
     ethr =  2.71E-07,  avg # of iterations =  4.0

     negative rho (up, down):  6.094E-05 0.000E+00

     total cpu time spent up to now is      262.2 secs

     total energy              =   -2205.56151774 Ry
     estimated scf accuracy    <       0.00019301 Ry

     iteration #  4     ecut=    80.00 Ry     beta= 0.70
     Davidson diagonalization with overlap
     ethr =  6.29E-08,  avg # of iterations =  3.0

     negative rho (up, down):  6.053E-05 0.000E+00

     total cpu time spent up to now is      279.6 secs

     total energy              =   -2205.56154839 Ry
     estimated scf accuracy    <       0.00002811 Ry

     iteration #  5     ecut=    80.00 Ry     beta= 0.70
     Davidson diagonalization with overlap
     ethr =  9.16E-09,  avg # of iterations =  7.0

     negative rho (up, down):  6.201E-05 0.000E+00

     total cpu time spent up to now is      297.5 secs

     total energy              =   -2205.56155624 Ry
     estimated scf accuracy    <       0.00000823 Ry

     iteration #  6     ecut=    80.00 Ry     beta= 0.70
     Davidson diagonalization with overlap
     ethr =  2.68E-09,  avg # of iterations =  3.0

     negative rho (up, down):  6.538E-05 0.000E+00

     total cpu time spent up to now is      305.8 secs

     total energy              =   -2205.56155691 Ry
     estimated scf accuracy    <       0.00000171 Ry

     iteration #  7     ecut=    80.00 Ry     beta= 0.70
     Davidson diagonalization with overlap
     ethr =  5.58E-10,  avg # of iterations =  3.0

     negative rho (up, down):  6.866E-05 0.000E+00

     total cpu time spent up to now is      316.2 secs

     total energy              =   -2205.56155720 Ry
     estimated scf accuracy    <       0.00000105 Ry

     iteration #  8     ecut=    80.00 Ry     beta= 0.70
     Davidson diagonalization with overlap
     ethr =  3.42E-10,  avg # of iterations =  2.0

     negative rho (up, down):  7.663E-05 0.000E+00

     total cpu time spent up to now is      328.1 secs

     total energy              =   -2205.56155715 Ry
     estimated scf accuracy    <       0.00000062 Ry

     iteration #  9     ecut=    80.00 Ry     beta= 0.70
     Davidson diagonalization with overlap
     ethr =  2.01E-10,  avg # of iterations =  2.0

     negative rho (up, down):  9.626E-05 0.000E+00

     total cpu time spent up to now is      344.8 secs

     total energy              =   -2205.56155708 Ry
     estimated scf accuracy    <       0.00000022 Ry

     iteration # 10     ecut=    80.00 Ry     beta= 0.70
     Davidson diagonalization with overlap
     ethr =  7.07E-11,  avg # of iterations =  3.0

     negative rho (up, down):  1.367E-04 0.000E+00

     total cpu time spent up to now is      346.9 secs

     End of self-consistent calculation

          k = 0.0000 0.0000 0.0000 (105382 PWs)   bands (ev):

   -62.9149 -62.8499 -62.8253 -62.7611 -62.7519 -62.7441 -62.7349 -62.7308
   -62.7140 -62.5233 -62.5031 -62.4629 -37.2463 -37.1706 -37.1468 -37.1009
   -37.0735 -37.0670 -37.0500 -37.0271 -37.0204 -37.0017 -36.9958 -36.9714
   -36.9570 -36.9547 -36.9386 -36.9300 -36.9268 -36.9168 -36.9153 -36.9091
   -36.8791 -36.8690 -36.8523 -36.8115 -36.7906 -36.7862 -36.7568 -36.7459
   -36.7193 -36.6981 -36.6832 -36.6596 -36.6370 -36.6308 -36.4757 -36.4657
   -16.8384 -15.7415 -15.0458 -15.0080 -14.8818 -14.7636 -14.6647 -14.4299
   -14.4025 -14.3478 -14.3079 -14.2857 -14.2428 -14.1968 -14.1295 -14.0640
   -14.0399 -14.0314 -13.9350 -13.8730 -13.7684 -13.7297 -13.6931  -9.5986
    -7.7610  -7.5571  -7.3619  -7.2907  -7.2004  -7.1602  -7.0724  -7.0346
    -6.8242  -6.7768  -6.7054  -6.6448  -6.5715  -6.5146  -6.4057  -6.3538
    -6.3228  -6.1865  -6.1677  -5.9637  -5.9429  -5.8714  -5.7779  -5.7443
    -5.6499  -5.6432  -5.6196  -5.5984  -5.5857  -5.5638  -5.4947  -5.3761
    -5.3634  -5.3141  -5.1272  -5.0709  -5.0178  -4.9803  -4.9542  -4.8805
    -4.8359  -4.7573  -4.5912  -4.4953  -4.3982  -4.3424  -4.2398  -4.2098
    -4.1536  -4.0755  -3.9487  -3.8522  -3.7504  -3.7302  -3.6833  -3.6513
    -3.6060  -3.5486  -3.5171  -3.4740  -3.4614  -3.3957  -3.3594  -3.3293
    -3.2667  -3.1684  -3.0791  -2.8483  -2.8050  -2.7606  -2.6961  -2.6660
    -2.6253  -2.5993  -2.5647  -2.5111  -2.4497  -2.2055  -1.9434  -1.9191
    -1.7887  -0.6297  -0.5388  -0.2645  -0.1390  -0.0881  -0.0250   0.0419
     0.1159   0.1362   0.3105   0.3473   0.3724   0.3948   0.4328   0.5037
     0.5780   0.6292   0.6435   0.6985   0.7271   0.7561   0.7730   0.8386
     0.8898   0.9110   0.9610   0.9904   1.0215   1.0736   1.0873   1.3952
     1.4760

     the Fermi energy is    -0.6567 ev

!    total energy              =   -2205.56155699 Ry
     estimated scf accuracy    <       0.00000003 Ry
     smearing contrib. (-TS)   =      -0.00808910 Ry
     internal energy E=F+TS    =   -2205.55346789 Ry

     The total energy is F=E-TS. E is the sum of the following terms:
     one-electron contribution =  -18078.77502334 Ry
     hartree contribution      =    9026.87199968 Ry
     xc contribution           =    -385.52195467 Ry
     ewald contribution        =    7231.87151044 Ry

     convergence has been achieved in  10 iterations

     negative rho (up, down):  1.367E-04 0.000E+00

     Forces acting on atoms (cartesian axes, Ry/au):

     atom    1 type  1   force =     0.00413469   -0.00976499   -0.00028915
     atom    2 type  2   force =    -0.00803273    0.00922176   -0.00065378
     atom    3 type  2   force =    -0.01556067    0.00219318   -0.01595161
     atom    4 type  1   force =    -0.01085598    0.00920406   -0.01151698
     atom    5 type  2   force =     0.00368372   -0.00429863   -0.00737294
     atom    6 type  2   force =     0.00144979    0.00470394   -0.00035646
     atom    7 type  1   force =     0.00150565   -0.00042888    0.00000569
     atom    8 type  2   force =     0.00019183   -0.00424423    0.01139240
     atom    9 type  2   force =     0.01062714    0.00624661    0.00329379
     atom   10 type  1   force =    -0.00590786    0.00743692   -0.00743081
     atom   11 type  2   force =     0.00218983   -0.00103041   -0.00652697
     atom   12 type  2   force =    -0.00325252    0.00136885    0.00073784
     atom   13 type  1   force =     0.00204364    0.00419369   -0.00206229
     atom   14 type  2   force =     0.00543036    0.00054534    0.00661541
     atom   15 type  2   force =    -0.00837720    0.00037326   -0.00828447
     atom   16 type  1   force =     0.00350895   -0.00303790    0.00158563
     atom   17 type  2   force =     0.01140307    0.00262388    0.00027932
     atom   18 type  2   force =     0.00067889   -0.00700693    0.00398741
     atom   19 type  1   force =     0.00510991    0.00282035    0.00100826
     atom   20 type  2   force =     0.00279760   -0.00396356   -0.00178123
     atom   21 type  1   force =    -0.00313317    0.00361335    0.00177952
     atom   22 type  2   force =     0.00071424   -0.00119800   -0.00067608
     atom   23 type  2   force =     0.00053259    0.00148613    0.00370744
     atom   24 type  1   force =    -0.00474242   -0.02423442   -0.01770450
     atom   25 type  2   force =     0.01105375    0.01088982    0.00031975
     atom   26 type  2   force =    -0.00233820   -0.00520702   -0.01051911
     atom   27 type  1   force =     0.01586665    0.00898936    0.00256626
     atom   28 type  2   force =    -0.04075725   -0.00881349    0.03098118
     atom   29 type  2   force =     0.00674095    0.00187623   -0.00964901
     atom   30 type  1   force =    -0.00156349   -0.00113455    0.00311680
     atom   31 type  2   force =     0.00390964    0.00601947    0.01119014
     atom   32 type  2   force =    -0.00631954    0.00927438   -0.00109870
     atom   33 type  1   force =     0.00838602   -0.00148962    0.00166494
     atom   34 type  2   force =     0.00019901   -0.03081555   -0.01490706
     atom   35 type  2   force =    -0.00555002    0.00788247    0.00732883
     atom   36 type  3   force =     0.01423314    0.00570516    0.02522058
     The non-local contrib.  to forces
     atom    1 type  1   force =    -0.00396806    0.02863494   -0.01332204
     atom    2 type  2   force =     0.00009878    0.00285491   -0.26020707
     atom    3 type  2   force =    -0.01357467   -0.00895277    0.26285505
     atom    4 type  1   force =    -0.01741419    0.01722531    0.00528635
     atom    5 type  2   force =     0.01439461   -0.03293497   -0.24797928
     atom    6 type  2   force =    -0.00250889    0.00452551    0.25869282
     atom    7 type  1   force =    -0.03627542   -0.01012900   -0.01222846
     atom    8 type  2   force =     0.00580970   -0.01024830   -0.25041647
     atom    9 type  2   force =     0.00992461   -0.01428007    0.27202675
     atom   10 type  1   force =    -0.00208622   -0.00571006   -0.00223907
     atom   11 type  2   force =     0.01373576    0.00662469   -0.26193364
     atom   12 type  2   force =    -0.01226203   -0.01342435    0.25936409
     atom   13 type  1   force =     0.00561167    0.02012616   -0.00857215
     atom   14 type  2   force =     0.00805637   -0.00533072   -0.26150464
     atom   15 type  2   force =    -0.01088393   -0.00275320    0.26049091
     atom   16 type  1   force =     0.00160266    0.05502349   -0.01101130
     atom   17 type  2   force =    -0.00424725   -0.02426968   -0.24737560
     atom   18 type  2   force =    -0.00002094   -0.00290454    0.26362709
     atom   19 type  1   force =     0.03046634   -0.00929127   -0.00680613
     atom   20 type  2   force =    -0.00039039   -0.02031581    0.26201469
     atom   21 type  1   force =     0.00136658    0.01488119    0.00430895
     atom   22 type  2   force =    -0.00703649    0.00499994   -0.25984647
     atom   23 type  2   force =     0.00636419   -0.01214967    0.26232117
     atom   24 type  1   force =     0.00514570   -0.00213837   -0.01448957
     atom   25 type  2   force =    -0.00176884    0.00600606   -0.25872672
     atom   26 type  2   force =     0.00151060   -0.01661387    0.26094024
     atom   27 type  1   force =     0.01828243    0.01651966   -0.00494689
     atom   28 type  2   force =    -0.05663896   -0.00094145    0.26392473
[...]
     atom   27 type  1   force =     0.01987672    0.01674538   -0.00750150
     atom   28 type  2   force =    -0.01299583   -0.00651712    0.27203439
     atom   29 type  2   force =    -0.00340345   -0.01339015    0.28182901
     atom   30 type  1   force =     0.00005291    0.01971966    0.00570777
     atom   31 type  2   force =    -0.00853947   -0.00710671   -0.25576961
     atom   32 type  2   force =     0.00337107   -0.01954751    0.26870207
     atom   33 type  1   force =     0.00351843   -0.00416764    0.00272482
     atom   34 type  2   force =     0.00088187   -0.00879133   -0.26971452
     atom   35 type  2   force =    -0.00103551   -0.01668912    0.26787478
     atom   36 type  3   force =     0.00399786   -0.00229356   -0.06382234
     The ionic contribution  to forces
     atom    1 type  1   force =     0.03674540    0.78526419    1.42833496
     atom    2 type  2   force =    -0.32927392    0.15125982   38.99389709
     atom    3 type  2   force =     0.14848895    0.05663112  -37.73794809
     atom    4 type  1   force =     0.08464101    0.73451665    0.32981932
     atom    5 type  2   force =    -0.90379277    1.22757190   38.20601430
     atom    6 type  2   force =     0.36174667   -0.22550377  -38.46257116
     atom    7 type  1   force =    -2.24147904   -2.89942210    2.62922236
     atom    8 type  2   force =    -1.26743933    0.12057627   38.11178122
     atom    9 type  2   force =     0.36321043    0.02921271  -37.71867748
     atom   10 type  1   force =    -0.24437228   -0.78646174    2.92702598
     atom   11 type  2   force =    -0.35555399   -1.44465632   38.81752444
     atom   12 type  2   force =     0.30159675    0.21876425  -38.18747229
     atom   13 type  1   force =    -0.04659817    0.80570496    2.36987688
     atom   14 type  2   force =     0.03870878    0.09382972   38.48213898
     atom   15 type  2   force =    -0.04270141   -0.02722441  -37.73166191
     atom   16 type  1   force =     0.03626987    4.19851033   -0.42826838
     atom   17 type  2   force =     0.94758251    1.21603940   38.39775570
     atom   18 type  2   force =    -0.41286484   -0.23770336  -38.26365814
     atom   19 type  1   force =     2.31738247   -2.89635921    3.45812682
     atom   20 type  2   force =    -0.04030237   -0.15033584  -38.40240607
     atom   21 type  1   force =     0.02625688   -0.10085181    0.65955963
     atom   22 type  2   force =     0.39034687   -1.41542448   38.95683719
     atom   23 type  2   force =    -0.35229456    0.19758589  -38.03368605
     atom   24 type  1   force =     0.00554100    1.09008008    2.80115720
     atom   25 type  2   force =     0.28404874    0.18465460   39.16547629
     atom   26 type  2   force =    -0.09944170    0.05133838  -37.58116519
     atom   27 type  1   force =    -0.13122519    0.68291556    1.49290441
     atom   28 type  2   force =     0.08259848    0.46161943   35.11872248
     atom   29 type  2   force =     0.04020913   -0.02030956  -36.76497895
     atom   30 type  1   force =    -0.02145818   -1.02017400    2.31352901
     atom   31 type  2   force =     1.19798449    0.13638524   38.31524475
     atom   32 type  2   force =    -0.33371519   -0.00264492  -37.56776501
     atom   33 type  1   force =     0.24954718   -0.79254838    3.63494929
     atom   34 type  2   force =    -0.04829658   -0.54094469   38.85575013
     atom   35 type  2   force =     0.03650411    0.00325519  -37.27936033
     atom   36 type  3   force =    -0.07860018    0.11484890    8.69397061
     The local contribution  to forces
     atom    1 type  1   force =    -0.03149386   -0.80958605   -1.42296389
     atom    2 type  2   force =     0.32075877   -0.14743413  -38.75813541
     atom    3 type  2   force =    -0.14680001   -0.04496207   37.49046968
     atom    4 type  1   force =    -0.06698321   -0.75089026   -0.32533858
     atom    5 type  2   force =     0.88950417   -1.20501112  -37.98093256
     atom    6 type  2   force =    -0.35732072    0.22926808   38.22257055
     atom    7 type  1   force =     2.27468326    2.91175287   -2.61532342
     atom    8 type  2   force =     1.25848585   -0.11400696  -37.87676595
     atom    9 type  2   force =    -0.35925427   -0.01125467   37.47049244
     atom   10 type  1   force =     0.24790767    0.79125323   -2.92997768
     atom   11 type  2   force =     0.34691954    1.44375470  -38.57746759
     atom   12 type  2   force =    -0.29397958   -0.21168863   37.94869809
     atom   13 type  1   force =     0.04218606   -0.82987820   -2.36448295
     atom   14 type  2   force =    -0.03776547   -0.08738001  -38.23964149
     atom   15 type  2   force =     0.04210912    0.03066082   37.48945731
     atom   16 type  1   force =    -0.03623239   -4.25284877    0.43285081
     atom   17 type  2   force =    -0.93118693   -1.19397992  -38.17184928
     atom   18 type  2   force =     0.40741465    0.24118559   38.02339256
     atom   19 type  1   force =    -2.35019715    2.90829656   -3.44396862
     atom   20 type  2   force =     0.03952643    0.16665938   38.16025424
     atom   21 type  1   force =    -0.02655694    0.08658928   -0.66296985
     atom   22 type  2   force =    -0.38087848    1.41448257  -38.71684303
     atom   23 type  2   force =     0.34425661   -0.19065622   37.79479041
     atom   24 type  1   force =    -0.00541075   -1.08431971   -2.78552731
     atom   25 type  2   force =    -0.27580870   -0.18117143  -38.92950222
     atom   26 type  2   force =     0.09834920   -0.03937260   37.33376925
     atom   27 type  1   force =     0.11180736   -0.69942557   -1.48588758
     atom   28 type  2   force =    -0.07156263   -0.45554388  -35.37926250
     atom   29 type  2   force =    -0.03915192    0.03328783   36.50259302
     atom   30 type  1   force =     0.02099254    0.99991209   -2.31909242
     atom   31 type  2   force =    -1.18990464   -0.12931978  -38.08001094
     atom   32 type  2   force =     0.33012121    0.02024720   37.31945582
     atom   33 type  1   force =    -0.25273786    0.79615182   -3.63776505
     atom   34 type  2   force =     0.04748662    0.54954181  -38.60566131
     atom   35 type  2   force =    -0.03582414    0.01232044   37.03217325
     atom   36 type  3   force =     0.07688254   -0.11309043   -8.62960106
     The core correction contribution to forces
     atom    1 type  1   force =     0.00000000    0.00000000    0.00000000
     atom    2 type  2   force =    -0.00084942   -0.00015370    0.02022365
     atom    3 type  2   force =     0.00004940    0.00043070   -0.02107146
     atom    4 type  1   force =     0.00000000    0.00000000    0.00000000
     atom    5 type  2   force =    -0.00135541    0.00105301    0.01984584
     atom    6 type  2   force =     0.00037202   -0.00021703   -0.02073184
     atom    7 type  1   force =     0.00000000    0.00000000    0.00000000
     atom    8 type  2   force =    -0.00074742    0.00086129    0.02005642
     atom    9 type  2   force =     0.00035366    0.00120329   -0.02085450
     atom   10 type  1   force =     0.00000000    0.00000000    0.00000000
     atom   11 type  2   force =    -0.00035092   -0.00026093    0.02060769
     atom   12 type  2   force =     0.00065510    0.00068855   -0.02069117
     atom   13 type  1   force =     0.00000000    0.00000000    0.00000000
     atom   14 type  2   force =     0.00010360   -0.00005167    0.02058791
     atom   15 type  2   force =    -0.00014345    0.00010777   -0.02060976
     atom   16 type  1   force =     0.00000000    0.00000000    0.00000000
     atom   17 type  2   force =     0.00144391    0.00111678    0.01991999
     atom   18 type  2   force =    -0.00046176   -0.00027406   -0.02071654
     atom   19 type  1   force =     0.00000000    0.00000000    0.00000000
     atom   20 type  2   force =    -0.00013918    0.00070095   -0.02105062
     atom   21 type  1   force =     0.00000000    0.00000000    0.00000000
     atom   22 type  2   force =     0.00042690   -0.00021224    0.02062346
     atom   23 type  2   force =    -0.00073259    0.00065868   -0.02066110
     atom   24 type  1   force =     0.00000000    0.00000000    0.00000000
     atom   25 type  2   force =     0.00076049   -0.00008989    0.02026437
     atom   26 type  2   force =    -0.00001477    0.00042880   -0.02106326
     atom   27 type  1   force =     0.00000000    0.00000000    0.00000000
     atom   28 type  2   force =     0.00092152    0.00035042   -0.01117967
     atom   29 type  2   force =     0.00022725    0.00047939   -0.02130929
     atom   30 type  1   force =     0.00000000    0.00000000    0.00000000
     atom   31 type  2   force =     0.00062732    0.00087533    0.02009563
     atom   32 type  2   force =    -0.00024043    0.00117121   -0.02085965
     atom   33 type  1   force =     0.00000000    0.00000000    0.00000000
     atom   34 type  2   force =    -0.00009083    0.00032396    0.02094176
     atom   35 type  2   force =     0.00008124    0.00097227   -0.02094881
     atom   36 type  3   force =     0.00000000    0.00000000    0.00000000
     The Hubbard contrib.    to forces
     atom    1 type  1   force =     0.00000000    0.00000000    0.00000000
     atom    2 type  2   force =     0.00000000    0.00000000    0.00000000
     atom    3 type  2   force =     0.00000000    0.00000000    0.00000000
     atom    4 type  1   force =     0.00000000    0.00000000    0.00000000
     atom    5 type  2   force =     0.00000000    0.00000000    0.00000000
     atom    6 type  2   force =     0.00000000    0.00000000    0.00000000
     atom    7 type  1   force =     0.00000000    0.00000000    0.00000000
     atom    8 type  2   force =     0.00000000    0.00000000    0.00000000
     atom    9 type  2   force =     0.00000000    0.00000000    0.00000000
     atom   10 type  1   force =     0.00000000    0.00000000    0.00000000
     atom   11 type  2   force =     0.00000000    0.00000000    0.00000000
     atom   12 type  2   force =     0.00000000    0.00000000    0.00000000
     atom   13 type  1   force =     0.00000000    0.00000000    0.00000000
     atom   14 type  2   force =     0.00000000    0.00000000    0.00000000
     atom   15 type  2   force =     0.00000000    0.00000000    0.00000000
     atom   16 type  1   force =     0.00000000    0.00000000    0.00000000
     atom   17 type  2   force =     0.00000000    0.00000000    0.00000000
     atom   18 type  2   force =     0.00000000    0.00000000    0.00000000
     atom   19 type  1   force =     0.00000000    0.00000000    0.00000000
     atom   20 type  2   force =     0.00000000    0.00000000    0.00000000
     atom   21 type  1   force =     0.00000000    0.00000000    0.00000000
     atom   22 type  2   force =     0.00000000    0.00000000    0.00000000
     atom   23 type  2   force =     0.00000000    0.00000000    0.00000000
     atom   24 type  1   force =     0.00000000    0.00000000    0.00000000
     atom   25 type  2   force =     0.00000000    0.00000000    0.00000000
     atom   26 type  2   force =     0.00000000    0.00000000    0.00000000
     atom   27 type  1   force =     0.00000000    0.00000000    0.00000000
     atom   28 type  2   force =     0.00000000    0.00000000    0.00000000
     atom   29 type  2   force =     0.00000000    0.00000000    0.00000000
     atom   30 type  1   force =     0.00000000    0.00000000    0.00000000
     atom   31 type  2   force =     0.00000000    0.00000000    0.00000000
     atom   32 type  2   force =     0.00000000    0.00000000    0.00000000
     atom   33 type  1   force =     0.00000000    0.00000000    0.00000000
     atom   34 type  2   force =     0.00000000    0.00000000    0.00000000
     atom   35 type  2   force =     0.00000000    0.00000000    0.00000000
     atom   36 type  3   force =     0.00000000    0.00000000    0.00000000
     The SCF correction term to forces
     atom    1 type  1   force =     0.00001216    0.00003474    0.00003077
     atom    2 type  2   force =     0.00000838    0.00001973    0.00001771
     atom    3 type  2   force =     0.00001254    0.00001146   -0.00000863
     atom    4 type  1   force =     0.00004603   -0.00000358    0.00002640
     atom    5 type  2   force =     0.00000872   -0.00000014    0.00000002
     atom    6 type  2   force =     0.00000943    0.00000834    0.00000437
     atom    7 type  1   force =     0.00003256   -0.00004993   -0.00000102
     atom    8 type  2   force =     0.00001936   -0.00000947   -0.00001427
     atom    9 type  2   force =     0.00001455   -0.00001079    0.00001041
     atom   10 type  1   force =     0.00002550   -0.00001122    0.00001032
     atom   11 type  2   force =     0.00001099   -0.00000524    0.00002669
     atom   12 type  2   force =     0.00001217   -0.00000975   -0.00001745
     atom   13 type  1   force =    -0.00001006    0.00001083    0.00003615
     atom   14 type  2   force =    -0.00001378    0.00002071    0.00002437
     atom   15 type  2   force =    -0.00000631    0.00001931    0.00000229
     atom   16 type  1   force =     0.00001032   -0.00000200    0.00001065
     atom   17 type  2   force =    -0.00000654   -0.00001136    0.00002679
     atom   18 type  2   force =     0.00000175   -0.00000307   -0.00000144
     atom   19 type  1   force =    -0.00006006   -0.00001890    0.00001718
     atom   20 type  2   force =     0.00000317   -0.00001229   -0.00000475
     atom   21 type  1   force =    -0.00003378    0.00001222    0.00000136
     atom   22 type  2   force =    -0.00001680   -0.00000561    0.00001960
     atom   23 type  2   force =    -0.00001588   -0.00001429   -0.00000515
     atom   24 type  1   force =     0.00001466    0.00006458    0.00002406
     atom   25 type  2   force =     0.00000259    0.00001542    0.00001971
     atom   26 type  2   force =    -0.00000623    0.00000882    0.00000112
     atom   27 type  1   force =    -0.00005163    0.00000639    0.00003186
     atom   28 type  2   force =    -0.00000981   -0.00000231   -0.00001385
     atom   29 type  2   force =    -0.00001201    0.00000275    0.00002209
     atom   30 type  1   force =     0.00001236   -0.00003794    0.00000663
     atom   31 type  2   force =    -0.00000906    0.00000636   -0.00000037
     atom   32 type  2   force =    -0.00001345    0.00001615    0.00001284
     atom   33 type  1   force =    -0.00001571   -0.00001968    0.00002340
     atom   34 type  2   force =     0.00001199   -0.00000657    0.00000564
     atom   35 type  2   force =     0.00001168   -0.00001960   -0.00000093
     atom   36 type  3   force =     0.00000018   -0.00000059   -0.00000224

     Total force =     0.006460     Total SCF correction =     0.000198
     Energy error            =      9.1E-05 Ry
     Gradient error          =      2.3E-03 Ry/Bohr

     bfgs converged in  19 scf cycles and  18 bfgs steps
     (criteria: energy <  1.0E-04 Ry, force <  1.0E-02 Ry/Bohr)

     End of BFGS Geometry Optimization

     Final energy             =   -2205.5901140818 Ry

     File ./MoS2-V-O.bfgs deleted, as requested
Begin final coordinates

ATOMIC_POSITIONS (angstrom)
Mo            6.5648838396        1.7540305867        2.7317394779
S             8.1081547500        0.8285887552        4.3675068006
S             8.1462591686        0.8252417698        1.1585792116
Mo            8.0871609442        4.5101084660        2.7087207483
S             6.5034145587        3.6603697931        4.2854431557
S             6.5784372043        3.5529856442        1.0807333053
Mo            6.4899826071        7.2222936499        2.6655973652
S             8.0534045403        6.3268352734        4.3021406320
S             8.1341385005        6.3290740827        1.1129416571
Mo            8.1264437156        9.9311018397        2.7642938845
S             6.5008678788        8.9672501435        4.3299335693
S             6.5844417222        9.0418850821        1.1104654333
Mo            3.4116371333        1.7553143154        2.7488901251
S             4.9948425337        0.8311451140        4.3232830430
S             4.9802566162        0.8436179949        1.1476284603
Mo            4.9918079167        4.4930426533        2.6141373684
S             3.4876548657        3.6689129606        4.2998074595
S             3.3995507441        3.5496052335        1.0977083715
Mo            3.4937177645        7.2248049546        2.6814166387
S             4.9842074758        6.3161582017        1.0439635121
Mo            4.9905592606        9.9229454779        2.7176044789
S             3.4852608925        8.9760136435        4.3421658777
S             3.3917642717        9.0409463467        1.1236735267
Mo            0.2592101061        1.6914475213        2.7760003396
S             1.8610494089        0.8350366852        4.3818180051
S             1.8353307287        0.8243787913        1.1719931659
Mo            1.8991055260        4.5138657112        2.7296072234
S             0.2518466173        3.6123529960        4.2106189811
S             0.2759690978        3.5582828941        1.1868303484
Mo            0.2643095333        7.2063534312        2.7422524599
S             1.9255858201        6.3323058919        4.3178425924
S             1.8593475730        6.3273596041        1.1262701898
Mo            1.8535628966        9.9345343984        2.7779782094
S             0.2575056075        9.0168889752        4.3571312158
S             0.2680808931        9.0404889013        1.1812970627
H             9.6293542988        3.6583452938        5.5727336804
End final coordinates



     Writing all to output data dir ./MoS2-V-O.save/
 
     init_run     :      2.50s CPU      2.67s WALL (       1 calls)
     electrons    :   1843.28s CPU   2018.14s WALL (      19 calls)
     update_pot   :     25.37s CPU     26.45s WALL (      18 calls)
     forces       :     26.48s CPU     28.32s WALL (      19 calls)

     Called by init_run:
     wfcinit      :      0.41s CPU      0.44s WALL (       1 calls)
     potinit      :      1.36s CPU      1.45s WALL (       1 calls)
     hinit0       :      0.16s CPU      0.18s WALL (       1 calls)

     Called by electrons:
     c_bands      :    214.02s CPU    216.40s WALL (     174 calls)
     sum_band     :     57.56s CPU     62.62s WALL (     174 calls)
     v_of_rho     :     73.49s CPU     84.56s WALL (     182 calls)
     newd         :     30.47s CPU     34.15s WALL (     182 calls)
     mix_rho      :   1476.25s CPU   1628.04s WALL (     174 calls)

     Called by c_bands:
     init_us_2    :      3.81s CPU      3.97s WALL (     349 calls)
     init_us_2:cp :      3.81s CPU      3.97s WALL (     349 calls)
     regterg      :    201.15s CPU    203.34s WALL (     174 calls)

     Called by *egterg:
     rdiaghg      :     16.79s CPU     16.92s WALL (     949 calls)
     h_psi        :    114.74s CPU    115.69s WALL (     979 calls)
     s_psi        :     15.33s CPU     15.41s WALL (     979 calls)
     g_psi        :      0.75s CPU      0.76s WALL (     804 calls)

     Called by h_psi:
     h_psi:calbec :     16.68s CPU     16.75s WALL (     979 calls)
     vloc_psi     :     80.84s CPU     81.61s WALL (     979 calls)
     add_vuspsi   :     15.36s CPU     15.46s WALL (     979 calls)

     General routines
     calbec       :     24.09s CPU     24.19s WALL (    1229 calls)
     fft          :     50.80s CPU     58.88s WALL (   12214 calls)
     ffts         :    660.39s CPU    807.01s WALL (  357468 calls)
     fftw         :     69.93s CPU     70.50s WALL (  104066 calls)
     interpolate  :      1.32s CPU      1.52s WALL (     182 calls)
 
     Parallel routines
 
     PWSCF        :  31m41.54s CPU  34m41.09s WALL

 
   This run was terminated on:   2:14:18   4Nov2023            

=------------------------------------------------------------------------------=
   JOB DONE.
=------------------------------------------------------------------------------=
