
     Program PWSCF v.7.2 starts on  4Nov2023 at  4:32: 7 

     This program is part of the open-source Quantum ESPRESSO suite
     for quantum simulation of materials; please cite
         "P. Giannozzi et al., J. Phys.:Condens. Matter 21 395502 (2009);
         "P. Giannozzi et al., J. Phys.:Condens. Matter 29 465901 (2017);
         "P. Giannozzi et al., J. Chem. Phys. 152 154105 (2020);
          URL http://www.quantum-espresso.org", 
     in publications or presentations arising from this work. More details at
     http://www.quantum-espresso.org/quote

     Parallel version (MPI & OpenMP), running on      48 processor cores
     Number of MPI processes:                48
     Threads/MPI process:                     1

     MPI processes distributed on     1 nodes
     108149 MiB available memory on the printing compute node when the environment starts
 
     Waiting for input...
     Reading input from standard input
Warning: card &CELL ignored
Warning: card CELL_DYNAMICS = 'BFGS', ignored
Warning: card CELL_DOFREE = '2DXY' ignored
Warning: card / ignored

     Current dimensions of program PWSCF are:
     Max number of different atomic species (ntypx) = 10
     Max number of k-points (npk) =  40000
     Max angular momentum in pseudopotentials (lmaxx) =  4

     IMPORTANT: XC functional enforced from input :
     Exchange-correlation= RVV10
                           (   1   4  13   4  26   0   0)
     Any further DFT definition will be discarded
     Please, verify this is what you really want


     gamma-point specific algorithms are used
     signal trapping enabled: kill the code with -SIGUSR1 to stop cleanly the simulation 
 
     R & G space division:  proc/nbgrp/npool/nimage =      48
     Subspace diagonalization in iterative solution of the eigenvalue problem:
     one sub-group per band group will be used
     scalapack distributed-memory algorithm (size of sub-group:  2*  2 procs)

 
     Parallelization info
     --------------------
     sticks:   dense  smooth     PW     G-vecs:    dense   smooth      PW
     Min         243     194     47                49060    35090    4376
     Max         246     196     50                49086    35128    4410
     Sum       11735    9389   2349              2355467  1685513  210763
 
     Using Slab Decomposition
 


     bravais-lattice index     =            0
     lattice parameter (alat)  =      17.8707  a.u.
     unit-cell volume          =   17436.2743 (a.u.)^3
     number of atoms/cell      =           36
     number of atomic types    =            3
     number of electrons       =       307.00
     number of Kohn-Sham states=          185
     kinetic-energy cutoff     =      80.0000  Ry
     charge density cutoff     =     400.0000  Ry
     scf convergence threshold =      1.0E-06
     mixing beta               =       0.7000
     number of iterations used =            8  local-TF  mixing
     energy convergence thresh.=      1.0E-04
     force convergence thresh. =      1.0E-02
     Exchange-correlation= RVV10
                           (   1   4  13   4  26   0   0)
     nstep                     =          200


     celldm(1)=  17.870686  celldm(2)=   0.000000  celldm(3)=   0.000000
     celldm(4)=   0.000000  celldm(5)=   0.000000  celldm(6)=   0.000000

     crystal axes: (cart. coord. in units of alat)
               a(1) = (   1.000000   0.000000   0.000000 )  
               a(2) = (   0.000000   1.155671   0.000000 )  
               a(3) = (   0.000000   0.000000   2.643601 )  

     reciprocal axes: (cart. coord. in units 2 pi/alat)
               b(1) = (  1.000000  0.000000  0.000000 )  
               b(2) = (  0.000000  0.865298  0.000000 )  
               b(3) = (  0.000000  0.000000  0.378272 )  


     PseudoPot. # 1 for Mo read from file:
     ../pseudo/Mo_ONCV_PBE-1.0.oncvpsp.upf
     MD5 check sum: 1b5d28e075c9ccadda658a603575cd1f
     Pseudo is Norm-conserving, Zval = 14.0
     Generated using ONCVPSP code by D. R. Hamann
     Using radial grid of 1526 points,  6 beta functions with: 
                l(1) =   0
                l(2) =   0
                l(3) =   1
                l(4) =   1
                l(5) =   2
                l(6) =   2

     PseudoPot. # 2 for S  read from file:
     ../pseudo/s_pbe_v1.4.uspp.F.UPF
     MD5 check sum: 88d86576ff6df21479756cfb9bdac1df
     Pseudo is Ultrasoft + core correction, Zval =  6.0
     Generated by new atomic code, or converted to UPF format
     Using radial grid of  907 points,  6 beta functions with: 
                l(1) =   0
                l(2) =   0
                l(3) =   1
                l(4) =   1
                l(5) =   2
                l(6) =   2
     Q(r) pseudized with  8 coefficients,  rinner =    1.300   1.300   1.300
                                                       1.300   1.300

     PseudoPot. # 3 for H  read from file:
     ../pseudo/H_ONCV_PBE-1.0.oncvpsp.upf
     MD5 check sum: 1790becc920ee074925cf490c71280fe
     Pseudo is Norm-conserving, Zval =  1.0
     Generated using ONCVPSP code by D. R. Hamann
     Using radial grid of 1166 points,  2 beta functions with: 
                l(1) =   0
                l(2) =   0

     atomic species   valence    mass     pseudopotential
        Mo            14.00    95.94000     Mo( 1.00)
        S              6.00    32.06500     S ( 1.00)
        H              1.00     1.00794     H ( 1.00)

     No symmetry found



   Cartesian axes

     site n.     atom                  positions (alat units)
         1           Mo  tau(   1) = (   0.6952221   0.1890506   0.2985846  )
         2           S   tau(   2) = (   0.8646417   0.0856217   0.4689279  )
         3           S   tau(   3) = (   0.8663890   0.0857843   0.1351291  )
         4           Mo  tau(   4) = (   0.8560186   0.4753274   0.2873942  )
         5           S   tau(   5) = (   0.6873294   0.3936244   0.4596353  )
         6           S   tau(   6) = (   0.6929804   0.3713468   0.1185692  )
         7           Mo  tau(   7) = (   0.6862796   0.7633098   0.2825370  )
         8           S   tau(   8) = (   0.8545980   0.6708292   0.4486168  )
         9           S   tau(   9) = (   0.8545123   0.6666874   0.1146125  )
        10           Mo  tau(  10) = (   0.8629403   1.0471007   0.3006803  )
        11           S   tau(  11) = (   0.6868280   0.9456650   0.4634891  )
        12           S   tau(  12) = (   0.6998113   0.9568511   0.1205389  )
        13           Mo  tau(  13) = (   0.3618216   0.1847309   0.2935964  )
        14           S   tau(  14) = (   0.5260962   0.0863870   0.4600448  )
        15           S   tau(  15) = (   0.5348379   0.0894875   0.1297123  )
        16           Mo  tau(  16) = (   0.5265817   0.4772436   0.2784130  )
        17           S   tau(  17) = (   0.3624753   0.3882513   0.4525556  )
        18           S   tau(  18) = (   0.3635411   0.3752055   0.1119148  )
        19           Mo  tau(  19) = (   0.3652268   0.7630864   0.2781795  )
        20           S   tau(  20) = (   0.5269494   0.6690381   0.1096838  )
        21           Mo  tau(  21) = (   0.5300192   1.0470394   0.2900995  )
        22           S   tau(  22) = (   0.3670346   0.9457522   0.4574073  )
        23           S   tau(  23) = (   0.3604225   0.9585725   0.1159032  )
        24           Mo  tau(  24) = (   0.0313099   0.1847895   0.3013130  )
        25           S   tau(  25) = (   0.1956761   0.0838230   0.4650863  )
        26           S   tau(  26) = (   0.1967693   0.0903508   0.1278874  )
        27           Mo  tau(  27) = (   0.1967578   0.4753919   0.2813011  )
        28           S   tau(  28) = (   0.0287851   0.3864324   0.4586755  )
        29           S   tau(  29) = (   0.0244514   0.3729871   0.1239344  )
        30           Mo  tau(  30) = (   0.0286728   0.7631204   0.2856894  )
        31           S   tau(  31) = (   0.2011512   0.6675435   0.4465001  )
        32           S   tau(  32) = (   0.1969214   0.6672839   0.1104564  )
        33           Mo  tau(  33) = (   0.1950294   1.0511147   0.2932237  )
        34           S   tau(  34) = (   0.0312912   0.9612169   0.4667423  )
        35           S   tau(  35) = (   0.0292670   0.9563028   0.1216485  )
        36           H   tau(  36) = (   0.6666667   0.6420393   0.5656742  )

     number of k points=     1  Gaussian smearing, width (Ry)=  0.0100
                       cart. coord. in units 2pi/alat
        k(    1) = (   0.0000000   0.0000000   0.0000000), wk =   2.0000000

     Dense  grid:  1177734 G-vectors     FFT dimensions: ( 120, 135, 320)

     Smooth grid:   842757 G-vectors     FFT dimensions: ( 108, 120, 270)

     Estimated max dynamical RAM per process >     146.59 MB

     Estimated total dynamical RAM >       6.87 GB

     Initial potential from superposition of free atoms

     starting charge     306.9873, renormalised to     307.0000

     negative rho (up, down):  1.405E-04 0.000E+00


---------------------------------------------------------------------------------
Carrying out rVV10 run using the following parameters:
Nqs =      20    Nr_points =    1024   r_max =   100.000
b_value =  6.30000    beta =  0.00901
     q_mesh =  0.00010000  0.00030000  0.00058939  0.00100810
               0.00161396  0.00249058  0.00375900  0.00559430
               0.00824984  0.01209221  0.01765183  0.02569619
               0.03733578  0.05417739  0.07854596  0.11380545
               0.16482331  0.23864234  0.34545298  0.50000000

Gradients computed in Reciprocal space

---------------------------------------------------------------------------------


     Starting wfcs are  213 randomized atomic wfcs

     total cpu time spent up to now is        2.8 secs

     Self-consistent Calculation

     iteration #  1     ecut=    80.00 Ry     beta= 0.70
     Davidson diagonalization with overlap
     ethr =  1.00E-02,  avg # of iterations =  2.0

     Threshold (ethr) on eigenvalues was too large:
     Diagonalizing with lowered threshold

     Davidson diagonalization with overlap
     ethr =  3.30E-04,  avg # of iterations =  4.0

     negative rho (up, down):  2.261E-08 0.000E+00

     total cpu time spent up to now is       18.4 secs

     total energy              =   -2205.56680282 Ry
     estimated scf accuracy    <       1.31160493 Ry

     iteration #  2     ecut=    80.00 Ry     beta= 0.70
     Davidson diagonalization with overlap
     ethr =  4.27E-04,  avg # of iterations =  1.0

     total cpu time spent up to now is       20.7 secs

     total energy              =   -2205.40604889 Ry
     estimated scf accuracy    <       0.53611282 Ry

     iteration #  3     ecut=    80.00 Ry     beta= 0.70
     Davidson diagonalization with overlap
     ethr =  1.75E-04,  avg # of iterations =  2.0

     total cpu time spent up to now is       23.2 secs

     total energy              =   -2205.49275150 Ry
     estimated scf accuracy    <       0.07153546 Ry

     iteration #  4     ecut=    80.00 Ry     beta= 0.70
     Davidson diagonalization with overlap
     c_bands:  1 eigenvalues not converged
     ethr =  2.33E-05,  avg # of iterations = 20.0

     total cpu time spent up to now is       26.5 secs

     total energy              =   -2205.49582765 Ry
     estimated scf accuracy    <       0.02658861 Ry

     iteration #  5     ecut=    80.00 Ry     beta= 0.70
     Davidson diagonalization with overlap
     ethr =  8.66E-06,  avg # of iterations =  9.0

     total cpu time spent up to now is       29.0 secs

     total energy              =   -2205.49595654 Ry
     estimated scf accuracy    <       0.01680244 Ry

     iteration #  6     ecut=    80.00 Ry     beta= 0.70
     Davidson diagonalization with overlap
     ethr =  5.47E-06,  avg # of iterations =  2.0

     total cpu time spent up to now is       31.2 secs

     total energy              =   -2205.49507536 Ry
     estimated scf accuracy    <       0.01109255 Ry

     iteration #  7     ecut=    80.00 Ry     beta= 0.70
     Davidson diagonalization with overlap
     ethr =  3.61E-06,  avg # of iterations =  1.0

     negative rho (up, down):  8.216E-05 0.000E+00

     total cpu time spent up to now is       36.4 secs

     total energy              =   -2205.49304250 Ry
     estimated scf accuracy    <       0.00691983 Ry

     iteration #  8     ecut=    80.00 Ry     beta= 0.70
     Davidson diagonalization with overlap
     ethr =  2.25E-06,  avg # of iterations =  2.0

     negative rho (up, down):  1.401E-02 0.000E+00

     total cpu time spent up to now is       40.7 secs

     total energy              =   -2205.49329650 Ry
     estimated scf accuracy    <       0.00330985 Ry

     iteration #  9     ecut=    80.00 Ry     beta= 0.70
     Davidson diagonalization with overlap
     ethr =  1.08E-06,  avg # of iterations =  2.0

     negative rho (up, down):  2.385E-02 0.000E+00

     total cpu time spent up to now is       45.4 secs

     total energy              =   -2205.49309589 Ry
     estimated scf accuracy    <       0.00183926 Ry

     iteration # 10     ecut=    80.00 Ry     beta= 0.70
     Davidson diagonalization with overlap
     ethr =  5.99E-07,  avg # of iterations =  2.0

     negative rho (up, down):  2.594E-02 0.000E+00

     total cpu time spent up to now is       49.5 secs

     total energy              =   -2205.49337012 Ry
     estimated scf accuracy    <       0.00082991 Ry

     iteration # 11     ecut=    80.00 Ry     beta= 0.70
     Davidson diagonalization with overlap
     ethr =  2.70E-07,  avg # of iterations =  2.0

     negative rho (up, down):  8.470E-03 0.000E+00

     total cpu time spent up to now is       55.6 secs

     total energy              =   -2205.49339243 Ry
     estimated scf accuracy    <       0.00024740 Ry

     iteration # 12     ecut=    80.00 Ry     beta= 0.70
     Davidson diagonalization with overlap
     ethr =  8.06E-08,  avg # of iterations =  4.0

     negative rho (up, down):  2.869E-03 0.000E+00

     total cpu time spent up to now is       62.6 secs

     total energy              =   -2205.49346921 Ry
     estimated scf accuracy    <       0.00001652 Ry

     iteration # 13     ecut=    80.00 Ry     beta= 0.70
     Davidson diagonalization with overlap
     ethr =  5.38E-09,  avg # of iterations = 11.0

     negative rho (up, down):  1.163E-03 0.000E+00

     total cpu time spent up to now is       72.9 secs

     total energy              =   -2205.49347622 Ry
     estimated scf accuracy    <       0.00000432 Ry

     iteration # 14     ecut=    80.00 Ry     beta= 0.70
     Davidson diagonalization with overlap
     ethr =  1.41E-09,  avg # of iterations =  2.0

     negative rho (up, down):  2.207E-04 0.000E+00

     total cpu time spent up to now is       80.5 secs

     total energy              =   -2205.49347481 Ry
     estimated scf accuracy    <       0.00000131 Ry

     iteration # 15     ecut=    80.00 Ry     beta= 0.70
     Davidson diagonalization with overlap
     ethr =  4.27E-10,  avg # of iterations =  2.0

     negative rho (up, down):  1.370E-04 0.000E+00

     total cpu time spent up to now is       82.5 secs

     End of self-consistent calculation

          k = 0.0000 0.0000 0.0000 (105382 PWs)   bands (ev):

   -62.9388 -62.9312 -62.9187 -62.9110 -62.8963 -62.8866 -62.8701 -62.8667
   -62.8559 -62.8447 -62.8079 -62.7968 -37.2951 -37.2348 -37.2049 -37.1926
   -37.1783 -37.1581 -37.1353 -37.1334 -37.1192 -37.1152 -37.1125 -37.1023
   -37.0903 -37.0837 -37.0810 -37.0721 -37.0572 -37.0548 -37.0454 -37.0428
   -37.0345 -37.0310 -37.0211 -36.9924 -36.9784 -36.9666 -36.9631 -36.9566
   -36.9518 -36.9504 -36.9133 -36.8963 -36.8870 -36.8539 -36.8422 -36.7743
   -16.0218 -15.2356 -15.1944 -15.0241 -14.9517 -14.8569 -14.5644 -14.5464
   -14.5035 -14.4598 -14.4267 -14.3787 -14.3691 -14.3196 -14.1882 -14.1719
   -14.1557 -14.1478 -14.0734 -13.9138 -13.9018 -13.8708 -13.8486  -7.6991
    -7.5505  -7.4101  -7.3312  -7.2984  -7.2456  -7.2317  -7.1791  -6.9207
    -6.8758  -6.8464  -6.8033  -6.7190  -6.5949  -6.5554  -6.4754  -6.4418
    -6.3331  -6.3094  -6.0723  -5.9572  -5.9499  -5.9162  -5.8692  -5.8005
    -5.7806  -5.7544  -5.7116  -5.7050  -5.6651  -5.5838  -5.5661  -5.5102
    -5.4720  -5.4431  -5.2015  -5.1680  -5.0960  -5.0528  -5.0346  -4.9646
    -4.9499  -4.8694  -4.7198  -4.5686  -4.3751  -4.3544  -4.3368  -4.2700
    -4.2622  -4.0826  -4.0268  -3.9679  -3.8460  -3.8055  -3.7789  -3.7233
    -3.6794  -3.6109  -3.5670  -3.5397  -3.5271  -3.5103  -3.4721  -3.4333
    -3.4218  -3.2446  -3.1709  -2.9669  -2.9235  -2.8414  -2.8198  -2.7695
    -2.7533  -2.7073  -2.6942  -2.6793  -2.6274  -2.4286  -2.0788  -2.0366
    -2.0110  -1.2675  -0.9007  -0.7348  -0.2209  -0.1758  -0.1362  -0.0451
     0.0368   0.0817   0.1083   0.1774   0.2048   0.2354   0.2764   0.3619
     0.4217   0.4783   0.4969   0.5268   0.5481   0.6208   0.6748   0.6975
     0.7381   0.7465   0.7944   0.8219   0.8680   0.9454   1.0015   1.0274
     1.3623

     the Fermi energy is    -1.2675 ev

!    total energy              =   -2205.49347483 Ry
     estimated scf accuracy    <       0.00000035 Ry
     smearing contrib. (-TS)   =      -0.00564583 Ry
     internal energy E=F+TS    =   -2205.48782900 Ry

     The total energy is F=E-TS. E is the sum of the following terms:
     one-electron contribution =  -18042.52300963 Ry
     hartree contribution      =    9007.54874377 Ry
     xc contribution           =    -385.14001440 Ry
     ewald contribution        =    7214.62645126 Ry

     convergence has been achieved in  15 iterations

     negative rho (up, down):  1.370E-04 0.000E+00

     Forces acting on atoms (cartesian axes, Ry/au):

     atom    1 type  1   force =     0.01292290   -0.02841447    0.00253486
     atom    2 type  2   force =    -0.01436344    0.01651597    0.00057225
     atom    3 type  2   force =    -0.01105086    0.00895361   -0.00259604
     atom    4 type  1   force =    -0.00223848    0.00665463    0.00708707
     atom    5 type  2   force =     0.00225615   -0.00409383   -0.00537210
     atom    6 type  2   force =     0.00067679    0.01094712   -0.00052688
     atom    7 type  1   force =     0.00626459   -0.01576698    0.00730360
     atom    8 type  2   force =    -0.01311349   -0.01609378    0.03987132
     atom    9 type  2   force =     0.01257511    0.00583794    0.01190064
     atom   10 type  1   force =    -0.01119631    0.00928610   -0.02829471
     atom   11 type  2   force =     0.00720714    0.00119783   -0.00920623
     atom   12 type  2   force =    -0.00274155   -0.00097034    0.00633421
     atom   13 type  1   force =     0.00542185    0.00448248   -0.00643891
     atom   14 type  2   force =     0.00846960    0.00022635    0.01238922
     atom   15 type  2   force =    -0.01222448    0.00385710   -0.00883963
     atom   16 type  1   force =     0.00253712    0.01197392    0.00844927
     atom   17 type  2   force =     0.00646370    0.00020335    0.00082076
     atom   18 type  2   force =    -0.00275794   -0.00589841    0.01414163
     atom   19 type  1   force =    -0.00380705   -0.00893925   -0.01204765
     atom   20 type  2   force =     0.00180372   -0.00460261    0.00133433
     atom   21 type  1   force =    -0.00515548    0.00784511   -0.00032777
     atom   22 type  2   force =    -0.00325332   -0.00126880   -0.00416760
     atom   23 type  2   force =     0.00025420    0.00248139    0.01112522
     atom   24 type  1   force =    -0.01120727   -0.00220736   -0.02115776
     atom   25 type  2   force =     0.01612033    0.01816102    0.00723956
     atom   26 type  2   force =    -0.01100934   -0.00083144   -0.00405930
     atom   27 type  1   force =    -0.00064540    0.00059170    0.00618645
     atom   28 type  2   force =     0.00232037   -0.00276025   -0.00513645
     atom   29 type  2   force =     0.00480321   -0.00153758   -0.00344447
     atom   30 type  1   force =     0.00331283    0.01346441   -0.02024947
     atom   31 type  2   force =     0.00080073    0.00088399    0.01688657
     atom   32 type  2   force =    -0.00903866    0.00844535    0.00975671
     atom   33 type  1   force =     0.01370763   -0.00563234   -0.01065556
     atom   34 type  2   force =     0.00288833   -0.04201153   -0.00767960
     atom   35 type  2   force =    -0.00817177    0.00781903    0.01622745
     atom   36 type  3   force =     0.01116854    0.00120056   -0.02996101
     The non-local contrib.  to forces
     atom    1 type  1   force =    -0.00132057    0.03369746   -0.00646198
     atom    2 type  2   force =    -0.01156380    0.00193025   -0.27270333
     atom    3 type  2   force =    -0.01239077   -0.00075316    0.26934345
     atom    4 type  1   force =    -0.00175491    0.00849588    0.00466737
     atom    5 type  2   force =    -0.00768258   -0.01808270   -0.24872910
     atom    6 type  2   force =    -0.00195229    0.01259264    0.26290344
     atom    7 type  1   force =    -0.01520357    0.00495116   -0.02673210
     atom    8 type  2   force =    -0.11120597   -0.00463777   -0.20515357
     atom    9 type  2   force =     0.00623333   -0.00745225    0.27857431
     atom   10 type  1   force =     0.00299399    0.00572787   -0.00252009
     atom   11 type  2   force =     0.00933157    0.01220972   -0.26209647
     atom   12 type  2   force =    -0.01293418   -0.01843029    0.26422508
     atom   13 type  1   force =    -0.00130461    0.01886412   -0.00722692
     atom   14 type  2   force =     0.01129077   -0.01135488   -0.26394199
     atom   15 type  2   force =    -0.01383285   -0.00597253    0.26046010
     atom   16 type  1   force =    -0.00386490    0.01750451   -0.03569482
     atom   17 type  2   force =     0.00216833   -0.02830206   -0.25005761
     atom   18 type  2   force =    -0.00240013   -0.00215886    0.27473248
     atom   19 type  1   force =     0.01198074   -0.00030575   -0.01127688
     atom   20 type  2   force =    -0.00036344   -0.02223664    0.26390518
     atom   21 type  1   force =     0.00252757    0.02667354    0.00724867
     atom   22 type  2   force =    -0.00701023    0.00365012   -0.25933139
     atom   23 type  2   force =     0.00594450   -0.01515217    0.26839271
     atom   24 type  1   force =     0.00574642    0.01217372   -0.01089229
     atom   25 type  2   force =     0.00888731    0.00572256   -0.26063437
     atom   26 type  2   force =    -0.00231352   -0.01247971    0.26345153
     atom   27 type  1   force =    -0.00246511    0.00800745    0.00942120
     atom   28 type  2   force =    -0.00166627   -0.02300798   -0.27430127
     atom   29 type  2   force =     0.00778486    0.00254891    0.26300077
     atom   30 type  1   force =    -0.00407182    0.01384535    0.01315919
     atom   31 type  2   force =    -0.00686277    0.00127472   -0.25466264
     atom   32 type  2   force =    -0.00254269   -0.00907206    0.27416288
     atom   33 type  1   force =    -0.00662572    0.00789869    0.00631552
     atom   34 type  2   force =     0.00409699   -0.03380222   -0.27027180
     atom   35 type  2   force =    -0.00378577   -0.01336039    0.27008432
     atom   36 type  3   force =     0.00433997    0.00023383   -0.00604326
     The ionic contribution  to forces
     atom    1 type  1   force =     0.40045266    0.08328057    5.63667171
     atom    2 type  2   force =    -0.63373438    0.39122851   39.28239091
     atom    3 type  2   force =    -0.15234465    0.01104513  -36.08235766
     atom    4 type  1   force =     0.34305355    0.33636372    0.33038473
     atom    5 type  2   force =    -0.93074641    1.05443111   38.57636040
     atom    6 type  2   force =     0.34999403   -0.55048641  -38.07792500
     atom    7 type  1   force =    -2.56342534   -2.43702346    1.85509342
     atom    8 type  2   force =    -0.38482305    0.12552743   37.02401246
     atom    9 type  2   force =     0.38092469   -0.02839369  -38.08305234
     atom   10 type  1   force =    -1.01962101   -0.16091434    5.60914429
     atom   11 type  2   force =    -0.54237602   -1.29576442   39.05159721
     atom   12 type  2   force =     0.44737108    0.74085770  -37.89245676
     atom   13 type  1   force =     0.42345962    0.90402208    2.84312796
     atom   14 type  2   force =     0.03523483   -0.02259598   38.51637858
     atom   15 type  2   force =     0.14901399   -0.06962739  -36.80464225
     atom   16 type  1   force =    -0.24186355    3.67104071    0.06769282
     atom   17 type  2   force =     0.69740289    1.37948555   37.89791225
     atom   18 type  2   force =    -0.18274631   -0.67626810  -38.58474547
     atom   19 type  1   force =     2.50409640   -2.32331695    0.45306933
     atom   20 type  2   force =     0.19642103   -0.18843464  -38.56846298
     atom   21 type  1   force =    -0.02381043    0.22088834    1.09233381
     atom   22 type  2   force =     0.36972759   -1.60307743   38.40892070
     atom   23 type  2   force =    -0.10527217    0.69612454  -38.30105992
     atom   24 type  1   force =    -0.50542224    1.06649071    5.84006434
     atom   25 type  2   force =     0.65181234    0.27534945   39.27724628
     atom   26 type  2   force =    -0.29091607    0.06081366  -37.32004058
     atom   27 type  1   force =    -0.00676413    0.32121725   -2.32348607
     atom   28 type  2   force =     0.13253339    0.91538690   38.18743027
     atom   29 type  2   force =    -0.24707653   -0.45636507  -37.27948412
     atom   30 type  1   force =    -0.18141335   -0.80398753   -0.17052772
     atom   31 type  2   force =     1.18884321   -0.04251731   37.29937943
     atom   32 type  2   force =    -0.48712292   -0.00132516  -38.65720083
     atom   33 type  1   force =     0.78052737   -0.77685171    2.07018877
     atom   34 type  2   force =     0.29664079   -1.35826588   39.34606413
     atom   35 type  2   force =    -0.28521771    0.50582906  -37.82128589
     atom   36 type  3   force =    -0.56281320    0.03583304    7.30126381
     The local contribution  to forces
     atom    1 type  1   force =    -0.38624930   -0.14532666   -5.62836124
     atom    2 type  2   force =     0.63059480   -0.37653731  -39.03041495
     atom    3 type  2   force =     0.15312476   -0.00128963   35.83117965
     atom    4 type  1   force =    -0.34360294   -0.33818633   -0.32856808
     atom    5 type  2   force =     0.94071940   -1.04167234  -38.35369238
     atom    6 type  2   force =    -0.34770983    0.55007047   37.83531247
     atom    7 type  1   force =     2.58485648    2.41632593   -1.82162383
     atom    8 type  2   force =     0.47754026   -0.13760520  -36.79725847
     atom    9 type  2   force =    -0.37454919    0.04120925   37.83739691
     atom   10 type  1   force =     1.00539508    0.16441464   -5.63556358
     atom   11 type  2   force =     0.54072415    1.28559179  -38.81994020
     atom   12 type  2   force =    -0.43836512   -0.72492094   37.65539554
     atom   13 type  1   force =    -0.41667890   -0.91837024   -2.84304718
     atom   14 type  2   force =    -0.03746051    0.03409021  -38.26118348
     atom   15 type  2   force =    -0.14816246    0.07908603   36.55579428
     atom   16 type  1   force =     0.24826879   -3.67657615   -0.02416395
     atom   17 type  2   force =    -0.69303740   -1.35243371  -37.66777297
     atom   18 type  2   force =     0.18245848    0.67310105   38.34517668
     atom   19 type  1   force =    -2.51985149    2.31470304   -0.45444883
     atom   20 type  2   force =    -0.19441515    0.20520151   38.32696858
     atom   21 type  1   force =     0.01612563   -0.23979321   -1.10053270
     atom   22 type  2   force =    -0.36611111    1.59859150  -38.17478808
     atom   23 type  2   force =     0.10011611   -0.67977981   38.06464699
     atom   24 type  1   force =     0.48845513   -1.08086284   -5.85102811
     atom   25 type  2   force =    -0.64449322   -0.26249595  -39.03051700
     atom   26 type  2   force =     0.28241446   -0.04985849   37.07330348
     atom   27 type  1   force =     0.00864332   -0.32857938    2.31959521
     atom   28 type  2   force =    -0.12873776   -0.89680828  -37.93965959
     atom   29 type  2   force =     0.24471383    0.45292566   37.03352752
     atom   30 type  1   force =     0.18881065    0.80362822    0.13650576
     atom   31 type  2   force =    -1.18157514    0.04207615  -37.04886071
     atom   32 type  2   force =     0.48082129    0.01825276   38.41377402
     atom   33 type  1   force =    -0.76016536    0.76324717   -2.08783077
     atom   34 type  2   force =    -0.29802617    1.34905294  -39.10487769
     atom   35 type  2   force =     0.28082853   -0.48573835   37.58840956
     atom   36 type  3   force =     0.56963963   -0.03486812   -7.32524359
     The core correction contribution to forces
     atom    1 type  1   force =     0.00000000    0.00000000    0.00000000
     atom    2 type  2   force =     0.00032376   -0.00013425    0.02087477
     atom    3 type  2   force =     0.00054907   -0.00006838   -0.02083505
     atom    4 type  1   force =     0.00000000    0.00000000    0.00000000
     atom    5 type  2   force =    -0.00004622    0.00127294    0.02027756
     atom    6 type  2   force =     0.00031604   -0.00120423   -0.02087527
     atom    7 type  1   force =     0.00000000    0.00000000    0.00000000
     atom    8 type  2   force =     0.00533942    0.00060845    0.01790597
     atom    9 type  2   force =    -0.00004502    0.00045209   -0.02109281
     atom   10 type  1   force =     0.00000000    0.00000000    0.00000000
     atom   11 type  2   force =    -0.00047721   -0.00085548    0.02082815
     atom   12 type  2   force =     0.00117291    0.00152388   -0.02088633
     atom   13 type  1   force =     0.00000000    0.00000000    0.00000000
     atom   14 type  2   force =    -0.00058845    0.00006964    0.02070805
     atom   15 type  2   force =     0.00074759    0.00036802   -0.02053044
     atom   16 type  1   force =     0.00000000    0.00000000    0.00000000
     atom   17 type  2   force =    -0.00002638    0.00148303    0.02030675
     atom   18 type  2   force =    -0.00004024   -0.00054919   -0.02109172
     atom   19 type  1   force =     0.00000000    0.00000000    0.00000000
     atom   20 type  2   force =     0.00012751    0.00084625   -0.02115937
     atom   21 type  1   force =     0.00000000    0.00000000    0.00000000
     atom   22 type  2   force =     0.00016330   -0.00046246    0.02059523
     atom   23 type  2   force =    -0.00053172    0.00126223   -0.02090784
     atom   24 type  1   force =     0.00000000    0.00000000    0.00000000
     atom   25 type  2   force =    -0.00007697   -0.00044726    0.02071390
     atom   26 type  2   force =    -0.00017421    0.00067090   -0.02085206
     atom   27 type  1   force =     0.00000000    0.00000000    0.00000000
     atom   28 type  2   force =     0.00016220    0.00169314    0.02096170
     atom   29 type  2   force =    -0.00062311   -0.00062559   -0.02055949
     atom   30 type  1   force =     0.00000000    0.00000000    0.00000000
     atom   31 type  2   force =     0.00043186    0.00006048    0.02059903
     atom   32 type  2   force =    -0.00015191    0.00058825   -0.02104174
     atom   33 type  1   force =     0.00000000    0.00000000    0.00000000
     atom   34 type  2   force =     0.00016103    0.00099813    0.02097549
     atom   35 type  2   force =     0.00001620    0.00109277   -0.02103173
     atom   36 type  3   force =     0.00000000    0.00000000    0.00000000
     The Hubbard contrib.    to forces
     atom    1 type  1   force =     0.00000000    0.00000000    0.00000000
     atom    2 type  2   force =     0.00000000    0.00000000    0.00000000
     atom    3 type  2   force =     0.00000000    0.00000000    0.00000000
     atom    4 type  1   force =     0.00000000    0.00000000    0.00000000
     atom    5 type  2   force =     0.00000000    0.00000000    0.00000000
     atom    6 type  2   force =     0.00000000    0.00000000    0.00000000
     atom    7 type  1   force =     0.00000000    0.00000000    0.00000000
     atom    8 type  2   force =     0.00000000    0.00000000    0.00000000
     atom    9 type  2   force =     0.00000000    0.00000000    0.00000000
     atom   10 type  1   force =     0.00000000    0.00000000    0.00000000
     atom   11 type  2   force =     0.00000000    0.00000000    0.00000000
     atom   12 type  2   force =     0.00000000    0.00000000    0.00000000
     atom   13 type  1   force =     0.00000000    0.00000000    0.00000000
     atom   14 type  2   force =     0.00000000    0.00000000    0.00000000
     atom   15 type  2   force =     0.00000000    0.00000000    0.00000000
     atom   16 type  1   force =     0.00000000    0.00000000    0.00000000
     atom   17 type  2   force =     0.00000000    0.00000000    0.00000000
     atom   18 type  2   force =     0.00000000    0.00000000    0.00000000
     atom   19 type  1   force =     0.00000000    0.00000000    0.00000000
     atom   20 type  2   force =     0.00000000    0.00000000    0.00000000
     atom   21 type  1   force =     0.00000000    0.00000000    0.00000000
     atom   22 type  2   force =     0.00000000    0.00000000    0.00000000
     atom   23 type  2   force =     0.00000000    0.00000000    0.00000000
     atom   24 type  1   force =     0.00000000    0.00000000    0.00000000
     atom   25 type  2   force =     0.00000000    0.00000000    0.00000000
     atom   26 type  2   force =     0.00000000    0.00000000    0.00000000
     atom   27 type  1   force =     0.00000000    0.00000000    0.00000000
     atom   28 type  2   force =     0.00000000    0.00000000    0.00000000
     atom   29 type  2   force =     0.00000000    0.00000000    0.00000000
     atom   30 type  1   force =     0.00000000    0.00000000    0.00000000
     atom   31 type  2   force =     0.00000000    0.00000000    0.00000000
     atom   32 type  2   force =     0.00000000    0.00000000    0.00000000
     atom   33 type  1   force =     0.00000000    0.00000000    0.00000000
     atom   34 type  2   force =     0.00000000    0.00000000    0.00000000
     atom   35 type  2   force =     0.00000000    0.00000000    0.00000000
     atom   36 type  3   force =     0.00000000    0.00000000    0.00000000
     The SCF correction term to forces
     atom    1 type  1   force =     0.00004001   -0.00006921    0.00067121
     atom    2 type  2   force =     0.00001608    0.00002541    0.00040969
     atom    3 type  2   force =     0.00001063    0.00001628    0.00005841
     atom    4 type  1   force =     0.00006573   -0.00002201    0.00058790
     atom    5 type  2   force =     0.00001188   -0.00004622    0.00039626
     atom    6 type  2   force =     0.00002875   -0.00002871    0.00004233
     atom    7 type  1   force =     0.00003693   -0.00002398    0.00055096
     atom    8 type  2   force =     0.00003576    0.00000994    0.00034976
     atom    9 type  2   force =     0.00001121    0.00001917    0.00005941
     atom   10 type  1   force =     0.00003555    0.00005457    0.00062952
     atom   11 type  2   force =     0.00000456    0.00001285    0.00038993
     atom   12 type  2   force =     0.00001367   -0.00000406    0.00004152
     atom   13 type  1   force =    -0.00005435   -0.00003685    0.00069207
     atom   14 type  2   force =    -0.00000714    0.00001399    0.00041290
     atom   15 type  2   force =     0.00000917   -0.00000039    0.00006352
     atom   16 type  1   force =    -0.00000330    0.00000149    0.00060007
     atom   17 type  2   force =    -0.00004383   -0.00003283    0.00041718
     atom   18 type  2   force =    -0.00002982   -0.00002667    0.00005450
     atom   19 type  1   force =    -0.00003279   -0.00002296    0.00059358
     atom   20 type  2   force =     0.00003369    0.00001755    0.00006776
     atom   21 type  1   force =     0.00000165    0.00007307    0.00060730
     atom   22 type  2   force =    -0.00002295    0.00002610    0.00042078
     atom   23 type  2   force =    -0.00000261    0.00002323    0.00003812
     atom   24 type  1   force =     0.00001333   -0.00001232    0.00068314
     atom   25 type  2   force =    -0.00000923    0.00002884    0.00041560
     atom   26 type  2   force =    -0.00002009    0.00001884    0.00006317
     atom   27 type  1   force =    -0.00005957   -0.00005699    0.00064096
     atom   28 type  2   force =     0.00002872   -0.00002739    0.00041728
     atom   29 type  2   force =     0.00000408   -0.00002486    0.00005569
     atom   30 type  1   force =    -0.00001274   -0.00002501    0.00059815
     atom   31 type  2   force =    -0.00003652   -0.00001342    0.00041628
     atom   32 type  2   force =    -0.00004253   -0.00000179    0.00004722
     atom   33 type  1   force =    -0.00002875    0.00007015    0.00065576
     atom   34 type  2   force =     0.00001561    0.00000213    0.00041511
     atom   35 type  2   force =    -0.00001310   -0.00000743    0.00003603
     atom   36 type  3   force =     0.00000205   -0.00000155    0.00004687

     Total force =     0.116640     Total SCF correction =     0.002576

     BFGS Geometry Optimization
     Energy error            =      0.0E+00 Ry
     Gradient error          =      4.2E-02 Ry/Bohr

     number of scf cycles    =   1
     number of bfgs steps    =   0

     energy             new  =   -2205.4934748331 Ry

     new trust radius        =       0.0449521476 bohr
     new conv_thr            =       0.0000010000 Ry


ATOMIC_POSITIONS (angstrom)
Mo            6.5813869109        1.7727699387        2.8249844209
S             8.1691085344        0.8184439020        4.4348411744
S             8.1873852210        0.8159797891        1.2765096613
Mo            8.0939780130        4.4985784248        2.7215687069
S             6.5011031616        3.7202451257        4.3438178553
S             6.5537079401        3.5175305216        1.1210014149
Mo            6.4932967722        7.2100937572        2.6757493848
S             8.0747883659        6.3353545292        4.2635605560
S             8.0875721111        6.3077916220        1.0901605486
Mo            8.1546942165        9.9070944076        2.8284888467
S             6.4989814516        8.9435606812        4.3782338075
S             6.6164964340        9.0481977313        1.1432592239
Mo            3.4245287835        1.7493278764        2.7730638374
S             4.9796474090        0.8170609870        4.3570891882
S             5.0513648387        0.8483031970        1.2219807285
Mo            4.9810992696        4.5195143295        2.6373557124
S             3.4312621045        3.6717072926        4.2801439091
S             3.4364611437        3.5451073956        1.0658351116
Mo            3.4518471358        7.2115940900        2.6243015196
S             4.9841886830        6.3244966887        1.0379598269
Mo            5.0095357567        9.9057515059        2.7432275127
S             3.4692365351        8.9430798502        4.3233859139
S             3.4085636819        9.0663030790        1.1019555137
Mo            0.2901598555        1.7463414443        2.8382485020
S             1.8589927214        0.8023044025        4.4020404508
S             1.8549741412        0.8539859412        1.2072527655
Mo            1.8603497781        4.4959798776        2.6634711105
S             0.2734417348        3.6529381667        4.3348660092
S             0.2337729580        3.5264355742        1.1701951491
Mo            0.2729052251        7.2237711510        2.6909808702
S             1.9026619749        6.3132666212        4.2313801069
S             1.8574551610        6.3148128997        1.0497223126
Mo            1.8516004256        9.9371586477        2.7673075711
S             0.2974413402        9.0677662816        4.4098055956
S             0.2724470879        9.0476633693        1.1589879750
H             6.3104168015        6.0722464221        5.3335900259



     Writing config-only to output data dir ./MoS2-V-O.save/
     NEW-OLD atomic charge density approx. for the potential

     negative rho (up, down):  1.429E-04 0.000E+00

     total cpu time spent up to now is       85.8 secs

     Self-consistent Calculation

     iteration #  1     ecut=    80.00 Ry     beta= 0.70
     Davidson diagonalization with overlap
     c_bands:  1 eigenvalues not converged
     ethr =  1.00E-06,  avg # of iterations = 20.0

     negative rho (up, down):  9.898E-05 0.000E+00

     total cpu time spent up to now is      104.1 secs

     total energy              =   -2205.50474336 Ry
     estimated scf accuracy    <       0.00104265 Ry

     iteration #  2     ecut=    80.00 Ry     beta= 0.70
     Davidson diagonalization with overlap
     ethr =  3.40E-07,  avg # of iterations =  3.0

     negative rho (up, down):  9.199E-05 0.000E+00

     total cpu time spent up to now is      118.0 secs

     total energy              =   -2205.50479487 Ry
     estimated scf accuracy    <       0.00018728 Ry

     iteration #  3     ecut=    80.00 Ry     beta= 0.70
     Davidson diagonalization with overlap
     ethr =  6.10E-08,  avg # of iterations =  5.0

     negative rho (up, down):  8.693E-05 0.000E+00

     total cpu time spent up to now is      133.7 secs

     total energy              =   -2205.50481784 Ry
     estimated scf accuracy    <       0.00003925 Ry

     iteration #  4     ecut=    80.00 Ry     beta= 0.70
     Davidson diagonalization with overlap
     ethr =  1.28E-08,  avg # of iterations =  5.0

     negative rho (up, down):  8.671E-05 0.000E+00

     total cpu time spent up to now is      153.8 secs

     total energy              =   -2205.50482636 Ry
     estimated scf accuracy    <       0.00000314 Ry

     iteration #  5     ecut=    80.00 Ry     beta= 0.70
     Davidson diagonalization with overlap
     ethr =  1.02E-09,  avg # of iterations =  5.0

     negative rho (up, down):  8.920E-05 0.000E+00

     total cpu time spent up to now is      166.7 secs

     total energy              =   -2205.50482738 Ry
     estimated scf accuracy    <       0.00000117 Ry

     iteration #  6     ecut=    80.00 Ry     beta= 0.70
     Davidson diagonalization with overlap
     ethr =  3.80E-10,  avg # of iterations =  5.0

     negative rho (up, down):  1.374E-04 0.000E+00

     total cpu time spent up to now is      168.8 secs

     End of self-consistent calculation

          k = 0.0000 0.0000 0.0000 (105382 PWs)   bands (ev):

   -62.9361 -62.9280 -62.9170 -62.9061 -62.8918 -62.8848 -62.8649 -62.8616
   -62.8526 -62.8402 -62.7996 -62.7886 -37.2897 -37.2300 -37.2005 -37.1861
   -37.1698 -37.1548 -37.1328 -37.1302 -37.1165 -37.1102 -37.1046 -37.1002
   -37.0878 -37.0804 -37.0768 -37.0680 -37.0521 -37.0482 -37.0411 -37.0405
   -37.0316 -37.0257 -37.0176 -36.9869 -36.9709 -36.9623 -36.9588 -36.9508
   -36.9482 -36.9445 -36.9064 -36.8918 -36.8832 -36.8511 -36.8377 -36.7687
   -16.0176 -15.2320 -15.1901 -15.0212 -14.9395 -14.8581 -14.5615 -14.5368
   -14.4883 -14.4600 -14.4287 -14.3755 -14.3682 -14.3204 -14.1818 -14.1726
   -14.1509 -14.1453 -14.0699 -13.9056 -13.8993 -13.8788 -13.8406  -7.6930
    -7.5491  -7.4147  -7.3268  -7.2853  -7.2510  -7.2292  -7.1873  -6.9218
    -6.8725  -6.8422  -6.7998  -6.7125  -6.5922  -6.5540  -6.4681  -6.4302
    -6.3383  -6.3054  -6.0670  -5.9561  -5.9372  -5.9128  -5.8602  -5.8008
    -5.7799  -5.7482  -5.7118  -5.7037  -5.6718  -5.5850  -5.5640  -5.5036
    -5.4551  -5.4233  -5.1851  -5.1624  -5.0846  -5.0518  -5.0274  -4.9675
    -4.9543  -4.8776  -4.7211  -4.5656  -4.3669  -4.3505  -4.3338  -4.2694
    -4.2687  -4.0922  -4.0212  -3.9720  -3.8392  -3.7932  -3.7742  -3.7167
    -3.6903  -3.5981  -3.5603  -3.5526  -3.5315  -3.5070  -3.4620  -3.4280
    -3.4169  -3.2475  -3.1700  -2.9484  -2.9226  -2.8359  -2.8178  -2.7583
    -2.7495  -2.7080  -2.7022  -2.6810  -2.6244  -2.4307  -2.0788  -2.0420
    -2.0217  -1.2752  -0.8802  -0.7310  -0.2085  -0.1763  -0.1356  -0.0331
     0.0565   0.0819   0.1117   0.1856   0.2205   0.2561   0.2835   0.3663
     0.4330   0.4934   0.4986   0.5330   0.5610   0.6178   0.6850   0.6909
     0.7303   0.7447   0.8005   0.8387   0.8676   0.9573   0.9924   1.0415
     1.3526

     the Fermi energy is    -1.2752 ev

!    total energy              =   -2205.50482728 Ry
     estimated scf accuracy    <       0.00000024 Ry
     smearing contrib. (-TS)   =      -0.00564313 Ry
     internal energy E=F+TS    =   -2205.49918415 Ry

     The total energy is F=E-TS. E is the sum of the following terms:
     one-electron contribution =  -18043.86138318 Ry
     hartree contribution      =    9008.25358911 Ry
     xc contribution           =    -385.14152870 Ry
     ewald contribution        =    7215.25013863 Ry

     convergence has been achieved in   6 iterations

     negative rho (up, down):  1.374E-04 0.000E+00

     Forces acting on atoms (cartesian axes, Ry/au):

     atom    1 type  1   force =     0.00329214   -0.01339753   -0.00115182
     atom    2 type  2   force =    -0.00885290    0.01005519   -0.00163817
     atom    3 type  2   force =    -0.01001061    0.00712774   -0.00925107
     atom    4 type  1   force =     0.00185734    0.00401385    0.00579982
     atom    5 type  2   force =     0.00210867   -0.00664890   -0.00460602
     atom    6 type  2   force =     0.00034347    0.00775909    0.00280077
     atom    7 type  1   force =     0.00402827   -0.01127822    0.00880551
     atom    8 type  2   force =    -0.01066274   -0.01234656    0.03323970
     atom    9 type  2   force =     0.01020222    0.00483224    0.00905866
     atom   10 type  1   force =    -0.00344541    0.00702838   -0.01008460
     atom   11 type  2   force =     0.00629471    0.00153710   -0.01015512
     atom   12 type  2   force =    -0.00514079   -0.00272006    0.00349026
     atom   13 type  1   force =     0.00443733    0.00282586   -0.00227939
     atom   14 type  2   force =     0.00614962    0.00001430    0.00870709
     atom   15 type  2   force =    -0.00894056    0.00286124   -0.00767053
     atom   16 type  1   force =     0.00185529    0.00784759    0.00575099
     atom   17 type  2   force =     0.00558754    0.00048509    0.00156247
     atom   18 type  2   force =    -0.00132864   -0.00291854    0.01210455
     atom   19 type  1   force =    -0.00303232   -0.00639971   -0.00369137
     atom   20 type  2   force =     0.00296763   -0.00393944   -0.00054930
     atom   21 type  1   force =    -0.00348100    0.00461358    0.00218929
     atom   22 type  2   force =    -0.00205682   -0.00194214   -0.00511608
     atom   23 type  2   force =     0.00158314    0.00170326    0.00526600
     atom   24 type  1   force =    -0.00642843   -0.00179752   -0.00892692
     atom   25 type  2   force =     0.01090411    0.01372357   -0.00005887
     atom   26 type  2   force =    -0.00722453   -0.00096094   -0.00471639
     atom   27 type  1   force =    -0.00065828    0.00106756    0.00633413
     atom   28 type  2   force =     0.00135248   -0.00356117   -0.00554664
     atom   29 type  2   force =     0.00267873    0.00117812   -0.00325669
     atom   30 type  1   force =    -0.00047516    0.00224156   -0.00302554
     atom   31 type  2   force =    -0.00025146    0.00144911    0.01016162
     atom   32 type  2   force =    -0.00785192    0.00616590    0.00502495
     atom   33 type  1   force =     0.00604279   -0.00154840    0.00028949
     atom   34 type  2   force =     0.00027534   -0.03079745   -0.01391213
     atom   35 type  2   force =    -0.00585540    0.00985666    0.00700679
     atom   36 type  3   force =     0.01373615    0.00186958   -0.03195543
     The non-local contrib.  to forces
     atom    1 type  1   force =     0.00030147    0.02925213   -0.00677542
     atom    2 type  2   force =    -0.00775506   -0.00253046   -0.27221642
     atom    3 type  2   force =    -0.01051999   -0.00317610    0.26385805
     atom    4 type  1   force =    -0.00204759    0.01069529    0.00356196
     atom    5 type  2   force =    -0.00851682   -0.02156190   -0.24932321
     atom    6 type  2   force =    -0.00214329    0.00877908    0.26627881
     atom    7 type  1   force =    -0.01540243    0.00482158   -0.02894672
     atom    8 type  2   force =    -0.11911203   -0.00483989   -0.20664828
     atom    9 type  2   force =     0.00521611   -0.00756884    0.27658595
     atom   10 type  1   force =     0.00139418    0.00634225   -0.00339179
     atom   11 type  2   force =     0.00691052    0.01119516   -0.26269230
     atom   12 type  2   force =    -0.01392109   -0.01957912    0.26382989
     atom   13 type  1   force =    -0.00030108    0.02013002   -0.00708681
     atom   14 type  2   force =     0.00944632   -0.01107531   -0.26559158
     atom   15 type  2   force =    -0.01115237   -0.00698878    0.26056827
     atom   16 type  1   force =    -0.00460954    0.01953537   -0.03654059
     atom   17 type  2   force =     0.00171758   -0.02695331   -0.25032721
     atom   18 type  2   force =    -0.00114170   -0.00009141    0.27409267
     atom   19 type  1   force =     0.01244948    0.00106396   -0.01198448
     atom   20 type  2   force =    -0.00038177   -0.02058879    0.26253730
     atom   21 type  1   force =     0.00140785    0.02729457    0.00597091
     atom   22 type  2   force =    -0.00529968    0.00263311   -0.26032975
     atom   23 type  2   force =     0.00672659   -0.01625079    0.26518811
     atom   24 type  1   force =     0.00382222    0.01254521   -0.01028187
     atom   25 type  2   force =     0.00508585    0.00197816   -0.26547341
     atom   26 type  2   force =     0.00036129   -0.01200632    0.26355179
     atom   27 type  1   force =    -0.00223376    0.00784128    0.00829462
     atom   28 type  2   force =    -0.00242299   -0.02210271   -0.27501715
     atom   29 type  2   force =     0.00581300    0.00295016    0.26441993
     atom   30 type  1   force =    -0.00299826    0.01494410    0.01274448
     atom   31 type  2   force =    -0.00733545    0.00095318   -0.25887847
     atom   32 type  2   force =    -0.00157559   -0.00997555    0.27144286
     atom   33 type  1   force =    -0.00447903    0.00649062    0.00420676
     atom   34 type  2   force =     0.00215846   -0.02452758   -0.27468323
     atom   35 type  2   force =    -0.00230571   -0.01203868    0.26487442
     atom   36 type  3   force =     0.00496003    0.00035292   -0.00643786
     The ionic contribution  to forces
     atom    1 type  1   force =     0.14649460    0.45764015    5.64350031
     atom    2 type  2   force =    -0.43736439    0.26229793   39.36581951
     atom    3 type  2   force =    -0.12820675    0.04308143  -36.21655531
     atom    4 type  1   force =     0.42668940    0.26175408    0.48800441
     atom    5 type  2   force =    -0.95164357    0.96340753   38.50774579
     atom    6 type  2   force =     0.31601676   -0.59014481  -37.99667859
     atom    7 type  1   force =    -2.60874455   -2.22756367    2.08952409
     atom    8 type  2   force =    -0.23817072    0.21907978   37.22371260
     atom    9 type  2   force =     0.33858796   -0.07146673  -38.04480213
     atom   10 type  1   force =    -0.77142430   -0.24223756    5.24585279
     atom   11 type  2   force =    -0.51395863   -1.28188884   38.98248265
     atom   12 type  2   force =     0.35389162    0.63142147  -37.85265832
     atom   13 type  1   force =     0.35949230    0.87922983    2.77381079
     atom   14 type  2   force =    -0.04281519    0.00022241   38.60490066
     atom   15 type  2   force =     0.15423788   -0.01871781  -36.87218815
     atom   16 type  1   force =    -0.25117093    3.46247530    0.27718105
     atom   17 type  2   force =     0.67695032    1.33966885   37.90139765
     atom   18 type  2   force =    -0.15284009   -0.62718968  -38.50032054
     atom   19 type  1   force =     2.57198244   -2.24612749    0.22630640
     atom   20 type  2   force =     0.22210732   -0.16916171  -38.60613919
     atom   21 type  1   force =    -0.02370080    0.07540781    1.19740923
     atom   22 type  2   force =     0.37927012   -1.62271780   38.40426260
     atom   23 type  2   force =    -0.04809218    0.66717452  -38.28522493
     atom   24 type  1   force =    -0.26711984    0.96903943    5.53262940
     atom   25 type  2   force =     0.52524641    0.21770362   39.23572080
     atom   26 type  2   force =    -0.24988939    0.07380489  -37.29171745
     atom   27 type  1   force =    -0.04805847    0.31145166   -2.10281442
     atom   28 type  2   force =     0.15469470    0.84497801   38.14383142
     atom   29 type  2   force =    -0.25694284   -0.37729910  -37.28147492
     atom   30 type  1   force =    -0.29202281   -0.98730309   -0.44728836
     atom   31 type  2   force =     1.14567120   -0.01625232   37.37470649
     atom   32 type  2   force =    -0.46554350   -0.09511007  -38.65136602
     atom   33 type  1   force =     0.58028209   -0.52308118    2.14020087
     atom   34 type  2   force =     0.23677960   -1.17382757   39.25155628
     atom   35 type  2   force =    -0.25336352    0.55324268  -37.77484495
     atom   36 type  3   force =    -0.58732224    0.03700805    7.31351753
     The local contribution  to forces
     atom    1 type  1   force =    -0.14344633   -0.50074843   -5.63814648
     atom    2 type  2   force =     0.43595762   -0.24974934  -39.11637351
     atom    3 type  2   force =     0.12818494   -0.03295145   35.96413975
     atom    4 type  1   force =    -0.42286810   -0.26848733   -0.48614432
     atom    5 type  2   force =     0.96225407   -0.94993321  -38.28354508
     atom    6 type  2   force =    -0.31388085    0.59014771   37.75403815
     atom    7 type  1   force =     2.62816515    2.21167046   -2.05226900
     atom    8 type  2   force =     0.34070827   -0.22719959  -37.00181915
     atom    9 type  2   force =    -0.33355183    0.08353282   37.79822298
     atom   10 type  1   force =     0.76657539    0.24301117   -5.25300055
     atom   11 type  2   force =     0.51372380    1.27318185  -38.75101873
     atom   12 type  2   force =    -0.34622249   -0.61590686   37.61307975
     atom   13 type  1   force =    -0.35467309   -0.89680568   -2.76930126
     atom   14 type  2   force =     0.04009260    0.01071493  -38.35159662
     atom   15 type  2   force =    -0.15266085    0.02802233   36.62442524
     atom   16 type  1   force =     0.25761318   -3.47419148   -0.23526257
     atom   17 type  2   force =    -0.67304419   -1.31370816  -37.67002655
     atom   18 type  2   force =     0.15279209    0.62490506   38.25936380
     atom   19 type  1   force =    -2.58757731    2.23889413   -0.21844542
     atom   20 type  2   force =    -0.21893858    0.18502806   38.36407356
     atom   21 type  1   force =     0.01877786   -0.09790270   -1.20164901
     atom   22 type  2   force =    -0.37620071    1.61875662  -38.16992159
     atom   23 type  2   force =     0.04346305   -0.65041835   38.04605755
     atom   24 type  1   force =     0.25681485   -0.98371320   -5.53157326
     atom   25 type  2   force =    -0.51943432   -0.20573340  -38.99124820
     atom   26 type  2   force =     0.24258547   -0.06353093   37.04419877
     atom   27 type  1   force =     0.04971262   -0.31823731    2.10052447
     atom   28 type  2   force =    -0.15109059   -0.82809583  -37.89549653
     atom   29 type  2   force =     0.25435056    0.37603891   37.03427510
     atom   30 type  1   force =     0.29466609    0.97501060    0.43108911
     atom   31 type  2   force =    -1.13900893    0.01671058  -37.12656545
     atom   32 type  2   force =     0.45945733    0.11082665   38.40583585
     atom   33 type  1   force =    -0.56972067    0.51498621   -2.14449866
     atom   34 type  2   force =    -0.23880770    1.16692990  -39.01208445
     atom   35 type  2   force =     0.24983128   -0.53237733   37.53781917
     atom   36 type  3   force =     0.59610341   -0.03549023   -7.33908575
     The core correction contribution to forces
     atom    1 type  1   force =     0.00000000    0.00000000    0.00000000
     atom    2 type  2   force =     0.00026756   -0.00003400    0.02090636
     atom    3 type  2   force =     0.00046938    0.00006274   -0.02073060
     atom    4 type  1   force =     0.00000000    0.00000000    0.00000000
     atom    5 type  2   force =    -0.00002173    0.00133799    0.02025149
     atom    6 type  2   force =     0.00030198   -0.00105760   -0.02093469
     atom    7 type  1   force =     0.00000000    0.00000000    0.00000000
     atom    8 type  2   force =     0.00595129    0.00067321    0.01778998
     atom    9 type  2   force =    -0.00001741    0.00041161   -0.02108394
     atom   10 type  1   force =     0.00000000    0.00000000    0.00000000
     atom   11 type  2   force =    -0.00032190   -0.00077111    0.02081844
     atom   12 type  2   force =     0.00112807    0.00148591   -0.02086766
     atom   13 type  1   force =     0.00000000    0.00000000    0.00000000
     atom   14 type  2   force =    -0.00055879    0.00008705    0.02078125
     atom   15 type  2   force =     0.00064456    0.00044683   -0.02054946
     atom   16 type  1   force =     0.00000000    0.00000000    0.00000000
     atom   17 type  2   force =    -0.00001166    0.00138923    0.02031171
     atom   18 type  2   force =    -0.00007558   -0.00059516   -0.02108583
     atom   19 type  1   force =     0.00000000    0.00000000    0.00000000
     atom   20 type  2   force =     0.00016410    0.00079302   -0.02113078
     atom   21 type  1   force =     0.00000000    0.00000000    0.00000000
     atom   22 type  2   force =     0.00009037   -0.00047075    0.02063864
     atom   23 type  2   force =    -0.00051519    0.00128880   -0.02083278
     atom   24 type  1   force =     0.00000000    0.00000000    0.00000000
     atom   25 type  2   force =     0.00003688   -0.00030231    0.02082808
     atom   26 type  2   force =    -0.00026656    0.00064783   -0.02083954
     atom   27 type  1   force =     0.00000000    0.00000000    0.00000000
     atom   28 type  2   force =     0.00020536    0.00158035    0.02099060
     atom   29 type  2   force =    -0.00054136   -0.00057395   -0.02061074
     atom   30 type  1   force =     0.00000000    0.00000000    0.00000000
     atom   31 type  2   force =     0.00040780    0.00012701    0.02071000
     atom   32 type  2   force =    -0.00019843    0.00053903   -0.02098077
     atom   33 type  1   force =     0.00000000    0.00000000    0.00000000
     atom   34 type  2   force =     0.00018350    0.00067007    0.02109982
     atom   35 type  2   force =    -0.00002943    0.00108466   -0.02088579
     atom   36 type  3   force =     0.00000000    0.00000000    0.00000000
     The Hubbard contrib.    to forces
     atom    1 type  1   force =     0.00000000    0.00000000    0.00000000
     atom    2 type  2   force =     0.00000000    0.00000000    0.00000000
     atom    3 type  2   force =     0.00000000    0.00000000    0.00000000
     atom    4 type  1   force =     0.00000000    0.00000000    0.00000000
     atom    5 type  2   force =     0.00000000    0.00000000    0.00000000
     atom    6 type  2   force =     0.00000000    0.00000000    0.00000000
     atom    7 type  1   force =     0.00000000    0.00000000    0.00000000
     atom    8 type  2   force =     0.00000000    0.00000000    0.00000000
     atom    9 type  2   force =     0.00000000    0.00000000    0.00000000
     atom   10 type  1   force =     0.00000000    0.00000000    0.00000000
     atom   11 type  2   force =     0.00000000    0.00000000    0.00000000
     atom   12 type  2   force =     0.00000000    0.00000000    0.00000000
     atom   13 type  1   force =     0.00000000    0.00000000    0.00000000
     atom   14 type  2   force =     0.00000000    0.00000000    0.00000000
     atom   15 type  2   force =     0.00000000    0.00000000    0.00000000
     atom   16 type  1   force =     0.00000000    0.00000000    0.00000000
     atom   17 type  2   force =     0.00000000    0.00000000    0.00000000
     atom   18 type  2   force =     0.00000000    0.00000000    0.00000000
     atom   19 type  1   force =     0.00000000    0.00000000    0.00000000
     atom   20 type  2   force =     0.00000000    0.00000000    0.00000000
     atom   21 type  1   force =     0.00000000    0.00000000    0.00000000
     atom   22 type  2   force =     0.00000000    0.00000000    0.00000000
     atom   23 type  2   force =     0.00000000    0.00000000    0.00000000
     atom   24 type  1   force =     0.00000000    0.00000000    0.00000000
     atom   25 type  2   force =     0.00000000    0.00000000    0.00000000
     atom   26 type  2   force =     0.00000000    0.00000000    0.00000000
     atom   27 type  1   force =     0.00000000    0.00000000    0.00000000
     atom   28 type  2   force =     0.00000000    0.00000000    0.00000000
     atom   29 type  2   force =     0.00000000    0.00000000    0.00000000
     atom   30 type  1   force =     0.00000000    0.00000000    0.00000000
     atom   31 type  2   force =     0.00000000    0.00000000    0.00000000
     atom   32 type  2   force =     0.00000000    0.00000000    0.00000000
     atom   33 type  1   force =     0.00000000    0.00000000    0.00000000
     atom   34 type  2   force =     0.00000000    0.00000000    0.00000000
     atom   35 type  2   force =     0.00000000    0.00000000    0.00000000
     atom   36 type  3   force =     0.00000000    0.00000000    0.00000000
     The SCF correction term to forces
     atom    1 type  1   force =    -0.00005537    0.00045717    0.00025887
     atom    2 type  2   force =     0.00004361    0.00006962    0.00021499
     atom    3 type  2   force =     0.00006404    0.00010968    0.00002613
     atom    4 type  1   force =     0.00008587    0.00005037    0.00036686
     atom    5 type  2   force =     0.00003896    0.00009926    0.00025408
     atom    6 type  2   force =     0.00005110    0.00003327    0.00008620
     atom    7 type  1   force =     0.00001234   -0.00020803    0.00048624
     atom    8 type  2   force =    -0.00003732   -0.00006152    0.00019364
     atom    9 type  2   force =    -0.00003037   -0.00007806    0.00012490
     atom   10 type  1   force =     0.00001156   -0.00008893    0.00044403
     atom   11 type  2   force =    -0.00005685   -0.00018140    0.00024391
     atom   12 type  2   force =    -0.00001464   -0.00014290    0.00009569
     atom   13 type  1   force =    -0.00007857    0.00027025    0.00028699
     atom   14 type  2   force =    -0.00001308    0.00006378    0.00020249
     atom   15 type  2   force =    -0.00000755    0.00009722    0.00006266
     atom   16 type  1   force =     0.00002482    0.00002695    0.00036220
     atom   17 type  2   force =    -0.00002227    0.00008703    0.00019596
     atom   18 type  2   force =    -0.00006112    0.00005120    0.00004354
     atom   19 type  1   force =     0.00011531   -0.00023175    0.00042121
     atom   20 type  2   force =     0.00001879   -0.00001146    0.00009890
     atom   21 type  1   force =     0.00003632   -0.00018755    0.00044724
     atom   22 type  2   force =     0.00008532   -0.00014475    0.00022312
     atom   23 type  2   force =     0.00000311   -0.00009236    0.00006714
     atom   24 type  1   force =     0.00005658    0.00032960    0.00028789
     atom   25 type  2   force =    -0.00002847    0.00007606    0.00010295
     atom   26 type  2   force =    -0.00001311    0.00012214    0.00007912
     atom   27 type  1   force =    -0.00007643    0.00001049    0.00031854
     atom   28 type  2   force =    -0.00003177    0.00007757    0.00013411
     atom   29 type  2   force =     0.00000161    0.00006066    0.00012304
     atom   30 type  1   force =    -0.00011795   -0.00041150    0.00041832
     atom   31 type  2   force =     0.00001615   -0.00009079    0.00017815
     atom   32 type  2   force =     0.00001051   -0.00011562    0.00008213
     atom   33 type  1   force =    -0.00003736    0.00005451    0.00036960
     atom   34 type  2   force =    -0.00003628   -0.00004372    0.00018854
     atom   35 type  2   force =     0.00001422   -0.00005612    0.00003304
     atom   36 type  3   force =    -0.00000280   -0.00000260    0.00003975

     Total force =     0.084653     Total SCF correction =     0.001799
     Energy error            =      1.1E-02 Ry
     Gradient error          =      3.3E-02 Ry/Bohr

     number of scf cycles    =   2
     number of bfgs steps    =   1

     energy             old  =   -2205.4934748331 Ry
     energy             new  =   -2205.5048272761 Ry

     CASE: energy            _new < energy            _old

     new trust radius        =       0.0494473623 bohr
     new conv_thr            =       0.0000000332 Ry


ATOMIC_POSITIONS (angstrom)
Mo            6.5848770032        1.7617179640        2.8246830573
S             8.1623806700        0.8261117764        4.4340172476
S             8.1804541318        0.8210562990        1.2710971892
Mo            8.0947049760        4.5016473486        2.7256735803
S             6.5025538112        3.7160646857        4.3405913015
S             6.5539845434        3.5232131574        1.1224689303
Mo            6.4963227675        7.2018526940        2.6815310648
S             8.0672307441        6.3264848972        4.2869890296
S             8.0948069693        6.3112029729        1.0966802636
Mo            8.1513451058        9.9121597556        2.8192695813
S             6.5033734132        8.9445598901        4.3714638896
S             6.6133194372        9.0465793379        1.1459991993
Mo            3.4276692976        1.7514620799        2.7709743628
S             4.9841243455        0.8170983312        4.3634797575
S             5.0448676869        0.8503752933        1.2166213644
Mo            4.9824475673        4.5253793390        2.6416113563
S             3.4351692937        3.6719998628        4.2811078855
S             3.4353729268        3.5427378047        1.0743175576
Mo            3.4496877249        7.2069187702        2.6207065325
S             4.9860514913        6.3217360432        1.0378324586
Mo            5.0069544958        9.9093045421        2.7443855886
S             3.4676843492        8.9418492335        4.3200365914
S             3.4094651480        9.0675607241        1.1062939305
Mo            0.2851731657        1.7450678153        2.8305944515
S             1.8670746442        0.8121987549        4.4029517771
S             1.8495765968        0.8533505048        1.2041367839
Mo            1.8599045989        4.4966425439        2.6677516590
S             0.2744859919        3.6506251318        4.3311542499
S             0.2358682709        3.5268813491        1.1679599382
Mo            0.2730764041        7.2267555952        2.6866820439
S             1.9026284180        6.3141766587        4.2391546580
S             1.8519703620        6.3192956030        1.0537501441
Mo            1.8567015014        9.9355752418        2.7660774852
S             0.2979688340        9.0453983945        4.4011739882
S             0.2681703495        9.0540887756        1.1649462316
H             6.3194066416        6.0734283500        5.3121576886



     Writing config-only to output data dir ./MoS2-V-O.save/
     NEW-OLD atomic charge density approx. for the potential

     negative rho (up, down):  1.439E-04 0.000E+00

     total cpu time spent up to now is      172.3 secs

     Self-consistent Calculation

     iteration #  1     ecut=    80.00 Ry     beta= 0.70
     Davidson diagonalization with overlap
     ethr =  1.00E-06,  avg # of iterations =  8.0

     negative rho (up, down):  8.710E-05 0.000E+00

     total cpu time spent up to now is      184.5 secs

     total energy              =   -2205.51320376 Ry
     estimated scf accuracy    <       0.00088059 Ry

     iteration #  2     ecut=    80.00 Ry     beta= 0.70
     Davidson diagonalization with overlap
     ethr =  2.87E-07,  avg # of iterations =  5.0

     negative rho (up, down):  7.701E-05 0.000E+00

     total cpu time spent up to now is      198.1 secs

     total energy              =   -2205.51327625 Ry
     estimated scf accuracy    <       0.00013843 Ry

     iteration #  3     ecut=    80.00 Ry     beta= 0.70
     Davidson diagonalization with overlap
     ethr =  4.51E-08,  avg # of iterations =  4.0

     negative rho (up, down):  6.785E-05 0.000E+00

     total cpu time spent up to now is      212.8 secs

     total energy              =   -2205.51329351 Ry
     estimated scf accuracy    <       0.00003439 Ry

     iteration #  4     ecut=    80.00 Ry     beta= 0.70
     Davidson diagonalization with overlap
     ethr =  1.12E-08,  avg # of iterations =  5.0

     negative rho (up, down):  6.634E-05 0.000E+00

     total cpu time spent up to now is      226.7 secs

     total energy              =   -2205.51329994 Ry
     estimated scf accuracy    <       0.00000291 Ry

     iteration #  5     ecut=    80.00 Ry     beta= 0.70
     Davidson diagonalization with overlap
     ethr =  9.47E-10,  avg # of iterations = 17.0

     negative rho (up, down):  6.910E-05 0.000E+00

     total cpu time spent up to now is      237.9 secs

     total energy              =   -2205.51330113 Ry
     estimated scf accuracy    <       0.00000116 Ry

     iteration #  6     ecut=    80.00 Ry     beta= 0.70
     Davidson diagonalization with overlap
     ethr =  3.78E-10,  avg # of iterations =  2.0

     negative rho (up, down):  7.528E-05 0.000E+00

     total cpu time spent up to now is      252.5 secs

     total energy              =   -2205.51330121 Ry
     estimated scf accuracy    <       0.00000032 Ry

     iteration #  7     ecut=    80.00 Ry     beta= 0.70
     Davidson diagonalization with overlap
     ethr =  1.05E-10,  avg # of iterations =  3.0

     negative rho (up, down):  8.358E-05 0.000E+00

     total cpu time spent up to now is      262.9 secs

     total energy              =   -2205.51330118 Ry
     estimated scf accuracy    <       0.00000015 Ry

     iteration #  8     ecut=    80.00 Ry     beta= 0.70
     Davidson diagonalization with overlap
     ethr =  4.94E-11,  avg # of iterations =  2.0

     negative rho (up, down):  1.114E-04 0.000E+00

     total cpu time spent up to now is      277.7 secs

     total energy              =   -2205.51330103 Ry
     estimated scf accuracy    <       0.00000007 Ry

     iteration #  9     ecut=    80.00 Ry     beta= 0.70
     Davidson diagonalization with overlap
     ethr =  2.24E-11,  avg # of iterations =  6.0

     negative rho (up, down):  1.379E-04 0.000E+00

     total cpu time spent up to now is      279.9 secs

     End of self-consistent calculation

          k = 0.0000 0.0000 0.0000 (105382 PWs)   bands (ev):

   -62.9306 -62.9220 -62.9124 -62.8989 -62.8864 -62.8789 -62.8604 -62.8531
   -62.8466 -62.8334 -62.7883 -62.7775 -37.2819 -37.2225 -37.1939 -37.1784
   -37.1603 -37.1489 -37.1285 -37.1243 -37.1111 -37.1036 -37.0964 -37.0944
   -37.0831 -37.0750 -37.0711 -37.0609 -37.0464 -37.0397 -37.0354 -37.0339
   -37.0262 -37.0183 -37.0114 -36.9788 -36.9620 -36.9546 -36.9520 -36.9430
   -36.9419 -36.9357 -36.8977 -36.8846 -36.8765 -36.8453 -36.8301 -36.7595
   -16.0117 -15.2281 -15.1841 -15.0167 -14.9275 -14.8560 -14.5568 -14.5282
   -14.4750 -14.4578 -14.4307 -14.3707 -14.3601 -14.3165 -14.1767 -14.1685
   -14.1436 -14.1408 -14.0643 -13.9027 -13.8941 -13.8781 -13.8319  -7.6861
    -7.5478  -7.4194  -7.3233  -7.2736  -7.2523  -7.2227  -7.1859  -6.9251
    -6.8679  -6.8386  -6.7938  -6.7053  -6.5878  -6.5502  -6.4609  -6.4184
    -6.3433  -6.3003  -6.0635  -5.9573  -5.9219  -5.9083  -5.8506  -5.7986
    -5.7766  -5.7395  -5.7061  -5.6960  -5.6731  -5.5879  -5.5572  -5.4966
    -5.4411  -5.4100  -5.1777  -5.1521  -5.0720  -5.0465  -5.0164  -4.9679
    -4.9556  -4.8801  -4.7197  -4.5596  -4.3683  -4.3457  -4.3270  -4.2685
    -4.2636  -4.0921  -4.0148  -3.9746  -3.8328  -3.7807  -3.7679  -3.7174
    -3.6898  -3.5929  -3.5658  -3.5385  -3.5307  -3.5004  -3.4545  -3.4189
    -3.4125  -3.2487  -3.1640  -2.9326  -2.9207  -2.8315  -2.8122  -2.7566
    -2.7425  -2.7049  -2.6988  -2.6730  -2.6169  -2.4285  -2.0852  -2.0378
    -2.0180  -1.2753  -0.8590  -0.7211  -0.1988  -0.1759  -0.1303  -0.0189
     0.0698   0.0925   0.1100   0.1909   0.2385   0.2771   0.2913   0.3741
     0.4420   0.5015   0.5089   0.5373   0.5746   0.6185   0.6821   0.7068
     0.7264   0.7502   0.8123   0.8523   0.8721   0.9621   0.9896   1.0622
     1.3527

     the Fermi energy is    -1.2753 ev

!    total energy              =   -2205.51330100 Ry
     estimated scf accuracy    <       0.00000001 Ry
     smearing contrib. (-TS)   =      -0.00564238 Ry
     internal energy E=F+TS    =   -2205.50765862 Ry

     The total energy is F=E-TS. E is the sum of the following terms:
     one-electron contribution =  -18045.51697732 Ry
     hartree contribution      =    9009.13503465 Ry
     xc contribution           =    -385.14753730 Ry
     ewald contribution        =    7216.02182135 Ry

     convergence has been achieved in   9 iterations

     negative rho (up, down):  1.379E-04 0.000E+00

     Forces acting on atoms (cartesian axes, Ry/au):

     atom    1 type  1   force =    -0.00335405   -0.00271544   -0.00401759
     atom    2 type  2   force =    -0.00448962    0.00515101   -0.00228190
     atom    3 type  2   force =    -0.00821356    0.00516335   -0.01181335
     atom    4 type  1   force =     0.00400326    0.00201897    0.00447381
     atom    5 type  2   force =     0.00194606   -0.00822662   -0.00355080
     atom    6 type  2   force =     0.00028259    0.00558724    0.00457551
     atom    7 type  1   force =     0.00215789   -0.00777790    0.00844219
     atom    8 type  2   force =    -0.01002621   -0.01011194    0.02841973
     atom    9 type  2   force =     0.00737642    0.00364781    0.00740642
     atom   10 type  1   force =     0.00031978    0.00530986   -0.00095172
     atom   11 type  2   force =     0.00533857    0.00179063   -0.00878873
     atom   12 type  2   force =    -0.00602779   -0.00383191    0.00274877
     atom   13 type  1   force =     0.00301667    0.00118056   -0.00003515
     atom   14 type  2   force =     0.00401511   -0.00005433    0.00565405
     atom   15 type  2   force =    -0.00627074    0.00151798   -0.00594935
     atom   16 type  1   force =     0.00136461    0.00451135    0.00383630
     atom   17 type  2   force =     0.00464857    0.00085395    0.00251316
     atom   18 type  2   force =    -0.00030495   -0.00025461    0.00976522
     atom   19 type  1   force =    -0.00218605   -0.00416567    0.00045487
     atom   20 type  2   force =     0.00341231   -0.00286731   -0.00076714
     atom   21 type  1   force =    -0.00193197    0.00264943    0.00212204
     atom   22 type  2   force =    -0.00102581   -0.00228538   -0.00416315
     atom   23 type  2   force =     0.00201653    0.00091575    0.00209671
     atom   24 type  1   force =    -0.00341072   -0.00088013   -0.00293861
     atom   25 type  2   force =     0.00646630    0.00973943   -0.00359389
     atom   26 type  2   force =    -0.00379341   -0.00093500   -0.00358456
     atom   27 type  1   force =    -0.00051311    0.00139082    0.00511665
     atom   28 type  2   force =     0.00077506   -0.00396427   -0.00440266
     atom   29 type  2   force =     0.00136349    0.00280797   -0.00226861
     atom   30 type  1   force =    -0.00263525   -0.00372502    0.00544154
     atom   31 type  2   force =    -0.00060483    0.00098555    0.00612451
     atom   32 type  2   force =    -0.00642887    0.00404979    0.00240785
     atom   33 type  1   force =     0.00089598    0.00101019    0.00409321
     atom   34 type  2   force =    -0.00131274   -0.02053612   -0.01440626
     atom   35 type  2   force =    -0.00348819    0.00924552    0.00203033
     atom   36 type  3   force =     0.01661865    0.00280451   -0.03420940
     The non-local contrib.  to forces
     atom    1 type  1   force =     0.00105552    0.02594327   -0.00669934
     atom    2 type  2   force =    -0.00458811   -0.00615136   -0.27109974
     atom    3 type  2   force =    -0.00827518   -0.00518444    0.26078689
     atom    4 type  1   force =    -0.00201927    0.01246190    0.00276240
     atom    5 type  2   force =    -0.00938012   -0.02409045   -0.24973747
     atom    6 type  2   force =    -0.00206748    0.00598290    0.26842851
     atom    7 type  1   force =    -0.01576103    0.00482226   -0.03059351
     atom    8 type  2   force =    -0.13044528   -0.00590624   -0.20643356
     atom    9 type  2   force =     0.00335080   -0.00809108    0.27485746
     atom   10 type  1   force =     0.00058242    0.00697152   -0.00339694
     atom   11 type  2   force =     0.00487923    0.01012968   -0.26177098
     atom   12 type  2   force =    -0.01387369   -0.02012021    0.26450250
     atom   13 type  1   force =     0.00056295    0.02122694   -0.00672762
     atom   14 type  2   force =     0.00758375   -0.01085596   -0.26678843
     atom   15 type  2   force =    -0.00886567   -0.00819183    0.26086771
     atom   16 type  1   force =    -0.00518803    0.02142651   -0.03702531
     atom   17 type  2   force =     0.00116610   -0.02574236   -0.25027784
     atom   18 type  2   force =    -0.00025449    0.00174726    0.27310623
     atom   19 type  1   force =     0.01290961    0.00240731   -0.01224533
     atom   20 type  2   force =    -0.00088367   -0.01863150    0.26195379
     atom   21 type  1   force =     0.00042336    0.02756225    0.00521231
     atom   22 type  2   force =    -0.00396644    0.00194915   -0.26004185
     atom   23 type  2   force =     0.00685187   -0.01727789    0.26348518
     atom   24 type  1   force =     0.00245807    0.01270481   -0.00921999
     atom   25 type  2   force =     0.00181967   -0.00159232   -0.26793947
     atom   26 type  2   force =     0.00286857   -0.01124776    0.26448776
     atom   27 type  1   force =    -0.00206136    0.00777282    0.00757226
     atom   28 type  2   force =    -0.00268997   -0.02105082   -0.27463329
     atom   29 type  2   force =     0.00446867    0.00269847    0.26605869
     atom   30 type  1   force =    -0.00233391    0.01548523    0.01303657
     atom   31 type  2   force =    -0.00762040    0.00007732   -0.26118195
     atom   32 type  2   force =    -0.00020609   -0.01092620    0.26959749
     atom   33 type  1   force =    -0.00296832    0.00546024    0.00309397
     atom   34 type  2   force =     0.00113620   -0.01610057   -0.27545218
     atom   35 type  2   force =    -0.00069869   -0.01304912    0.26237534
     atom   36 type  3   force =     0.00577220    0.00052850   -0.00693460
     The ionic contribution  to forces
     atom    1 type  1   force =    -0.02092881    0.70108480    5.53741899
     atom    2 type  2   force =    -0.29070735    0.16781799   39.41900732
     atom    3 type  2   force =    -0.10001671    0.05271815  -36.36367453
     atom    4 type  1   force =     0.46979496    0.19334131    0.61298023
     atom    5 type  2   force =    -0.96641017    0.88518656   38.43973267
     atom    6 type  2   force =     0.29712811   -0.60886689  -37.93046293
     atom    7 type  1   force =    -2.65625364   -2.01695261    2.33131855
     atom    8 type  2   force =    -0.13045264    0.29233898   37.45105665
     atom    9 type  2   force =     0.29395582   -0.08706813  -38.01289577
     atom   10 type  1   force =    -0.61753836   -0.30139580    4.97989494
     atom   11 type  2   force =    -0.50037435   -1.25989189   38.89120383
     atom   12 type  2   force =     0.29586089    0.54006314  -37.80053977
     atom   13 type  1   force =     0.28719237    0.83872475    2.69974432
     atom   14 type  2   force =    -0.10076436    0.01018903   38.68595401
     atom   15 type  2   force =     0.15632952   -0.00148710  -36.95431596
[...]
     atom   27 type  1   force =    -0.00309540    0.00759612    0.00106806
     atom   28 type  2   force =     0.00068413   -0.01442684   -0.26946370
     atom   29 type  2   force =     0.00008303   -0.00587369    0.26801058
     atom   30 type  1   force =    -0.00105639    0.02138152   -0.00047563
     atom   31 type  2   force =    -0.00650135    0.00107518   -0.26581187
     atom   32 type  2   force =     0.00376571   -0.01194110    0.26584472
     atom   33 type  1   force =    -0.00175610    0.00954778    0.00096813
     atom   34 type  2   force =     0.00126307   -0.00951718   -0.27116919
     atom   35 type  2   force =    -0.00106052   -0.01470663    0.26683904
     atom   36 type  3   force =    -0.00050226    0.00113027   -0.01750010
     The ionic contribution  to forces
     atom    1 type  1   force =    -0.07320373    0.59366915    2.52236871
     atom    2 type  2   force =    -0.17995223    0.05948775   38.92053437
     atom    3 type  2   force =     0.05462546   -0.01267974  -37.49197638
     atom    4 type  1   force =    -0.37269750    0.45347324    0.98948278
     atom    5 type  2   force =    -0.71848534    1.18115776   38.46127592
     atom    6 type  2   force =     0.15548616   -0.22091176  -37.96911591
     atom    7 type  1   force =    -2.15928857   -1.93342537    1.08611157
     atom    8 type  2   force =    -1.18423967    0.03302541   38.33079454
     atom    9 type  2   force =     0.25255526   -0.09902786  -37.95994456
     atom   10 type  1   force =    -0.19102755   -0.24610525    2.68583205
     atom   11 type  2   force =    -0.48033345   -1.31937252   38.75046923
     atom   12 type  2   force =     0.13225305    0.32025482  -38.16525277
     atom   13 type  1   force =     0.14773432    0.41584353    2.50017114
     atom   14 type  2   force =     0.01036755   -0.06654530   38.63936270
     atom   15 type  2   force =    -0.02770550   -0.08449310  -37.52372782
     atom   16 type  1   force =     0.38113939    2.96460487    1.41500531
     atom   17 type  2   force =     0.76833040    1.09023105   38.67081862
     atom   18 type  2   force =    -0.20179540   -0.27239782  -38.10152210
     atom   19 type  1   force =     2.13612831   -1.41936017    2.37276168
     atom   20 type  2   force =     0.02040443   -0.05574996  -38.60293683
     atom   21 type  1   force =    -0.16447534   -0.26982299    1.21765766
     atom   22 type  2   force =     0.49733697   -1.30930046   38.72217229
     atom   23 type  2   force =    -0.17140112    0.22169669  -37.89111158
     atom   24 type  1   force =     0.01089900    0.36262026    2.60948247
     atom   25 type  2   force =     0.13897152    0.03185790   38.94892772
     atom   26 type  2   force =    -0.06322716   -0.06885934  -37.50706324
     atom   27 type  1   force =     0.10246322    0.41717609    1.02617732
     atom   28 type  2   force =    -0.07294967    0.45404638   38.37121452
     atom   29 type  2   force =    -0.02978303   -0.09389873  -37.57743826
     atom   30 type  1   force =     0.04400570   -0.51675443    2.28596233
     atom   31 type  2   force =     1.06700204    0.11534407   38.50679321
     atom   32 type  2   force =    -0.23247166    0.00390979  -37.87487325
     atom   33 type  1   force =     0.32444085   -0.35862062    2.96147496
     atom   34 type  2   force =     0.00458064   -0.40637549   38.87766605
     atom   35 type  2   force =     0.04618852    0.13118568  -37.45248823
     atom   36 type  3   force =     0.02812413   -0.09588351    5.24493376
     The local contribution  to forces
     atom    1 type  1   force =     0.07027098   -0.61415682   -2.51658612
     atom    2 type  2   force =     0.18104413   -0.04802821  -38.67420245
     atom    3 type  2   force =    -0.05233992    0.02357259   37.24514061
     atom    4 type  1   force =     0.37011034   -0.46015507   -0.99066518
     atom    5 type  2   force =     0.71550498   -1.16324907  -38.22620317
     atom    6 type  2   force =    -0.15230923    0.22609539   37.72329257
     atom    7 type  1   force =     2.15680789    1.92019831   -1.07926964
     atom    8 type  2   force =     1.17579005   -0.03164893  -38.08664065
     atom    9 type  2   force =    -0.24742383    0.10880916   37.71377342
     atom   10 type  1   force =     0.18937553    0.23570915   -2.68682258
     atom   11 type  2   force =     0.47558536    1.32061217  -38.51120036
     atom   12 type  2   force =    -0.12904969   -0.30568080   37.92296467
     atom   13 type  1   force =    -0.14750983   -0.43648366   -2.49603800
     atom   14 type  2   force =    -0.01037612    0.07661589  -38.39147465
     atom   15 type  2   force =     0.02716301    0.09613309   37.27978055
     atom   16 type  1   force =    -0.38496041   -2.97617708   -1.39407288
     atom   17 type  2   force =    -0.76667293   -1.07110021  -38.43447845
     atom   18 type  2   force =     0.20064409    0.27914443   37.85691877
     atom   19 type  1   force =    -2.13228461    1.40489006   -2.35813458
     atom   20 type  2   force =    -0.02134394    0.06844695   38.36109999
     atom   21 type  1   force =     0.16372186    0.24638505   -1.22217222
     atom   22 type  2   force =    -0.49290809    1.31361603  -38.48300987
     atom   23 type  2   force =     0.16555891   -0.20748203   37.64700727
     atom   24 type  1   force =    -0.01168616   -0.37785087   -2.60814162
     atom   25 type  2   force =    -0.14083855   -0.02007142  -38.70395437
     atom   26 type  2   force =     0.06051663    0.07985519   37.26127395
     atom   27 type  1   force =    -0.09866604   -0.42429999   -1.02764811
     atom   28 type  2   force =     0.07286176   -0.44093156  -38.12264213
     atom   29 type  2   force =     0.02986048    0.10057306   37.32985456
     atom   30 type  1   force =    -0.04240414    0.49473600   -2.28517220
     atom   31 type  2   force =    -1.05955306   -0.11538755  -38.26289205
     atom   32 type  2   force =     0.22960974    0.00818662   37.62945349
     atom   33 type  1   force =    -0.32371952    0.34914758   -2.96236735
     atom   34 type  2   force =    -0.00524399    0.41578866  -38.62740842
     atom   35 type  2   force =    -0.04570040   -0.11762679   37.20581898
     atom   36 type  3   force =    -0.02833839    0.09337093   -5.22708959
     The core correction contribution to forces
     atom    1 type  1   force =     0.00000000    0.00000000    0.00000000
     atom    2 type  2   force =     0.00001469    0.00049502    0.02086776
     atom    3 type  2   force =     0.00020080    0.00048988   -0.02089799
     atom    4 type  1   force =     0.00000000    0.00000000    0.00000000
     atom    5 type  2   force =    -0.00040478    0.00092727    0.02041867
     atom    6 type  2   force =     0.00027891   -0.00001582   -0.02091654
     atom    7 type  1   force =     0.00000000    0.00000000    0.00000000
     atom    8 type  2   force =    -0.00059775    0.00024786    0.02080402
     atom    9 type  2   force =     0.00053193    0.00048265   -0.02087877
     atom   10 type  1   force =     0.00000000    0.00000000    0.00000000
     atom   11 type  2   force =    -0.00012873   -0.00020956    0.02061985
     atom   12 type  2   force =     0.00038471    0.00110919   -0.02083448
     atom   13 type  1   force =     0.00000000    0.00000000    0.00000000
     atom   14 type  2   force =     0.00000330    0.00017217    0.02088923
     atom   15 type  2   force =     0.00002082    0.00049587   -0.02072551
     atom   16 type  1   force =     0.00000000    0.00000000    0.00000000
     atom   17 type  2   force =     0.00018456    0.00095790    0.02052233
     atom   18 type  2   force =    -0.00031129   -0.00003415   -0.02089951
     atom   19 type  1   force =     0.00000000    0.00000000    0.00000000
     atom   20 type  2   force =     0.00006945    0.00058068   -0.02089632
     atom   21 type  1   force =     0.00000000    0.00000000    0.00000000
     atom   22 type  2   force =     0.00019838    0.00007866    0.02061236
     atom   23 type  2   force =    -0.00043998    0.00098142   -0.02088411
     atom   24 type  1   force =     0.00000000    0.00000000    0.00000000
     atom   25 type  2   force =    -0.00004250    0.00049216    0.02084640
     atom   26 type  2   force =    -0.00017856    0.00041558   -0.02091815
     atom   27 type  1   force =     0.00000000    0.00000000    0.00000000
     atom   28 type  2   force =    -0.00005250    0.00086343    0.02093240
     atom   29 type  2   force =    -0.00003402    0.00015099   -0.02082676
     atom   30 type  1   force =     0.00000000    0.00000000    0.00000000
     atom   31 type  2   force =     0.00033960    0.00018028    0.02086122
     atom   32 type  2   force =    -0.00041839    0.00058723   -0.02085932
     atom   33 type  1   force =     0.00000000    0.00000000    0.00000000
     atom   34 type  2   force =    -0.00007205    0.00039277    0.02106850
     atom   35 type  2   force =     0.00006246    0.00085840   -0.02088303
     atom   36 type  3   force =     0.00000000    0.00000000    0.00000000
     The Hubbard contrib.    to forces
     atom    1 type  1   force =     0.00000000    0.00000000    0.00000000
     atom    2 type  2   force =     0.00000000    0.00000000    0.00000000
     atom    3 type  2   force =     0.00000000    0.00000000    0.00000000
     atom    4 type  1   force =     0.00000000    0.00000000    0.00000000
     atom    5 type  2   force =     0.00000000    0.00000000    0.00000000
     atom    6 type  2   force =     0.00000000    0.00000000    0.00000000
     atom    7 type  1   force =     0.00000000    0.00000000    0.00000000
     atom    8 type  2   force =     0.00000000    0.00000000    0.00000000
     atom    9 type  2   force =     0.00000000    0.00000000    0.00000000
     atom   10 type  1   force =     0.00000000    0.00000000    0.00000000
     atom   11 type  2   force =     0.00000000    0.00000000    0.00000000
     atom   12 type  2   force =     0.00000000    0.00000000    0.00000000
     atom   13 type  1   force =     0.00000000    0.00000000    0.00000000
     atom   14 type  2   force =     0.00000000    0.00000000    0.00000000
     atom   15 type  2   force =     0.00000000    0.00000000    0.00000000
     atom   16 type  1   force =     0.00000000    0.00000000    0.00000000
     atom   17 type  2   force =     0.00000000    0.00000000    0.00000000
     atom   18 type  2   force =     0.00000000    0.00000000    0.00000000
     atom   19 type  1   force =     0.00000000    0.00000000    0.00000000
     atom   20 type  2   force =     0.00000000    0.00000000    0.00000000
     atom   21 type  1   force =     0.00000000    0.00000000    0.00000000
     atom   22 type  2   force =     0.00000000    0.00000000    0.00000000
     atom   23 type  2   force =     0.00000000    0.00000000    0.00000000
     atom   24 type  1   force =     0.00000000    0.00000000    0.00000000
     atom   25 type  2   force =     0.00000000    0.00000000    0.00000000
     atom   26 type  2   force =     0.00000000    0.00000000    0.00000000
     atom   27 type  1   force =     0.00000000    0.00000000    0.00000000
     atom   28 type  2   force =     0.00000000    0.00000000    0.00000000
     atom   29 type  2   force =     0.00000000    0.00000000    0.00000000
     atom   30 type  1   force =     0.00000000    0.00000000    0.00000000
     atom   31 type  2   force =     0.00000000    0.00000000    0.00000000
     atom   32 type  2   force =     0.00000000    0.00000000    0.00000000
     atom   33 type  1   force =     0.00000000    0.00000000    0.00000000
     atom   34 type  2   force =     0.00000000    0.00000000    0.00000000
     atom   35 type  2   force =     0.00000000    0.00000000    0.00000000
     atom   36 type  3   force =     0.00000000    0.00000000    0.00000000
     The SCF correction term to forces
     atom    1 type  1   force =    -0.00002143    0.00000647    0.00001025
     atom    2 type  2   force =    -0.00000060    0.00000352   -0.00000400
     atom    3 type  2   force =     0.00000591    0.00000617    0.00000149
     atom    4 type  1   force =     0.00001192   -0.00004940   -0.00002030
     atom    5 type  2   force =    -0.00003321   -0.00000416   -0.00001505
     atom    6 type  2   force =    -0.00001841    0.00000272    0.00001537
     atom    7 type  1   force =    -0.00000676   -0.00000278   -0.00000552
     atom    8 type  2   force =     0.00000861   -0.00001392    0.00001047
     atom    9 type  2   force =     0.00001690   -0.00001593   -0.00001750
     atom   10 type  1   force =     0.00001652    0.00006153   -0.00001113
     atom   11 type  2   force =    -0.00000658    0.00002542    0.00001764
     atom   12 type  2   force =     0.00000947    0.00002601   -0.00001209
     atom   13 type  1   force =    -0.00000043    0.00004439    0.00001953
     atom   14 type  2   force =    -0.00001143    0.00001141    0.00000090
     atom   15 type  2   force =    -0.00000502    0.00001316    0.00001285
     atom   16 type  1   force =    -0.00006309   -0.00008895    0.00000782
     atom   17 type  2   force =     0.00000873   -0.00000027   -0.00002017
     atom   18 type  2   force =     0.00000293    0.00000204    0.00003295
     atom   19 type  1   force =    -0.00001243   -0.00006161    0.00002938
     atom   20 type  2   force =    -0.00000366   -0.00004863   -0.00000556
     atom   21 type  1   force =    -0.00000823    0.00008989    0.00003008
     atom   22 type  2   force =    -0.00000159    0.00002686    0.00001638
     atom   23 type  2   force =    -0.00000712    0.00002637   -0.00000522
     atom   24 type  1   force =     0.00001858    0.00001043   -0.00001352
     atom   25 type  2   force =     0.00001276    0.00001379   -0.00000260
     atom   26 type  2   force =    -0.00000047    0.00001913    0.00000765
     atom   27 type  1   force =     0.00004775   -0.00005657   -0.00000354
     atom   28 type  2   force =     0.00002178   -0.00000779   -0.00000908
     atom   29 type  2   force =     0.00001456   -0.00000564    0.00000238
     atom   30 type  1   force =     0.00002614   -0.00001687   -0.00002327
     atom   31 type  2   force =    -0.00000002   -0.00002917    0.00000515
     atom   32 type  2   force =    -0.00001467   -0.00003142   -0.00000647
     atom   33 type  1   force =    -0.00000151    0.00005030    0.00001406
     atom   34 type  2   force =     0.00000791    0.00001412    0.00000308
     atom   35 type  2   force =    -0.00000080    0.00000943   -0.00000558
     atom   36 type  3   force =    -0.00000185   -0.00000872    0.00000282

     Total force =     0.006754     Total SCF correction =     0.000249
     Energy error            =      9.7E-05 Ry
     Gradient error          =      1.6E-03 Ry/Bohr

     bfgs converged in  44 scf cycles and  43 bfgs steps
     (criteria: energy <  1.0E-04 Ry, force <  1.0E-02 Ry/Bohr)

     End of BFGS Geometry Optimization

     Final energy             =   -2205.7084210422 Ry

     File ./MoS2-V-O.bfgs deleted, as requested
Begin final coordinates

ATOMIC_POSITIONS (angstrom)
Mo            6.6041776914        1.7534874336        2.8111566112
S             8.1752496802        0.8420189227        4.4170905486
S             8.1879401647        0.8397368072        1.2285290922
Mo            8.1559232721        4.4861268836        2.7721713587
S             6.5522853462        3.6427124299        4.3659861331
S             6.5960678850        3.5589721465        1.1677745975
Mo            6.5778916481        7.2099490881        2.7101765499
S             8.1179570824        6.3084720283        4.3545130033
S             8.1913467454        6.3130717753        1.1639425062
Mo            8.1780064049        9.9330722336        2.8163022448
S             6.5765544515        8.9671760687        4.3803346205
S             6.6317626159        9.0473777343        1.1687375591
Mo            3.4636990086        1.7506112472        2.8116625650
S             5.0353555885        0.8135737278        4.3940804242
S             5.0379840814        0.8393899370        1.2181388719
Mo            5.0095835407        4.5065487899        2.7162651199
S             3.4809063894        3.6353764030        4.3773655121
S             3.4522077930        3.5493894309        1.1669648316
Mo            3.4906250344        7.1799910276        2.7332991030
S             5.0318018477        6.3062342482        1.0896614065
Mo            5.0381735521        9.9053407305        2.7834213067
S             3.4998032587        8.9611585639        4.3864478883
S             3.4444260315        9.0304282370        1.1810359708
Mo            0.3081564428        1.7351907045        2.8225994112
S             1.8984825131        0.8374567653        4.4207454573
S             1.8866432042        0.8302021207        1.2261268868
Mo            1.8919995451        4.4815835974        2.7749087380
S             0.2923813347        3.5991485488        4.3760156087
S             0.2970276067        3.5497470845        1.2052347759
Mo            0.3020843149        7.2039343892        2.7961629994
S             1.9295187477        6.2970867232        4.3677908448
S             1.8754471863        6.3101030465        1.1733362077
Mo            1.8969412039        9.9274131941        2.8223469615
S             0.3042546214        9.0208885462        4.4089154695
S             0.3117938840        9.0424506174        1.2258145467
H             5.0523939599        6.3371362887        3.6912670870
End final coordinates



     Writing all to output data dir ./MoS2-V-O.save/
 
     init_run     :      2.49s CPU      2.67s WALL (       1 calls)
     electrons    :   4228.86s CPU   4637.01s WALL (      44 calls)
     update_pot   :     60.67s CPU     63.24s WALL (      43 calls)
     forces       :     61.13s CPU     65.33s WALL (      44 calls)

     Called by init_run:
     wfcinit      :      0.40s CPU      0.44s WALL (       1 calls)
     potinit      :      1.36s CPU      1.45s WALL (       1 calls)
     hinit0       :      0.17s CPU      0.18s WALL (       1 calls)

     Called by electrons:
     c_bands      :    493.50s CPU    498.54s WALL (     374 calls)
     sum_band     :    124.14s CPU    134.76s WALL (     374 calls)
     v_of_rho     :    163.96s CPU    188.28s WALL (     408 calls)
     newd         :     67.65s CPU     76.04s WALL (     408 calls)
     mix_rho      :   3399.25s CPU   3757.04s WALL (     374 calls)

     Called by c_bands:
     init_us_2    :      8.20s CPU      8.49s WALL (     749 calls)
     init_us_2:cp :      8.19s CPU      8.49s WALL (     749 calls)
     regterg      :    465.64s CPU    470.35s WALL (     374 calls)

     Called by *egterg:
     rdiaghg      :     40.24s CPU     40.52s WALL (    2263 calls)
     h_psi        :    263.22s CPU    265.55s WALL (    2317 calls)
     s_psi        :     35.02s CPU     35.16s WALL (    2317 calls)
     g_psi        :      1.75s CPU      1.77s WALL (    1942 calls)

     Called by h_psi:
     h_psi:calbec :     38.37s CPU     38.53s WALL (    2317 calls)
     vloc_psi     :    185.54s CPU    187.52s WALL (    2317 calls)
     add_vuspsi   :     35.13s CPU     35.32s WALL (    2317 calls)

     General routines
     calbec       :     54.71s CPU     54.94s WALL (    2867 calls)
     fft          :    114.23s CPU    132.04s WALL (   27449 calls)
     ffts         :   1504.03s CPU   1850.05s WALL (  830644 calls)
     fftw         :    153.98s CPU    155.47s WALL (  234502 calls)
     interpolate  :      2.95s CPU      3.41s WALL (     408 calls)
 
     Parallel routines
 
     PWSCF        :      1h12m CPU      1h19m WALL

 
   This run was terminated on:   5:51:47   4Nov2023            

=------------------------------------------------------------------------------=
   JOB DONE.
=------------------------------------------------------------------------------=
