
     Program PWSCF v.7.2 starts on  4Nov2023 at  3:18:32 

     This program is part of the open-source Quantum ESPRESSO suite
     for quantum simulation of materials; please cite
         "P. Giannozzi et al., J. Phys.:Condens. Matter 21 395502 (2009);
         "P. Giannozzi et al., J. Phys.:Condens. Matter 29 465901 (2017);
         "P. Giannozzi et al., J. Chem. Phys. 152 154105 (2020);
          URL http://www.quantum-espresso.org", 
     in publications or presentations arising from this work. More details at
     http://www.quantum-espresso.org/quote

     Parallel version (MPI & OpenMP), running on      48 processor cores
     Number of MPI processes:                48
     Threads/MPI process:                     1

     MPI processes distributed on     1 nodes
     116302 MiB available memory on the printing compute node when the environment starts
 
     Waiting for input...
     Reading input from standard input
Warning: card &CELL ignored
Warning: card CELL_DYNAMICS = 'BFGS', ignored
Warning: card CELL_DOFREE = '2DXY' ignored
Warning: card / ignored

     Current dimensions of program PWSCF are:
     Max number of different atomic species (ntypx) = 10
     Max number of k-points (npk) =  40000
     Max angular momentum in pseudopotentials (lmaxx) =  4

     IMPORTANT: XC functional enforced from input :
     Exchange-correlation= RVV10
                           (   1   4  13   4  26   0   0)
     Any further DFT definition will be discarded
     Please, verify this is what you really want


     gamma-point specific algorithms are used
     signal trapping enabled: kill the code with -SIGUSR1 to stop cleanly the simulation 
 
     R & G space division:  proc/nbgrp/npool/nimage =      48
     Subspace diagonalization in iterative solution of the eigenvalue problem:
     one sub-group per band group will be used
     scalapack distributed-memory algorithm (size of sub-group:  2*  2 procs)

 
     Parallelization info
     --------------------
     sticks:   dense  smooth     PW     G-vecs:    dense   smooth      PW
     Min         243     194     47                49060    35090    4376
     Max         246     196     50                49086    35128    4410
     Sum       11735    9389   2349              2355467  1685513  210763
 
     Using Slab Decomposition
 


     bravais-lattice index     =            0
     lattice parameter (alat)  =      17.8707  a.u.
     unit-cell volume          =   17436.2743 (a.u.)^3
     number of atoms/cell      =           36
     number of atomic types    =            3
     number of electrons       =       307.00
     number of Kohn-Sham states=          185
     kinetic-energy cutoff     =      80.0000  Ry
     charge density cutoff     =     400.0000  Ry
     scf convergence threshold =      1.0E-06
     mixing beta               =       0.7000
     number of iterations used =            8  local-TF  mixing
     energy convergence thresh.=      1.0E-04
     force convergence thresh. =      1.0E-02
     Exchange-correlation= RVV10
                           (   1   4  13   4  26   0   0)
     nstep                     =          200


     celldm(1)=  17.870686  celldm(2)=   0.000000  celldm(3)=   0.000000
     celldm(4)=   0.000000  celldm(5)=   0.000000  celldm(6)=   0.000000

     crystal axes: (cart. coord. in units of alat)
               a(1) = (   1.000000   0.000000   0.000000 )  
               a(2) = (   0.000000   1.155671   0.000000 )  
               a(3) = (   0.000000   0.000000   2.643601 )  

     reciprocal axes: (cart. coord. in units 2 pi/alat)
               b(1) = (  1.000000  0.000000  0.000000 )  
               b(2) = (  0.000000  0.865298  0.000000 )  
               b(3) = (  0.000000  0.000000  0.378272 )  


     PseudoPot. # 1 for Mo read from file:
     ../pseudo/Mo_ONCV_PBE-1.0.oncvpsp.upf
     MD5 check sum: 1b5d28e075c9ccadda658a603575cd1f
     Pseudo is Norm-conserving, Zval = 14.0
     Generated using ONCVPSP code by D. R. Hamann
     Using radial grid of 1526 points,  6 beta functions with: 
                l(1) =   0
                l(2) =   0
                l(3) =   1
                l(4) =   1
                l(5) =   2
                l(6) =   2

     PseudoPot. # 2 for S  read from file:
     ../pseudo/s_pbe_v1.4.uspp.F.UPF
     MD5 check sum: 88d86576ff6df21479756cfb9bdac1df
     Pseudo is Ultrasoft + core correction, Zval =  6.0
     Generated by new atomic code, or converted to UPF format
     Using radial grid of  907 points,  6 beta functions with: 
                l(1) =   0
                l(2) =   0
                l(3) =   1
                l(4) =   1
                l(5) =   2
                l(6) =   2
     Q(r) pseudized with  8 coefficients,  rinner =    1.300   1.300   1.300
                                                       1.300   1.300

     PseudoPot. # 3 for H  read from file:
     ../pseudo/H_ONCV_PBE-1.0.oncvpsp.upf
     MD5 check sum: 1790becc920ee074925cf490c71280fe
     Pseudo is Norm-conserving, Zval =  1.0
     Generated using ONCVPSP code by D. R. Hamann
     Using radial grid of 1166 points,  2 beta functions with: 
                l(1) =   0
                l(2) =   0

     atomic species   valence    mass     pseudopotential
        Mo            14.00    95.94000     Mo( 1.00)
        S              6.00    32.06500     S ( 1.00)
        H              1.00     1.00794     H ( 1.00)

     No symmetry found



   Cartesian axes

     site n.     atom                  positions (alat units)
         1           Mo  tau(   1) = (   0.6952221   0.1890506   0.2985846  )
         2           S   tau(   2) = (   0.8646417   0.0856217   0.4689279  )
         3           S   tau(   3) = (   0.8663890   0.0857843   0.1351291  )
         4           Mo  tau(   4) = (   0.8560186   0.4753274   0.2873942  )
         5           S   tau(   5) = (   0.6873294   0.3936244   0.4596353  )
         6           S   tau(   6) = (   0.6929804   0.3713468   0.1185692  )
         7           Mo  tau(   7) = (   0.6862796   0.7633098   0.2825370  )
         8           S   tau(   8) = (   0.8545980   0.6708292   0.4486168  )
         9           S   tau(   9) = (   0.8545123   0.6666874   0.1146125  )
        10           Mo  tau(  10) = (   0.8629403   1.0471007   0.3006803  )
        11           S   tau(  11) = (   0.6868280   0.9456650   0.4634891  )
        12           S   tau(  12) = (   0.6998113   0.9568511   0.1205389  )
        13           Mo  tau(  13) = (   0.3618216   0.1847309   0.2935964  )
        14           S   tau(  14) = (   0.5260962   0.0863870   0.4600448  )
        15           S   tau(  15) = (   0.5348379   0.0894875   0.1297123  )
        16           Mo  tau(  16) = (   0.5265817   0.4772436   0.2784130  )
        17           S   tau(  17) = (   0.3624753   0.3882513   0.4525556  )
        18           S   tau(  18) = (   0.3635411   0.3752055   0.1119148  )
        19           Mo  tau(  19) = (   0.3652268   0.7630864   0.2781795  )
        20           S   tau(  20) = (   0.5269494   0.6690381   0.1096838  )
        21           Mo  tau(  21) = (   0.5300192   1.0470394   0.2900995  )
        22           S   tau(  22) = (   0.3670346   0.9457522   0.4574073  )
        23           S   tau(  23) = (   0.3604225   0.9585725   0.1159032  )
        24           Mo  tau(  24) = (   0.0313099   0.1847895   0.3013130  )
        25           S   tau(  25) = (   0.1956761   0.0838230   0.4650863  )
        26           S   tau(  26) = (   0.1967693   0.0903508   0.1278874  )
        27           Mo  tau(  27) = (   0.1967578   0.4753919   0.2813011  )
        28           S   tau(  28) = (   0.0287851   0.3864324   0.4586755  )
        29           S   tau(  29) = (   0.0244514   0.3729871   0.1239344  )
        30           Mo  tau(  30) = (   0.0286728   0.7631204   0.2856894  )
        31           S   tau(  31) = (   0.2011512   0.6675435   0.4465001  )
        32           S   tau(  32) = (   0.1969214   0.6672839   0.1104564  )
        33           Mo  tau(  33) = (   0.1950294   1.0511147   0.2932237  )
        34           S   tau(  34) = (   0.0312912   0.9612169   0.4667423  )
        35           S   tau(  35) = (   0.0292670   0.9563028   0.1216485  )
        36           H   tau(  36) = (   1.0000000   0.5136314   0.5407634  )

     number of k points=     1  Gaussian smearing, width (Ry)=  0.0100
                       cart. coord. in units 2pi/alat
        k(    1) = (   0.0000000   0.0000000   0.0000000), wk =   2.0000000

     Dense  grid:  1177734 G-vectors     FFT dimensions: ( 120, 135, 320)

     Smooth grid:   842757 G-vectors     FFT dimensions: ( 108, 120, 270)

     Estimated max dynamical RAM per process >     146.59 MB

     Estimated total dynamical RAM >       6.87 GB

     Initial potential from superposition of free atoms

     starting charge     306.9873, renormalised to     307.0000

     negative rho (up, down):  1.416E-04 0.000E+00


---------------------------------------------------------------------------------
Carrying out rVV10 run using the following parameters:
Nqs =      20    Nr_points =    1024   r_max =   100.000
b_value =  6.30000    beta =  0.00901
     q_mesh =  0.00010000  0.00030000  0.00058939  0.00100810
               0.00161396  0.00249058  0.00375900  0.00559430
               0.00824984  0.01209221  0.01765183  0.02569619
               0.03733578  0.05417739  0.07854596  0.11380545
               0.16482331  0.23864234  0.34545298  0.50000000

Gradients computed in Reciprocal space

---------------------------------------------------------------------------------


     Starting wfcs are  213 randomized atomic wfcs

     total cpu time spent up to now is        2.7 secs

     Self-consistent Calculation

     iteration #  1     ecut=    80.00 Ry     beta= 0.70
     Davidson diagonalization with overlap
     ethr =  1.00E-02,  avg # of iterations =  2.0

     Threshold (ethr) on eigenvalues was too large:
     Diagonalizing with lowered threshold

     Davidson diagonalization with overlap
     ethr =  3.82E-04,  avg # of iterations =  4.0

     negative rho (up, down):  2.203E-08 0.000E+00

     total cpu time spent up to now is       25.2 secs

     total energy              =   -2205.60649232 Ry
     estimated scf accuracy    <       1.46192791 Ry

     iteration #  2     ecut=    80.00 Ry     beta= 0.70
     Davidson diagonalization with overlap
     ethr =  4.76E-04,  avg # of iterations =  2.0

     total cpu time spent up to now is       27.7 secs

     total energy              =   -2205.49856654 Ry
     estimated scf accuracy    <       0.60908719 Ry

     iteration #  3     ecut=    80.00 Ry     beta= 0.70
     Davidson diagonalization with overlap
     ethr =  1.98E-04,  avg # of iterations =  2.0

     total cpu time spent up to now is       30.1 secs

     total energy              =   -2205.51088522 Ry
     estimated scf accuracy    <       0.28290510 Ry

     iteration #  4     ecut=    80.00 Ry     beta= 0.70
     Davidson diagonalization with overlap
     ethr =  9.22E-05,  avg # of iterations =  7.0

     total cpu time spent up to now is       32.6 secs

     total energy              =   -2205.54106222 Ry
     estimated scf accuracy    <       0.03574564 Ry

     iteration #  5     ecut=    80.00 Ry     beta= 0.70
     Davidson diagonalization with overlap
     c_bands:  1 eigenvalues not converged
     ethr =  1.16E-05,  avg # of iterations = 20.0

     total cpu time spent up to now is       35.6 secs

     total energy              =   -2205.54197506 Ry
     estimated scf accuracy    <       0.01942884 Ry

     iteration #  6     ecut=    80.00 Ry     beta= 0.70
     Davidson diagonalization with overlap
     c_bands:  1 eigenvalues not converged
     ethr =  6.33E-06,  avg # of iterations = 20.0

     total cpu time spent up to now is       38.4 secs

     total energy              =   -2205.54124765 Ry
     estimated scf accuracy    <       0.01193819 Ry

     iteration #  7     ecut=    80.00 Ry     beta= 0.70
     Davidson diagonalization with overlap
     ethr =  3.89E-06,  avg # of iterations = 18.0

     negative rho (up, down):  9.525E-07 0.000E+00

     total cpu time spent up to now is       42.5 secs

     total energy              =   -2205.53947682 Ry
     estimated scf accuracy    <       0.00752831 Ry

     iteration #  8     ecut=    80.00 Ry     beta= 0.70
     Davidson diagonalization with overlap
     ethr =  2.45E-06,  avg # of iterations =  3.0

     negative rho (up, down):  1.114E-02 0.000E+00

     total cpu time spent up to now is       46.6 secs

     total energy              =   -2205.53921678 Ry
     estimated scf accuracy    <       0.00377948 Ry

     iteration #  9     ecut=    80.00 Ry     beta= 0.70
     Davidson diagonalization with overlap
     ethr =  1.23E-06,  avg # of iterations =  2.0

     negative rho (up, down):  2.923E-02 0.000E+00

     total cpu time spent up to now is       50.9 secs

     total energy              =   -2205.53898921 Ry
     estimated scf accuracy    <       0.00232767 Ry

     iteration # 10     ecut=    80.00 Ry     beta= 0.70
     Davidson diagonalization with overlap
     ethr =  7.58E-07,  avg # of iterations =  2.0

     negative rho (up, down):  3.284E-02 0.000E+00

     total cpu time spent up to now is       55.8 secs

     total energy              =   -2205.53913974 Ry
     estimated scf accuracy    <       0.00086613 Ry

     iteration # 11     ecut=    80.00 Ry     beta= 0.70
     Davidson diagonalization with overlap
     ethr =  2.82E-07,  avg # of iterations =  2.0

     negative rho (up, down):  1.556E-02 0.000E+00

     total cpu time spent up to now is       61.0 secs

     total energy              =   -2205.53912548 Ry
     estimated scf accuracy    <       0.00025751 Ry

     iteration # 12     ecut=    80.00 Ry     beta= 0.70
     Davidson diagonalization with overlap
     ethr =  8.39E-08,  avg # of iterations =  6.0

     negative rho (up, down):  3.929E-03 0.000E+00

     total cpu time spent up to now is       67.7 secs

     total energy              =   -2205.53915523 Ry
     estimated scf accuracy    <       0.00008046 Ry

     iteration # 13     ecut=    80.00 Ry     beta= 0.70
     Davidson diagonalization with overlap
     ethr =  2.62E-08,  avg # of iterations =  4.0

     negative rho (up, down):  1.623E-03 0.000E+00

     total cpu time spent up to now is       74.3 secs

     total energy              =   -2205.53917812 Ry
     estimated scf accuracy    <       0.00000708 Ry

     iteration # 14     ecut=    80.00 Ry     beta= 0.70
     Davidson diagonalization with overlap
     ethr =  2.31E-09,  avg # of iterations =  5.0

     negative rho (up, down):  2.896E-04 0.000E+00

     total cpu time spent up to now is       84.8 secs

     total energy              =   -2205.53918015 Ry
     estimated scf accuracy    <       0.00000197 Ry

     iteration # 15     ecut=    80.00 Ry     beta= 0.70
     Davidson diagonalization with overlap
     ethr =  6.42E-10,  avg # of iterations =  4.0

     negative rho (up, down):  1.375E-04 0.000E+00

     total cpu time spent up to now is       86.9 secs

     End of self-consistent calculation

          k = 0.0000 0.0000 0.0000 (105382 PWs)   bands (ev):

   -62.8537 -62.8378 -62.8310 -62.8147 -62.8035 -62.8013 -62.7880 -62.7829
   -62.7618 -62.7430 -62.7255 -62.6873 -37.1947 -37.1308 -37.1225 -37.1102
   -37.0985 -37.0709 -37.0569 -37.0451 -37.0423 -37.0358 -37.0264 -37.0162
   -37.0085 -37.0050 -36.9900 -36.9853 -36.9846 -36.9749 -36.9673 -36.9611
   -36.9365 -36.9210 -36.9111 -36.9002 -36.8972 -36.8778 -36.8735 -36.8614
   -36.8510 -36.8453 -36.8370 -36.8180 -36.8125 -36.7774 -36.6963 -36.6745
   -16.1480 -15.5956 -15.1206 -15.0265 -14.9445 -14.7991 -14.6981 -14.4858
   -14.4541 -14.4284 -14.3704 -14.3356 -14.2929 -14.2615 -14.1854 -14.1026
   -14.0985 -14.0911 -13.9984 -13.9188 -13.8182 -13.7918 -13.7731  -8.7643
    -7.6163  -7.4062  -7.2643  -7.2323  -7.2223  -7.1754  -7.1096  -7.0500
    -6.8349  -6.7731  -6.7680  -6.6756  -6.5439  -6.5141  -6.4293  -6.3988
    -6.3181  -6.2411  -6.2009  -5.9486  -5.9281  -5.8940  -5.8407  -5.7399
    -5.7170  -5.6902  -5.6770  -5.6401  -5.6246  -5.5933  -5.5255  -5.4330
    -5.4220  -5.3719  -5.1646  -5.1212  -5.0655  -5.0195  -4.9484  -4.9349
    -4.8956  -4.8515  -4.6377  -4.5064  -4.3369  -4.3163  -4.2909  -4.2241
    -4.1654  -4.1047  -4.0034  -3.8591  -3.8006  -3.7732  -3.7374  -3.7038
    -3.6486  -3.5689  -3.5317  -3.5265  -3.4800  -3.4415  -3.4339  -3.3655
    -3.3251  -3.2343  -3.1085  -2.8982  -2.8634  -2.7908  -2.7554  -2.7483
    -2.6895  -2.6352  -2.6197  -2.5938  -2.5422  -2.2798  -2.0016  -1.9640
    -1.9158  -0.8387  -0.7655  -0.6844  -0.1517  -0.1379  -0.0750  -0.0356
     0.1307   0.1463   0.2365   0.2666   0.2888   0.3003   0.3695   0.4455
     0.4842   0.5288   0.5592   0.5740   0.6250   0.6942   0.7604   0.7807
     0.8080   0.8315   0.8657   0.8980   0.9854   1.0274   1.0581   1.3551
     1.4169

     the Fermi energy is    -0.8757 ev

!    total energy              =   -2205.53917996 Ry
     estimated scf accuracy    <       0.00000073 Ry
     smearing contrib. (-TS)   =      -0.00895054 Ry
     internal energy E=F+TS    =   -2205.53022942 Ry

     The total energy is F=E-TS. E is the sum of the following terms:
     one-electron contribution =  -18054.15491413 Ry
     hartree contribution      =    9014.04932224 Ry
     xc contribution           =    -385.33621499 Ry
     ewald contribution        =    7219.91157746 Ry

     convergence has been achieved in  15 iterations

     negative rho (up, down):  1.375E-04 0.000E+00

     Forces acting on atoms (cartesian axes, Ry/au):

     atom    1 type  1   force =     0.01567759   -0.02382206    0.00509898
     atom    2 type  2   force =    -0.01597493    0.01423890    0.00107432
     atom    3 type  2   force =    -0.00866227    0.00969386   -0.00243095
     atom    4 type  1   force =    -0.00722514    0.00189761   -0.02182835
     atom    5 type  2   force =    -0.00146950   -0.00571612   -0.00566220
     atom    6 type  2   force =     0.00202681    0.00947376    0.00088103
     atom    7 type  1   force =    -0.00172189   -0.01012831   -0.01025453
     atom    8 type  2   force =     0.00761528   -0.00571926    0.02232380
     atom    9 type  2   force =     0.01292354    0.00445119    0.01062721
     atom   10 type  1   force =    -0.01306914    0.00710124   -0.02741089
     atom   11 type  2   force =     0.00411989   -0.00120491   -0.00667267
     atom   12 type  2   force =    -0.00065002    0.00077927    0.00589226
     atom   13 type  1   force =     0.00154242    0.00470626   -0.00699902
     atom   14 type  2   force =     0.00780133   -0.00028339    0.01224956
     atom   15 type  2   force =    -0.01221867    0.00202937   -0.00848632
     atom   16 type  1   force =     0.00087953    0.01015994    0.00326489
     atom   17 type  2   force =     0.00881452    0.00091255    0.00107432
     atom   18 type  2   force =    -0.00272002   -0.00760413    0.01297067
     atom   19 type  1   force =     0.00914399   -0.00469322   -0.00571767
     atom   20 type  2   force =     0.00296319   -0.00434498    0.00063831
     atom   21 type  1   force =    -0.00633860    0.00657072   -0.00032969
     atom   22 type  2   force =    -0.00223386   -0.00080641   -0.00226129
     atom   23 type  2   force =    -0.00115602    0.00144159    0.00967257
     atom   24 type  1   force =    -0.00828705   -0.03676797   -0.05676128
     atom   25 type  2   force =     0.01812515    0.01645788    0.00904451
     atom   26 type  2   force =    -0.01497732   -0.00001347   -0.00253584
     atom   27 type  1   force =    -0.00044233    0.00181238    0.00713626
     atom   28 type  2   force =     0.00055995    0.05685091    0.03523025
     atom   29 type  2   force =     0.00190400   -0.00235997   -0.00219074
     atom   30 type  1   force =    -0.00355883    0.01026781   -0.00734486
     atom   31 type  2   force =    -0.00029120    0.00028533    0.01664902
     atom   32 type  2   force =    -0.00964157    0.00494635    0.00650520
     atom   33 type  1   force =     0.01414813   -0.00609612   -0.00936425
     atom   34 type  2   force =     0.00312783   -0.04326304   -0.01004048
     atom   35 type  2   force =    -0.00788112    0.00855847    0.01556929
     atom   36 type  3   force =     0.00714632   -0.01981201    0.01038861
     The non-local contrib.  to forces
     atom    1 type  1   force =    -0.00285406    0.03104560   -0.01099474
     atom    2 type  2   force =    -0.01382572   -0.00380101   -0.26561588
     atom    3 type  2   force =    -0.00925677   -0.00153507    0.27315778
     atom    4 type  1   force =    -0.00151400    0.00291031    0.01064266
     atom    5 type  2   force =     0.01047082   -0.03053512   -0.24795878
     atom    6 type  2   force =    -0.00199684    0.01257706    0.26317619
     atom    7 type  1   force =    -0.02341209    0.00143728   -0.02001565
     atom    8 type  2   force =     0.02029201   -0.00895619   -0.21156719
     atom    9 type  2   force =     0.00823107   -0.01139928    0.27833311
     atom   10 type  1   force =     0.00540564    0.00059805   -0.00294668
     atom   11 type  2   force =     0.01123330    0.00641576   -0.25757977
     atom   12 type  2   force =    -0.01199571   -0.01653910    0.26247846
     atom   13 type  1   force =     0.00165206    0.01647780   -0.00681537
     atom   14 type  2   force =     0.01055165   -0.01023998   -0.26189834
     atom   15 type  2   force =    -0.01341799   -0.00440090    0.26079718
     atom   16 type  1   force =    -0.00039648    0.03525331   -0.02144472
     atom   17 type  2   force =     0.00014225   -0.02682417   -0.24603538
     atom   18 type  2   force =    -0.00260196   -0.00385213    0.27268595
     atom   19 type  1   force =     0.01603339   -0.00307573   -0.01382846
     atom   20 type  2   force =     0.00064533   -0.01956236    0.26615200
     atom   21 type  1   force =     0.00177525    0.02495211    0.00723426
     atom   22 type  2   force =    -0.00733567    0.00480186   -0.25619423
     atom   23 type  2   force =     0.00632871   -0.01393358    0.26730212
     atom   24 type  1   force =     0.00401435    0.02015172   -0.01882201
     atom   25 type  2   force =     0.01469564    0.00165375   -0.25507707
     atom   26 type  2   force =    -0.00668013   -0.01350739    0.26609876
     atom   27 type  1   force =    -0.00356585    0.00465770    0.01025105
     atom   28 type  2   force =    -0.04907179    0.23116717   -0.04489291
     atom   29 type  2   force =     0.00643221    0.00545085    0.26582652
     atom   30 type  1   force =     0.00069715    0.01943626    0.01034896
     atom   31 type  2   force =    -0.01232823    0.00085507   -0.23895749
     atom   32 type  2   force =    -0.00468702   -0.01334240    0.27393229
     atom   33 type  1   force =    -0.00512250    0.00666911    0.00466735
     atom   34 type  2   force =    -0.00072165   -0.03908827   -0.27232443
     atom   35 type  2   force =    -0.00251750   -0.01171447    0.27158839
     atom   36 type  3   force =     0.00795026   -0.03636616   -0.02409220
     The ionic contribution  to forces
     atom    1 type  1   force =     0.27022945    0.06102159    5.64357962
     atom    2 type  2   force =    -0.70575863    0.28996879   39.28050206
     atom    3 type  2   force =    -0.17717334   -0.01924603  -36.09727394
     atom    4 type  1   force =    -0.35322888    0.45719988   -0.07352847
     atom    5 type  2   force =    -1.19192498    1.39109926   38.70206919
     atom    6 type  2   force =     0.30871692   -0.52774426  -38.06744848
     atom    7 type  1   force =    -2.76671554   -2.60534235    2.47079859
     atom    8 type  2   force =    -1.39228737    0.48230258   37.14949377
     atom    9 type  2   force =     0.30697879    0.00796374  -38.08580005
     atom   10 type  1   force =    -1.14288325   -0.26549028    5.65905620
     atom   11 type  2   force =    -0.60502201   -1.54304117   39.14878289
     atom   12 type  2   force =     0.42809267    0.71496928  -37.85065919
     atom   13 type  1   force =     0.56689910    0.85049594    2.82364491
     atom   14 type  2   force =     0.05272418   -0.05061113   38.53121456
     atom   15 type  2   force =     0.15420660   -0.08366050  -36.79632698
     atom   16 type  1   force =    -0.06069583    3.92580450    0.39722838
     atom   17 type  2   force =     0.95931927    1.42446916   37.90586736
     atom   18 type  2   force =    -0.13355879   -0.66804963  -38.59535256
     atom   19 type  1   force =     2.83155684   -2.30304284    0.58690021
     atom   20 type  2   force =     0.22365715   -0.17599129  -38.49505281
     atom   21 type  1   force =     0.03047887    0.07570831    1.19744650
     atom   22 type  2   force =     0.49030916   -1.66323493   38.44178370
     atom   23 type  2   force =    -0.07525583    0.68505427  -38.28319255
     atom   24 type  1   force =    -0.51854817    0.79517918    5.65267673
     atom   25 type  2   force =     0.70629989    0.18696595   39.27128472
     atom   26 type  2   force =    -0.27236519    0.03332815  -37.34053687
     atom   27 type  1   force =     0.44159176    0.31807429   -2.77028675
     atom   28 type  2   force =     0.34176828   -0.28691683   37.39712353
     atom   29 type  2   force =    -0.25767258   -0.47896184  -37.38023243
     atom   30 type  1   force =    -0.29550422   -0.47747025   -0.39095856
     atom   31 type  2   force =     1.57443855    0.22729783   37.18108598
     atom   32 type  2   force =    -0.44255912    0.03226512  -38.70164064
     atom   33 type  1   force =     0.84438570   -0.81464393    2.06792708
     atom   34 type  2   force =     0.24867569   -1.32741979   39.35265231
     atom   35 type  2   force =    -0.29765994    0.51083264  -37.82703865
     atom   36 type  3   force =    -0.09151520    0.82086657    7.89421065
     The local contribution  to forces
     atom    1 type  1   force =    -0.25167672   -0.11597530   -5.62686809
     atom    2 type  2   force =     0.70330556   -0.27198725  -39.03450026
     atom    3 type  2   force =     0.17741068    0.03056145   35.84341320
     atom    4 type  1   force =     0.34749146   -0.45822045    0.04163164
     atom    5 type  2   force =     1.18100550   -1.36808134  -38.47996831
     atom    6 type  2   force =    -0.30492727    0.52575418   37.82665859
     atom    7 type  1   force =     2.78867702    2.59415138   -2.46047815
     atom    8 type  2   force =     1.38093903   -0.48018110  -36.93382053
     atom    9 type  2   force =    -0.30204902    0.00724002   37.83977023
     atom   10 type  1   force =     1.12456937    0.27204022   -5.68277595
     atom   11 type  2   force =     0.59846753    1.53603878  -38.91851357
     atom   12 type  2   force =    -0.41785559   -0.69904967   37.61550893
     atom   13 type  1   force =    -0.56714602   -0.86238241   -2.82316863
     atom   14 type  2   force =    -0.05493374    0.06058404  -38.27780110
     atom   15 type  2   force =    -0.15376472    0.08983980   36.54827803
     atom   16 type  1   force =     0.06191881   -3.95134541   -0.37194824
     atom   17 type  2   force =    -0.95089071   -1.39825877  -37.67894374
     atom   18 type  2   force =     0.13335142    0.66469593   38.35723364
     atom   19 type  1   force =    -2.83874980    2.30171761   -0.57820717
     atom   20 type  2   force =    -0.22145177    0.19055930   38.25127158
     atom   21 type  1   force =    -0.03859308   -0.09420980   -1.20422126
     atom   22 type  2   force =    -0.48540822    1.65819614  -38.20834004
     atom   23 type  2   force =     0.06828083   -0.67091972   38.04703294
     atom   24 type  1   force =     0.50628672   -0.85250299   -5.69011830
     atom   25 type  2   force =    -0.70262327   -0.17179258  -39.02778071
     atom   26 type  2   force =     0.26400622   -0.02049597   37.09361590
     atom   27 type  1   force =    -0.43839147   -0.32086026    2.76776763
     atom   28 type  2   force =    -0.29557272    0.12733497  -37.32401511
     atom   29 type  2   force =     0.25373053    0.47185520   37.13358899
     atom   30 type  1   force =     0.29130511    0.46839950    0.37389048
     atom   31 type  2   force =    -1.56333610   -0.22809564  -36.94538339
     atom   32 type  2   force =     0.43761001   -0.01476009   38.45590235
     atom   33 type  1   force =    -0.82523595    0.80199750   -2.08120746
     atom   34 type  2   force =    -0.24524188    1.32203904  -39.11157704
     atom   35 type  2   force =     0.29237243   -0.49161588   37.59281861
     atom   36 type  3   force =     0.09071161   -0.80430713   -7.85971857
     The core correction contribution to forces
     atom    1 type  1   force =     0.00000000    0.00000000    0.00000000
     atom    2 type  2   force =     0.00036203    0.00003508    0.02048303
     atom    3 type  2   force =     0.00043976   -0.00003979   -0.02099585
     atom    4 type  1   force =     0.00000000    0.00000000    0.00000000
     atom    5 type  2   force =    -0.00097563    0.00170484    0.02002608
     atom    6 type  2   force =     0.00027145   -0.00115611   -0.02088731
     atom    7 type  1   force =     0.00000000    0.00000000    0.00000000
     atom    8 type  2   force =    -0.00128360    0.00118739    0.01801713
     atom    9 type  2   force =    -0.00018589    0.00066903   -0.02106104
     atom   10 type  1   force =     0.00000000    0.00000000    0.00000000
     atom   11 type  2   force =    -0.00054465   -0.00055616    0.02051879
     atom   12 type  2   force =     0.00111433    0.00137206   -0.02079328
     atom   13 type  1   force =     0.00000000    0.00000000    0.00000000
     atom   14 type  2   force =    -0.00056040   -0.00000555    0.02060085
     atom   15 type  2   force =     0.00072819    0.00029450   -0.02054945
     atom   16 type  1   force =     0.00000000    0.00000000    0.00000000
     atom   17 type  2   force =     0.00018368    0.00142530    0.02000368
     atom   18 type  2   force =     0.00003124   -0.00044009   -0.02098078
     atom   19 type  1   force =     0.00000000    0.00000000    0.00000000
     atom   20 type  2   force =     0.00008831    0.00072023   -0.02121140
     atom   21 type  1   force =     0.00000000    0.00000000    0.00000000
     atom   22 type  2   force =     0.00020749   -0.00052275    0.02038248
     atom   23 type  2   force =    -0.00052171    0.00120502   -0.02085977
     atom   24 type  1   force =     0.00000000    0.00000000    0.00000000
     atom   25 type  2   force =    -0.00028723   -0.00035379    0.02038406
     atom   26 type  2   force =     0.00002472    0.00072250   -0.02096388
     atom   27 type  1   force =     0.00000000    0.00000000    0.00000000
     atom   28 type  2   force =     0.00344537   -0.01482827    0.00681555
     atom   29 type  2   force =    -0.00055818   -0.00074203   -0.02075019
     atom   30 type  1   force =     0.00000000    0.00000000    0.00000000
     atom   31 type  2   force =     0.00089591    0.00028200    0.01968326
     atom   32 type  2   force =    -0.00003502    0.00079336   -0.02103412
     atom   33 type  1   force =     0.00000000    0.00000000    0.00000000
     atom   34 type  2   force =     0.00038272    0.00125946    0.02105811
     atom   35 type  2   force =    -0.00007594    0.00101730   -0.02111411
     atom   36 type  3   force =     0.00000000    0.00000000    0.00000000
     The Hubbard contrib.    to forces
     atom    1 type  1   force =     0.00000000    0.00000000    0.00000000
     atom    2 type  2   force =     0.00000000    0.00000000    0.00000000
     atom    3 type  2   force =     0.00000000    0.00000000    0.00000000
     atom    4 type  1   force =     0.00000000    0.00000000    0.00000000
     atom    5 type  2   force =     0.00000000    0.00000000    0.00000000
     atom    6 type  2   force =     0.00000000    0.00000000    0.00000000
     atom    7 type  1   force =     0.00000000    0.00000000    0.00000000
     atom    8 type  2   force =     0.00000000    0.00000000    0.00000000
     atom    9 type  2   force =     0.00000000    0.00000000    0.00000000
     atom   10 type  1   force =     0.00000000    0.00000000    0.00000000
     atom   11 type  2   force =     0.00000000    0.00000000    0.00000000
     atom   12 type  2   force =     0.00000000    0.00000000    0.00000000
     atom   13 type  1   force =     0.00000000    0.00000000    0.00000000
     atom   14 type  2   force =     0.00000000    0.00000000    0.00000000
     atom   15 type  2   force =     0.00000000    0.00000000    0.00000000
     atom   16 type  1   force =     0.00000000    0.00000000    0.00000000
     atom   17 type  2   force =     0.00000000    0.00000000    0.00000000
     atom   18 type  2   force =     0.00000000    0.00000000    0.00000000
     atom   19 type  1   force =     0.00000000    0.00000000    0.00000000
     atom   20 type  2   force =     0.00000000    0.00000000    0.00000000
     atom   21 type  1   force =     0.00000000    0.00000000    0.00000000
     atom   22 type  2   force =     0.00000000    0.00000000    0.00000000
     atom   23 type  2   force =     0.00000000    0.00000000    0.00000000
     atom   24 type  1   force =     0.00000000    0.00000000    0.00000000
     atom   25 type  2   force =     0.00000000    0.00000000    0.00000000
     atom   26 type  2   force =     0.00000000    0.00000000    0.00000000
     atom   27 type  1   force =     0.00000000    0.00000000    0.00000000
     atom   28 type  2   force =     0.00000000    0.00000000    0.00000000
     atom   29 type  2   force =     0.00000000    0.00000000    0.00000000
     atom   30 type  1   force =     0.00000000    0.00000000    0.00000000
     atom   31 type  2   force =     0.00000000    0.00000000    0.00000000
     atom   32 type  2   force =     0.00000000    0.00000000    0.00000000
     atom   33 type  1   force =     0.00000000    0.00000000    0.00000000
     atom   34 type  2   force =     0.00000000    0.00000000    0.00000000
     atom   35 type  2   force =     0.00000000    0.00000000    0.00000000
     atom   36 type  3   force =     0.00000000    0.00000000    0.00000000
     The SCF correction term to forces
     atom    1 type  1   force =    -0.00002096    0.00008185   -0.00059989
     atom    2 type  2   force =    -0.00005805    0.00001910    0.00022329
     atom    3 type  2   force =    -0.00008248   -0.00005089   -0.00071421
     atom    4 type  1   force =     0.00002640    0.00000368   -0.00055625
     atom    5 type  2   force =    -0.00004510    0.00009206    0.00018754
     atom    6 type  2   force =    -0.00003734    0.00003870   -0.00060003
     atom    7 type  1   force =    -0.00027117   -0.00037882   -0.00054140
     atom    8 type  2   force =    -0.00004467   -0.00007613    0.00021853
     atom    9 type  2   force =    -0.00005130   -0.00002652   -0.00059712
     atom   10 type  1   force =    -0.00016078   -0.00005094   -0.00072654
     atom   11 type  2   force =    -0.00001416   -0.00006631    0.00013692
     atom   12 type  2   force =    -0.00000559    0.00002251   -0.00062473
     atom   13 type  1   force =     0.00013740    0.00011073   -0.00064202
     atom   14 type  2   force =     0.00001977   -0.00001498    0.00015150
     atom   15 type  2   force =     0.00002937   -0.00004772   -0.00066718
     atom   16 type  1   force =     0.00005316    0.00044334   -0.00055261
     atom   17 type  2   force =     0.00006015    0.00009683    0.00020032
     atom   18 type  2   force =     0.00005821    0.00003759   -0.00059766
     atom   19 type  1   force =     0.00030369   -0.00029645   -0.00056433
     atom   20 type  2   force =     0.00002429   -0.00007505   -0.00050315
     atom   21 type  1   force =     0.00000048    0.00011590   -0.00077127
     atom   22 type  2   force =    -0.00000651   -0.00005093    0.00012471
     atom   23 type  2   force =     0.00001210    0.00003141   -0.00059225
     atom   24 type  1   force =    -0.00003983    0.00039992   -0.00047977
     atom   25 type  2   force =     0.00004025   -0.00001965    0.00025144
     atom   26 type  2   force =     0.00003717   -0.00006496   -0.00073183
     atom   27 type  1   force =    -0.00007665   -0.00006355   -0.00057775
     atom   28 type  2   force =    -0.00000907    0.00008967    0.00021711
     atom   29 type  2   force =    -0.00002787    0.00003365   -0.00060571
     atom   30 type  1   force =    -0.00005675   -0.00010190   -0.00060782
     atom   31 type  2   force =     0.00003879   -0.00005814    0.00023859
     atom   32 type  2   force =     0.00002970   -0.00001385   -0.00063675
     atom   33 type  1   force =     0.00012100   -0.00012300   -0.00073330
     atom   34 type  2   force =     0.00003307   -0.00005767    0.00016850
     atom   35 type  2   force =    -0.00000005    0.00003469   -0.00066703
     atom   36 type  3   force =    -0.00000024   -0.00000948    0.00000665

     Total force =     0.139911     Total SCF correction =     0.003285

     BFGS Geometry Optimization
     Energy error            =      0.0E+00 Ry
     Gradient error          =      5.7E-02 Ry/Bohr

     number of scf cycles    =   1
     number of bfgs steps    =   0

     energy             new  =   -2205.5391799644 Ry

     new trust radius        =       0.0681351722 bohr
     new conv_thr            =       0.0000010000 Ry


ATOMIC_POSITIONS (angstrom)
Mo            6.5828446317        1.7752001372        2.8263412950
S             8.1682557699        0.8172389248        4.4351068557
S             8.1886492100        0.8163715143        1.2765970230
Mo            8.0913391875        4.4960611154        2.7062673272
S             6.4991316299        3.7193866495        4.3436643395
S             6.5544223425        3.5167508538        1.1217464505
Mo            6.4890705095        7.2130776119        2.6664580202
S             8.0857575612        6.3408444903        4.2542748071
S             8.0877564897        6.3070577823        1.0894866735
Mo            8.1537031579        9.9059382295        2.8289565444
S             6.4973477456        8.9422892033        4.3795745087
S             6.6176032234        9.0491235859        1.1430253530
Mo            3.4224758783        1.7494462964        2.7727674392
S             4.9792937788        0.8167912431        4.3570152800
S             5.0513679116        0.8473360058        1.2221676945
Mo            4.9802221111        4.5185544091        2.6346122536
S             3.4325061066        3.6720825842        4.2802780850
S             3.4364812101        3.5442047652        1.0652154648
Mo            3.4587005321        7.2138409949        2.6276511986
S             4.9848022462        6.3246330220        1.0375915084
Mo            5.0089096781        9.9050771259        2.7432264973
S             3.4697760094        8.9433245368        4.3243946863
S             3.4078174286        9.0657528421        1.1011868018
Mo            0.2917051704        1.7280527591        2.8194079332
S             1.8600536301        0.8014031402        4.4029955889
S             1.8528743783        0.8544187875        1.2080589480
Mo            1.8604572398        4.4966258321        2.6639737265
S             0.2725101596        3.6844830301        4.3562271438
S             0.2322387616        3.5260003835        1.1708585926
Mo            0.2692688970        7.2220795857        2.6978096953
S             1.9020841515        6.3129498226        4.2312544050
S             1.8571361130        6.3129613057        1.0480016873
Mo            1.8518335300        9.9369132284        2.7679909036
S             0.2975680744        9.0671040126        4.4085562712
S             0.2726008894        9.0480546629        1.1586396926
H             9.4605416671        4.8468048252        5.1193668813



     Writing config-only to output data dir ./MoS2-V-O.save/
     NEW-OLD atomic charge density approx. for the potential

     negative rho (up, down):  1.446E-04 0.000E+00

     total cpu time spent up to now is       90.5 secs

     Self-consistent Calculation

     iteration #  1     ecut=    80.00 Ry     beta= 0.70
     Davidson diagonalization with overlap
     ethr =  1.00E-06,  avg # of iterations = 10.0

     negative rho (up, down):  1.397E-04 0.000E+00

     total cpu time spent up to now is      104.2 secs

     total energy              =   -2205.55403792 Ry
     estimated scf accuracy    <       0.00210430 Ry

     iteration #  2     ecut=    80.00 Ry     beta= 0.70
     Davidson diagonalization with overlap
     ethr =  6.85E-07,  avg # of iterations =  2.0

     negative rho (up, down):  1.366E-04 0.000E+00

     total cpu time spent up to now is      117.0 secs

     total energy              =   -2205.55408557 Ry
     estimated scf accuracy    <       0.00053260 Ry

     iteration #  3     ecut=    80.00 Ry     beta= 0.70
     Davidson diagonalization with overlap
     ethr =  1.73E-07,  avg # of iterations =  6.0

     negative rho (up, down):  1.387E-04 0.000E+00

     total cpu time spent up to now is      133.1 secs

     total energy              =   -2205.55411762 Ry
     estimated scf accuracy    <       0.00026806 Ry

     iteration #  4     ecut=    80.00 Ry     beta= 0.70
     Davidson diagonalization with overlap
     ethr =  8.73E-08,  avg # of iterations =  2.0

     negative rho (up, down):  1.363E-04 0.000E+00

     total cpu time spent up to now is      150.8 secs

     total energy              =   -2205.55413891 Ry
     estimated scf accuracy    <       0.00002025 Ry

     iteration #  5     ecut=    80.00 Ry     beta= 0.70
     Davidson diagonalization with overlap
     ethr =  6.60E-09,  avg # of iterations =  9.0

     negative rho (up, down):  1.317E-04 0.000E+00

     total cpu time spent up to now is      164.0 secs

     total energy              =   -2205.55414678 Ry
     estimated scf accuracy    <       0.00000637 Ry

     iteration #  6     ecut=    80.00 Ry     beta= 0.70
     Davidson diagonalization with overlap
     ethr =  2.08E-09,  avg # of iterations =  3.0

     negative rho (up, down):  1.248E-04 0.000E+00

     total cpu time spent up to now is      179.4 secs

     total energy              =   -2205.55414711 Ry
     estimated scf accuracy    <       0.00000157 Ry

     iteration #  7     ecut=    80.00 Ry     beta= 0.70
     Davidson diagonalization with overlap
     ethr =  5.12E-10,  avg # of iterations =  5.0

     negative rho (up, down):  1.380E-04 0.000E+00

     total cpu time spent up to now is      181.5 secs

     End of self-consistent calculation

          k = 0.0000 0.0000 0.0000 (105382 PWs)   bands (ev):

   -62.8596 -62.8378 -62.8339 -62.8113 -62.8010 -62.7923 -62.7775 -62.7643
   -62.7586 -62.7503 -62.7328 -62.6933 -37.1928 -37.1296 -37.1239 -37.1096
   -37.0882 -37.0688 -37.0574 -37.0425 -37.0395 -37.0322 -37.0269 -37.0115
   -37.0068 -36.9941 -36.9837 -36.9815 -36.9773 -36.9638 -36.9621 -36.9538
   -36.9375 -36.9247 -36.9113 -36.9015 -36.8976 -36.8828 -36.8690 -36.8638
   -36.8559 -36.8449 -36.8343 -36.8150 -36.8094 -36.7710 -36.7027 -36.6800
   -16.1580 -15.6145 -15.1224 -15.0171 -14.9440 -14.8063 -14.6853 -14.4838
   -14.4563 -14.4121 -14.3742 -14.3289 -14.2897 -14.2700 -14.1865 -14.1022
   -14.1003 -14.0921 -14.0001 -13.9018 -13.8296 -13.8007 -13.7707  -8.7785
    -7.6127  -7.4064  -7.2671  -7.2188  -7.2138  -7.1707  -7.1076  -7.0620
    -6.8241  -6.7729  -6.7607  -6.6743  -6.5543  -6.5207  -6.4211  -6.3828
    -6.3229  -6.2388  -6.2000  -5.9326  -5.9172  -5.8795  -5.8371  -5.7376
    -5.7196  -5.6924  -5.6659  -5.6441  -5.6345  -5.5969  -5.5200  -5.4318
    -5.3972  -5.3447  -5.1341  -5.1165  -5.0623  -5.0133  -4.9419  -4.9323
    -4.9001  -4.8592  -4.6370  -4.5160  -4.3494  -4.3071  -4.2835  -4.2250
    -4.1800  -4.1167  -4.0244  -3.8581  -3.8004  -3.7685  -3.7363  -3.6988
    -3.6651  -3.5588  -3.5323  -3.5091  -3.4814  -3.4498  -3.4358  -3.3724
    -3.3252  -3.2390  -3.1166  -2.8885  -2.8618  -2.7867  -2.7451  -2.7365
    -2.6820  -2.6361  -2.6294  -2.5968  -2.5409  -2.2796  -2.0082  -1.9682
    -1.9334  -0.8457  -0.7616  -0.6886  -0.1542  -0.1317  -0.0618  -0.0358
     0.1189   0.1484   0.2419   0.2806   0.3090   0.3283   0.3909   0.4520
     0.4844   0.5471   0.5630   0.5756   0.6306   0.6986   0.7468   0.7864
     0.8081   0.8317   0.8719   0.9156   1.0004   1.0194   1.0562   1.3664
     1.4339

     the Fermi energy is    -0.8790 ev

!    total energy              =   -2205.55414702 Ry
     estimated scf accuracy    <       0.00000058 Ry
     smearing contrib. (-TS)   =      -0.00879085 Ry
     internal energy E=F+TS    =   -2205.54535616 Ry

     The total energy is F=E-TS. E is the sum of the following terms:
     one-electron contribution =  -18052.92423914 Ry
     hartree contribution      =    9013.43261660 Ry
     xc contribution           =    -385.34493480 Ry
     ewald contribution        =    7219.29120119 Ry

     convergence has been achieved in   7 iterations

     negative rho (up, down):  1.380E-04 0.000E+00

     Forces acting on atoms (cartesian axes, Ry/au):

     atom    1 type  1   force =     0.00551128   -0.01251967    0.00108875
     atom    2 type  2   force =    -0.00829071    0.00889319   -0.00294484
     atom    3 type  2   force =    -0.01160550    0.00429863   -0.01289103
     atom    4 type  1   force =    -0.00141812    0.00522377   -0.00492247
     atom    5 type  2   force =     0.00034160   -0.00546122   -0.00762607
     atom    6 type  2   force =    -0.00056588    0.00426231   -0.00034370
     atom    7 type  1   force =     0.00213372   -0.00822662   -0.00142021
     atom    8 type  2   force =     0.00201645   -0.00370142    0.01056298
     atom    9 type  2   force =     0.01058922    0.00506311    0.00468205
     atom   10 type  1   force =    -0.00624036    0.00615381   -0.00964756
     atom   11 type  2   force =     0.00305651   -0.00132273   -0.00929920
     atom   12 type  2   force =    -0.00329078    0.00033009    0.00152282
     atom   13 type  1   force =     0.00114082    0.00254408   -0.00132926
     atom   14 type  2   force =     0.00557348    0.00002728    0.00782400
     atom   15 type  2   force =    -0.00863336    0.00169642   -0.00685477
     atom   16 type  1   force =     0.00075139    0.00686606    0.00486840
     atom   17 type  2   force =     0.00749490    0.00099594    0.00048784
     atom   18 type  2   force =    -0.00221953   -0.00498702    0.00967377
     atom   19 type  1   force =     0.00442531   -0.00526830   -0.00008607
     atom   20 type  2   force =     0.00245014   -0.00377378   -0.00360500
     atom   21 type  1   force =    -0.00415205    0.00340276    0.00211710
     atom   22 type  2   force =    -0.00088605   -0.00121563   -0.00286583
     atom   23 type  2   force =     0.00028323    0.00035984    0.00495304
     atom   24 type  1   force =    -0.00452816   -0.01763966   -0.02594149
     atom   25 type  2   force =     0.01101058    0.01304918   -0.00004542
     atom   26 type  2   force =    -0.00764199   -0.00343306   -0.00780330
     atom   27 type  1   force =     0.00099079    0.00428836    0.00881052
     atom   28 type  2   force =     0.00007198    0.02565459    0.01712891
     atom   29 type  2   force =     0.00222682   -0.00232160   -0.00327135
     atom   30 type  1   force =    -0.00205074    0.00206963    0.00205386
     atom   31 type  2   force =     0.00145906    0.00247479    0.00945709
     atom   32 type  2   force =    -0.00760532    0.00423671    0.00497095
     atom   33 type  1   force =     0.00742591   -0.00217525    0.00064602
     atom   34 type  2   force =     0.00023166   -0.03174193   -0.01498251
     atom   35 type  2   force =    -0.00587062    0.00868803    0.00787212
     atom   36 type  3   force =     0.00581431   -0.00679071    0.01715987
     The non-local contrib.  to forces
     atom    1 type  1   force =     0.00005241    0.02741701   -0.01230565
     atom    2 type  2   force =    -0.01074143   -0.00892012   -0.26520204
     atom    3 type  2   force =    -0.00981380   -0.00670347    0.26435805
     atom    4 type  1   force =    -0.00185718    0.00275344    0.00936464
     atom    5 type  2   force =     0.01148035   -0.03061323   -0.24877248
     atom    6 type  2   force =    -0.00438535    0.00841385    0.26372287
     atom    7 type  1   force =    -0.02322348    0.00191308   -0.02198831
     atom    8 type  2   force =     0.01419006   -0.00152211   -0.22112393
     atom    9 type  2   force =     0.00517562   -0.01106738    0.27545086
     atom   10 type  1   force =     0.00392325    0.00141121   -0.00431555
     atom   11 type  2   force =     0.00931638    0.00519727   -0.25957741
     atom   12 type  2   force =    -0.01370561   -0.01741666    0.26060524
     atom   13 type  1   force =     0.00153555    0.01727837   -0.00767613
     atom   14 type  2   force =     0.00906655   -0.01012292   -0.26435316
     atom   15 type  2   force =    -0.01076493   -0.00493513    0.26102524
     atom   16 type  1   force =    -0.00075010    0.03552173   -0.02409049
     atom   17 type  2   force =    -0.00089807   -0.02566770   -0.24632959
     atom   18 type  2   force =    -0.00145119   -0.00175058    0.27153222
     atom   19 type  1   force =     0.01664416   -0.00123087   -0.01565691
     atom   20 type  2   force =     0.00016243   -0.01866163    0.26312093
     atom   21 type  1   force =     0.00098399    0.02669787    0.00587463
     atom   22 type  2   force =    -0.00546673    0.00348528   -0.25663796
     atom   23 type  2   force =     0.00763400   -0.01548850    0.26447214
     atom   24 type  1   force =     0.00252384    0.01593431   -0.01710136
     atom   25 type  2   force =     0.01137384   -0.00269792   -0.25981945
     atom   26 type  2   force =    -0.00149845   -0.01537769    0.26274491
     atom   27 type  1   force =    -0.00441244    0.00355066    0.00788066
     atom   28 type  2   force =    -0.04944449    0.22417319   -0.06154842
     atom   29 type  2   force =     0.00578903    0.00256301    0.26748154
     atom   30 type  1   force =     0.00039989    0.02044380    0.00932014
     atom   31 type  2   force =    -0.01110736    0.00405354   -0.24505957
     atom   32 type  2   force =    -0.00165835   -0.01310493    0.27408249
     atom   33 type  1   force =    -0.00361138    0.00601595    0.00245784
     atom   34 type  2   force =    -0.00286673   -0.02998777   -0.27634040
     atom   35 type  2   force =    -0.00135496   -0.01142337    0.26720990
     atom   36 type  3   force =     0.00944446   -0.04115211   -0.02762023
     The ionic contribution  to forces
     atom    1 type  1   force =     0.01717490    0.42155995    5.85633751
     atom    2 type  2   force =    -0.44413999    0.27263117   39.38014493
     atom    3 type  2   force =    -0.28608573   -0.01603256  -36.25791738
     atom    4 type  1   force =    -0.15388528    0.26355821   -0.36979557
     atom    5 type  2   force =    -1.12835352    1.35842456   38.62862667
     atom    6 type  2   force =     0.21048221   -0.61475599  -37.99437543
     atom    7 type  1   force =    -2.67050526   -2.49924802    2.43204304
     atom    8 type  2   force =    -1.41457450    0.46586004   37.24301909
     atom    9 type  2   force =     0.31901900    0.01440354  -38.05572127
     atom   10 type  1   force =    -0.94556511   -0.36120928    5.41737559
     atom   11 type  2   force =    -0.56322727   -1.56155833   39.11385065
     atom   12 type  2   force =     0.34184625    0.66084425  -37.83373860
     atom   13 type  1   force =     0.52187795    0.88935500    2.84120217
     atom   14 type  2   force =    -0.01894970   -0.00514778   38.61279509
     atom   15 type  2   force =     0.16530054   -0.01676227  -36.82046782
     atom   16 type  1   force =    -0.07779875    3.69740861    0.58447147
     atom   17 type  2   force =     0.91748179    1.36712133   37.90740081
     atom   18 type  2   force =    -0.12810032   -0.61531786  -38.49396565
     atom   19 type  1   force =     2.69327515   -2.33627287    0.55475580
     atom   20 type  2   force =     0.18371699   -0.19502058  -38.56539205
     atom   21 type  1   force =     0.04117493    0.04210618    1.35085819
     atom   22 type  2   force =     0.48310762   -1.66732798   38.48099766
     atom   23 type  2   force =    -0.05069848    0.64324489  -38.27339518
     atom   24 type  1   force =    -0.31542497    1.29299966    4.90550084
     atom   25 type  2   force =     0.51465303    0.23897523   39.27243888
     atom   26 type  2   force =    -0.10494708    0.02300717  -37.36231335
     atom   27 type  1   force =     0.30628998    0.16503995   -2.44849791
     atom   28 type  2   force =     0.32563411   -0.71645662   37.32828011
     atom   29 type  2   force =    -0.18797926   -0.38440462  -37.28215852
     atom   30 type  1   force =    -0.24133110   -0.65215700   -0.42609908
     atom   31 type  2   force =     1.57807807    0.25546308   37.22466993
     atom   32 type  2   force =    -0.41547369   -0.01712694  -38.63523082
     atom   33 type  1   force =     0.69743109   -0.67024879    2.22301930
     atom   34 type  2   force =     0.19160685   -1.11006233   39.27738618
     atom   35 type  2   force =    -0.24127015    0.48598406  -37.75822649
     atom   36 type  3   force =    -0.11984028    0.88112296    7.94212120
     The local contribution  to forces
     atom    1 type  1   force =    -0.01123942   -0.46241535   -5.84355204
     atom    2 type  2   force =     0.44611257   -0.25510004  -39.13880766
     atom    3 type  2   force =     0.28402848    0.02675463   36.00143700
     atom    4 type  1   force =     0.15435936   -0.26124348    0.35469045
     atom    5 type  2   force =     1.11828310   -1.33519752  -38.40765604
     atom    6 type  2   force =    -0.20681137    0.61146381   37.75079761
     atom    7 type  1   force =     2.69589464    2.48959490   -2.41230822
     atom    8 type  2   force =     1.40343765   -0.46875554  -37.02991740
     atom    9 type  2   force =    -0.31356732    0.00116054   37.80569825
     atom   10 type  1   force =     0.93537768    0.36645699   -5.42374073
     atom   11 type  2   force =     0.55740912    1.55578418  -38.88443709
     atom   12 type  2   force =    -0.33247140   -0.64424847   37.59519015
     atom   13 type  1   force =    -0.52245454   -0.90473077   -2.83557806
     atom   14 type  2   force =     0.01607563    0.01512893  -38.36160108
     atom   15 type  2   force =    -0.16378519    0.02286359   36.57289212
     atom   16 type  1   force =     0.07935060   -3.72614285   -0.55627235
     atom   17 type  2   force =    -0.90940026   -1.34202107  -37.68074694
     atom   18 type  2   force =     0.12727972    0.61232348   38.25269488
     atom   19 type  1   force =    -2.70547778    2.33283721   -0.53996976
     atom   20 type  2   force =    -0.18149250    0.20941906   38.31949426
     atom   21 type  1   force =    -0.04625778   -0.06505084   -1.35541545
     atom   22 type  2   force =    -0.47867912    1.66333786  -38.24795887
     atom   23 type  2   force =     0.04387872   -0.62845401   38.03449206
     atom   24 type  1   force =     0.30815412   -1.32756004   -4.91565173
     atom   25 type  2   force =    -0.51475145   -0.22319892  -39.03341417
     atom   26 type  2   force =     0.09869456   -0.01193859   37.11249984
     atom   27 type  1   force =    -0.30094231   -0.16450075    2.44870407
     atom   28 type  2   force =    -0.27962560    0.53285159  -37.25657512
     atom   29 type  2   force =     0.18482711    0.37975936   37.03189617
     atom   30 type  1   force =     0.23880247    0.63443329    0.41807161
     atom   31 type  2   force =    -1.56637566   -0.25713815  -36.99022225
     atom   32 type  2   force =     0.40965959    0.03386818   38.38684396
     atom   33 type  1   force =    -0.68645992    0.66232892   -2.22570030
     atom   34 type  2   force =    -0.18890281    1.10741090  -39.03750656
     atom   35 type  2   force =     0.23678806   -0.46668025   37.51970299
     atom   36 type  3   force =     0.11621881   -0.84680431   -7.89739128
     The core correction contribution to forces
     atom    1 type  1   force =     0.00000000    0.00000000    0.00000000
     atom    2 type  2   force =     0.00039388    0.00023257    0.02051459
     atom    3 type  2   force =     0.00034873    0.00017751   -0.02079584
     atom    4 type  1   force =     0.00000000    0.00000000    0.00000000
     atom    5 type  2   force =    -0.00097814    0.00168666    0.02001417
     atom    6 type  2   force =     0.00028748   -0.00104934   -0.02087799
     atom    7 type  1   force =     0.00000000    0.00000000    0.00000000
     atom    8 type  2   force =    -0.00099195    0.00080690    0.01835811
     atom    9 type  2   force =    -0.00001758    0.00067483   -0.02102146
     atom   10 type  1   force =     0.00000000    0.00000000    0.00000000
     atom   11 type  2   force =    -0.00040497   -0.00051442    0.02057382
     atom   12 type  2   force =     0.00111497    0.00138633   -0.02074215
     atom   13 type  1   force =     0.00000000    0.00000000    0.00000000
     atom   14 type  2   force =    -0.00054638    0.00002252    0.02069242
     atom   15 type  2   force =     0.00064120    0.00036021   -0.02054812
     atom   16 type  1   force =     0.00000000    0.00000000    0.00000000
     atom   17 type  2   force =     0.00022706    0.00133512    0.02001928
     atom   18 type  2   force =    -0.00001220   -0.00049202   -0.02095977
     atom   19 type  1   force =     0.00000000    0.00000000    0.00000000
     atom   20 type  2   force =     0.00009557    0.00066702   -0.02115238
     atom   21 type  1   force =     0.00000000    0.00000000    0.00000000
     atom   22 type  2   force =     0.00011348   -0.00048626    0.02042682
     atom   23 type  2   force =    -0.00055120    0.00125962   -0.02081085
     atom   24 type  1   force =     0.00000000    0.00000000    0.00000000
     atom   25 type  2   force =    -0.00024527   -0.00011455    0.02050798
     atom   26 type  2   force =    -0.00007094    0.00076750   -0.02087981
     atom   27 type  1   force =     0.00000000    0.00000000    0.00000000
     atom   28 type  2   force =     0.00347863   -0.01495643    0.00705643
     atom   29 type  2   force =    -0.00046629   -0.00053126   -0.02081945
     atom   30 type  1   force =     0.00000000    0.00000000    0.00000000
     atom   31 type  2   force =     0.00082682    0.00019243    0.01985845
     atom   32 type  2   force =    -0.00017519    0.00074527   -0.02103957
     atom   33 type  1   force =     0.00000000    0.00000000    0.00000000
     atom   34 type  2   force =     0.00041901    0.00098169    0.02117741
     atom   35 type  2   force =    -0.00009600    0.00102329   -0.02097910
     atom   36 type  3   force =     0.00000000    0.00000000    0.00000000
     The Hubbard contrib.    to forces
     atom    1 type  1   force =     0.00000000    0.00000000    0.00000000
     atom    2 type  2   force =     0.00000000    0.00000000    0.00000000
     atom    3 type  2   force =     0.00000000    0.00000000    0.00000000
     atom    4 type  1   force =     0.00000000    0.00000000    0.00000000
     atom    5 type  2   force =     0.00000000    0.00000000    0.00000000
     atom    6 type  2   force =     0.00000000    0.00000000    0.00000000
     atom    7 type  1   force =     0.00000000    0.00000000    0.00000000
     atom    8 type  2   force =     0.00000000    0.00000000    0.00000000
     atom    9 type  2   force =     0.00000000    0.00000000    0.00000000
     atom   10 type  1   force =     0.00000000    0.00000000    0.00000000
     atom   11 type  2   force =     0.00000000    0.00000000    0.00000000
     atom   12 type  2   force =     0.00000000    0.00000000    0.00000000
     atom   13 type  1   force =     0.00000000    0.00000000    0.00000000
     atom   14 type  2   force =     0.00000000    0.00000000    0.00000000
     atom   15 type  2   force =     0.00000000    0.00000000    0.00000000
     atom   16 type  1   force =     0.00000000    0.00000000    0.00000000
     atom   17 type  2   force =     0.00000000    0.00000000    0.00000000
     atom   18 type  2   force =     0.00000000    0.00000000    0.00000000
     atom   19 type  1   force =     0.00000000    0.00000000    0.00000000
     atom   20 type  2   force =     0.00000000    0.00000000    0.00000000
     atom   21 type  1   force =     0.00000000    0.00000000    0.00000000
     atom   22 type  2   force =     0.00000000    0.00000000    0.00000000
     atom   23 type  2   force =     0.00000000    0.00000000    0.00000000
     atom   24 type  1   force =     0.00000000    0.00000000    0.00000000
     atom   25 type  2   force =     0.00000000    0.00000000    0.00000000
     atom   26 type  2   force =     0.00000000    0.00000000    0.00000000
     atom   27 type  1   force =     0.00000000    0.00000000    0.00000000
     atom   28 type  2   force =     0.00000000    0.00000000    0.00000000
     atom   29 type  2   force =     0.00000000    0.00000000    0.00000000
     atom   30 type  1   force =     0.00000000    0.00000000    0.00000000
     atom   31 type  2   force =     0.00000000    0.00000000    0.00000000
     atom   32 type  2   force =     0.00000000    0.00000000    0.00000000
     atom   33 type  1   force =     0.00000000    0.00000000    0.00000000
     atom   34 type  2   force =     0.00000000    0.00000000    0.00000000
     atom   35 type  2   force =     0.00000000    0.00000000    0.00000000
     atom   36 type  3   force =     0.00000000    0.00000000    0.00000000
     The SCF correction term to forces
     atom    1 type  1   force =    -0.00047620    0.00091546    0.00059516
     atom    2 type  2   force =     0.00008467    0.00004636    0.00039157
     atom    3 type  2   force =    -0.00008276    0.00009927    0.00001338
     atom    4 type  1   force =    -0.00003461    0.00015235    0.00080426
     atom    5 type  2   force =    -0.00008977    0.00023506    0.00014785
     atom    6 type  2   force =    -0.00013844    0.00018674    0.00037548
     atom    7 type  1   force =    -0.00003176   -0.00048982    0.00081952
     atom    8 type  2   force =    -0.00004439   -0.00009396    0.00021335
     atom    9 type  2   force =    -0.00002009   -0.00011166    0.00026190
     atom   10 type  1   force =     0.00002423   -0.00050836    0.00101937
     atom   11 type  2   force =    -0.00003635   -0.00023467    0.00027706
     atom   12 type  2   force =    -0.00007458   -0.00023861    0.00019441
     atom   13 type  1   force =     0.00018227    0.00063823    0.00070900
     atom   14 type  2   force =    -0.00007220    0.00014328    0.00027697
     atom   15 type  2   force =    -0.00002457    0.00016677    0.00023005
     atom   16 type  1   force =    -0.00004995    0.00007531    0.00074601
     atom   17 type  2   force =     0.00008479    0.00022501    0.00013053
     atom   18 type  2   force =     0.00006488    0.00024672    0.00035833
     atom   19 type  1   force =    -0.00001581   -0.00060502    0.00077103
     atom   20 type  2   force =    -0.00003194   -0.00018090    0.00031047
     atom   21 type  1   force =    -0.00005277   -0.00035369    0.00078597
     atom   22 type  2   force =     0.00003912   -0.00022778    0.00029275
     atom   23 type  2   force =     0.00002059   -0.00020541    0.00018111
     atom   24 type  1   force =     0.00021926    0.00098316    0.00129700
     atom   25 type  2   force =    -0.00001915    0.00008210    0.00022759
     atom   26 type  2   force =     0.00018032    0.00010531    0.00013134
     atom   27 type  1   force =     0.00005597    0.00019525    0.00070993
     atom   28 type  2   force =     0.00002974    0.00003961   -0.00009785
     atom   29 type  2   force =     0.00005665    0.00028866    0.00031515
     atom   30 type  1   force =     0.00007840   -0.00065370    0.00074742
     atom   31 type  2   force =     0.00003761   -0.00009935    0.00019676
     atom   32 type  2   force =     0.00004273   -0.00014812    0.00030113
     atom   33 type  1   force =     0.00006653   -0.00027457    0.00085540
     atom   34 type  2   force =    -0.00002424   -0.00008768    0.00028710
     atom   35 type  2   force =     0.00006285   -0.00021895    0.00015104
     atom   36 type  3   force =    -0.00000826    0.00003951    0.00003641

     Total force =     0.081500     Total SCF correction =     0.003852
     Energy error            =      1.5E-02 Ry
     Gradient error          =      3.2E-02 Ry/Bohr

     number of scf cycles    =   2
     number of bfgs steps    =   1

     energy             old  =   -2205.5391799644 Ry
     energy             new  =   -2205.5541470172 Ry

     CASE: energy            _new < energy            _old

     new trust radius        =       0.0749486894 bohr
     new conv_thr            =       0.0000000317 Ry


ATOMIC_POSITIONS (angstrom)
Mo            6.5901685215        1.7600264707        2.8280365977
S             8.1581827731        0.8276843544        4.4323665923
S             8.1762492496        0.8217693804        1.2637160677
Mo            8.0890585820        4.5013940668        2.6987545624
S             6.4992825738        3.7133480376        4.3355199340
S             6.5541217248        3.5220859612        1.1215204225
Mo            6.4909388988        7.2037928360        2.6637993606
S             8.0886704581        6.3365227194        4.2673531470
S             8.0996936636        6.3125509158        1.0953745320
Mo            8.1459915791        9.9128246011        2.8161400693
S             6.5008416862        8.9408489161        4.3696720152
S             6.6143113632        9.0495424193        1.1452426976
Mo            3.4237805526        1.7525129856        2.7706016081
S             4.9857007607        0.8167826846        4.3661704604
S             5.0414267761        0.8492432774        1.2144254003
Mo            4.9810644988        4.5265154510        2.6397681368
S             3.4409137879        3.6731677006        4.2808874705
S             3.4339777575        3.5383945420        1.0762651830
Mo            3.4641537684        7.2081175979        2.6268575218
S             4.9875609147        6.3204112178        1.0341529338
Mo            5.0040713049        9.9092131498        2.7452514722
S             3.4686341182        8.9420382193        4.3213174968
S             3.4079503221        9.0662829088        1.1072206113
Mo            0.2862579367        1.7062760847        2.7870486408
S             1.8730475985        0.8161794567        4.4040738828
S             1.8435582264        0.8510670958        1.2001296383
Mo            1.8613691622        4.5010354225        2.6734568972
S             0.2726499020        3.7165734857        4.3773145545
S             0.2346480433        3.5234420170        1.1673944543
Mo            0.2668260333        7.2253736117        2.6989022212
S             1.9034717799        6.3154001700        4.2425492397
S             1.8485180267        6.3177094893        1.0536598298
Mo            1.8608359030        9.9340339409        2.7674589948
S             0.2981823606        9.0307599964        4.3926899220
S             0.2658940547        9.0575948336        1.1682538767
H             9.4671023493        4.8377192816        5.1374011308



     Writing config-only to output data dir ./MoS2-V-O.save/
     NEW-OLD atomic charge density approx. for the potential

     negative rho (up, down):  1.519E-04 0.000E+00

     total cpu time spent up to now is      184.8 secs

     Self-consistent Calculation

     iteration #  1     ecut=    80.00 Ry     beta= 0.70
     Davidson diagonalization with overlap
     ethr =  1.00E-06,  avg # of iterations = 12.0

     negative rho (up, down):  1.209E-04 0.000E+00

     total cpu time spent up to now is      197.9 secs

     total energy              =   -2205.56375947 Ry
     estimated scf accuracy    <       0.00259274 Ry

     iteration #  2     ecut=    80.00 Ry     beta= 0.70
     Davidson diagonalization with overlap
     ethr =  8.45E-07,  avg # of iterations =  2.0

     negative rho (up, down):  1.058E-04 0.000E+00

     total cpu time spent up to now is      211.3 secs

     total energy              =   -2205.56384763 Ry
     estimated scf accuracy    <       0.00075081 Ry

     iteration #  3     ecut=    80.00 Ry     beta= 0.70
     Davidson diagonalization with overlap
     ethr =  2.45E-07,  avg # of iterations =  3.0

     negative rho (up, down):  9.447E-05 0.000E+00

     total cpu time spent up to now is      227.7 secs

     total energy              =   -2205.56388648 Ry
     estimated scf accuracy    <       0.00028623 Ry

     iteration #  4     ecut=    80.00 Ry     beta= 0.70
     Davidson diagonalization with overlap
     ethr =  9.32E-08,  avg # of iterations =  6.0

     negative rho (up, down):  8.943E-05 0.000E+00

     total cpu time spent up to now is      245.0 secs

     total energy              =   -2205.56391564 Ry
     estimated scf accuracy    <       0.00001117 Ry

     iteration #  5     ecut=    80.00 Ry     beta= 0.70
     Davidson diagonalization with overlap
     ethr =  3.64E-09,  avg # of iterations =  8.0

     negative rho (up, down):  8.897E-05 0.000E+00

     total cpu time spent up to now is      265.6 secs

     total energy              =   -2205.56392293 Ry
     estimated scf accuracy    <       0.00000540 Ry

     iteration #  6     ecut=    80.00 Ry     beta= 0.70
     Davidson diagonalization with overlap
     ethr =  1.76E-09,  avg # of iterations =  2.0

     negative rho (up, down):  9.063E-05 0.000E+00

     total cpu time spent up to now is      283.7 secs

     total energy              =   -2205.56392292 Ry
     estimated scf accuracy    <       0.00000125 Ry

     iteration #  7     ecut=    80.00 Ry     beta= 0.70
     Davidson diagonalization with overlap
     ethr =  4.08E-10,  avg # of iterations =  5.0

     negative rho (up, down):  9.419E-05 0.000E+00

     total cpu time spent up to now is      299.4 secs

     total energy              =   -2205.56392313 Ry
     estimated scf accuracy    <       0.00000031 Ry

     iteration #  8     ecut=    80.00 Ry     beta= 0.70
     Davidson diagonalization with overlap
     ethr =  1.02E-10,  avg # of iterations =  6.0

     negative rho (up, down):  1.032E-04 0.000E+00

     total cpu time spent up to now is      308.6 secs

     total energy              =   -2205.56392306 Ry
     estimated scf accuracy    <       0.00000009 Ry

     iteration #  9     ecut=    80.00 Ry     beta= 0.70
     Davidson diagonalization with overlap
     ethr =  2.91E-11,  avg # of iterations =  5.0

     negative rho (up, down):  1.386E-04 0.000E+00

     total cpu time spent up to now is      310.7 secs

     End of self-consistent calculation

          k = 0.0000 0.0000 0.0000 (105382 PWs)   bands (ev):

   -62.8668 -62.8426 -62.8337 -62.8075 -62.7988 -62.7831 -62.7695 -62.7648
   -62.7573 -62.7446 -62.7224 -62.7068 -37.1938 -37.1331 -37.1265 -37.1118
   -37.0807 -37.0644 -37.0593 -37.0438 -37.0396 -37.0279 -37.0244 -37.0150
   -37.0047 -36.9850 -36.9793 -36.9760 -36.9743 -36.9550 -36.9461 -36.9439
   -36.9323 -36.9217 -36.9171 -36.9054 -36.8983 -36.8905 -36.8719 -36.8689
   -36.8524 -36.8473 -36.8333 -36.8084 -36.8013 -36.7590 -36.7132 -36.6888
   -16.1638 -15.6294 -15.1293 -15.0075 -14.9452 -14.8091 -14.6767 -14.4825
   -14.4608 -14.3988 -14.3794 -14.3163 -14.2884 -14.2750 -14.1837 -14.1026
   -14.1011 -14.0922 -14.0005 -13.8973 -13.8380 -13.8071 -13.7671  -8.7660
    -7.6114  -7.4055  -7.2775  -7.2087  -7.2046  -7.1623  -7.1003  -7.0714
    -6.8172  -6.7721  -6.7519  -6.6745  -6.5660  -6.5247  -6.4141  -6.3646
    -6.3297  -6.2425  -6.2037  -5.9226  -5.9087  -5.8670  -5.8314  -5.7402
    -5.7307  -5.7031  -5.6535  -5.6412  -5.6343  -5.6007  -5.5001  -5.4318
    -5.3774  -5.3264  -5.1209  -5.1031  -5.0536  -5.0073  -4.9391  -4.9253
    -4.9082  -4.8638  -4.6309  -4.5246  -4.3683  -4.2989  -4.2817  -4.2243
    -4.1967  -4.1235  -4.0383  -3.8537  -3.7984  -3.7666  -3.7370  -3.7077
    -3.6579  -3.5439  -3.5305  -3.4951  -3.4788  -3.4671  -3.4387  -3.3698
    -3.3244  -3.2511  -3.1197  -2.8771  -2.8633  -2.7869  -2.7361  -2.7214
    -2.6879  -2.6414  -2.6213  -2.5995  -2.5385  -2.2864  -2.0167  -1.9674
    -1.9480  -0.8610  -0.7490  -0.6986  -0.1791  -0.1124  -0.0447  -0.0324
     0.1044   0.1409   0.2401   0.2895   0.3291   0.3598   0.4132   0.4583
     0.4790   0.5544   0.5627   0.5802   0.6449   0.7095   0.7297   0.7878
     0.8069   0.8401   0.8803   0.9347   1.0057   1.0130   1.0554   1.3751
     1.4443

     the Fermi energy is    -0.8860 ev

!    total energy              =   -2205.56392295 Ry
     estimated scf accuracy    <       0.00000002 Ry
     smearing contrib. (-TS)   =      -0.00834371 Ry
     internal energy E=F+TS    =   -2205.55557924 Ry

     The total energy is F=E-TS. E is the sum of the following terms:
     one-electron contribution =  -18051.72808641 Ry
     hartree contribution      =    9012.85882738 Ry
     xc contribution           =    -385.35692784 Ry
     ewald contribution        =    7218.67060763 Ry

     convergence has been achieved in   9 iterations

     negative rho (up, down):  1.386E-04 0.000E+00

     Forces acting on atoms (cartesian axes, Ry/au):

     atom    1 type  1   force =    -0.00539465    0.00029148   -0.00605192
     atom    2 type  2   force =     0.00042382    0.00264866   -0.00464051
     atom    3 type  2   force =    -0.01226059   -0.00131282   -0.01833468
     atom    4 type  1   force =     0.00472579    0.00496495    0.00601915
     atom    5 type  2   force =     0.00195699   -0.00459450   -0.00642762
     atom    6 type  2   force =    -0.00229173    0.00011657    0.00025039
     atom    7 type  1   force =     0.00437413   -0.00486898    0.00221612
     atom    8 type  2   force =    -0.00311823   -0.00165810    0.00189914
     atom    9 type  2   force =     0.00649012    0.00461527   -0.00048443
     atom   10 type  1   force =    -0.00083880    0.00421767    0.00204352
     atom   11 type  2   force =     0.00189074   -0.00126939   -0.00845239
     atom   12 type  2   force =    -0.00536525   -0.00061496   -0.00054963
     atom   13 type  1   force =     0.00070356   -0.00052254    0.00108968
     atom   14 type  2   force =     0.00240637    0.00021487    0.00317107
     atom   15 type  2   force =    -0.00473063    0.00045207   -0.00308323
     atom   16 type  1   force =     0.00068581    0.00297019    0.00283658
     atom   17 type  2   force =     0.00529058    0.00128306    0.00210845
     atom   18 type  2   force =    -0.00148201   -0.00056887    0.00640235
     atom   19 type  1   force =    -0.00012888   -0.00465586    0.00217490
     atom   20 type  2   force =     0.00189477   -0.00256346   -0.00473227
     atom   21 type  1   force =    -0.00123841    0.00030039    0.00104541
     atom   22 type  2   force =     0.00064435   -0.00172189   -0.00107752
     atom   23 type  2   force =     0.00139351   -0.00132695    0.00170537
     atom   24 type  1   force =    -0.00202319   -0.00028673   -0.00127045
     atom   25 type  2   force =     0.00223164    0.00770249   -0.00613740
     atom   26 type  2   force =     0.00168241   -0.00629513   -0.00928400
     atom   27 type  1   force =     0.00117830    0.00463782    0.00633950
     atom   28 type  2   force =     0.00016403   -0.00571828   -0.00055707
     atom   29 type  2   force =     0.00260117   -0.00042990   -0.00084192
     atom   30 type  1   force =    -0.00031207   -0.00486142    0.00483393
     atom   31 type  2   force =     0.00321119    0.00351348    0.00440685
     atom   32 type  2   force =    -0.00393196    0.00280890    0.00424848
     atom   33 type  1   force =    -0.00010370    0.00138763    0.00426890
     atom   34 type  2   force =    -0.00226924   -0.01429958   -0.01270710
     atom   35 type  2   force =    -0.00245922    0.00630173    0.00196417
     atom   36 type  3   force =     0.00399931    0.00914209    0.02560817
     The non-local contrib.  to forces
     atom    1 type  1   force =     0.00285159    0.02288454   -0.01296006
     atom    2 type  2   force =    -0.00689754   -0.01504351   -0.26275054
     atom    3 type  2   force =    -0.00887137   -0.01179285    0.25740851
     atom    4 type  1   force =    -0.00203892    0.00272148    0.00875182
     atom    5 type  2   force =     0.01235399   -0.02983856   -0.24784609
     atom    6 type  2   force =    -0.00607762    0.00511678    0.26561015
     atom    7 type  1   force =    -0.02190817    0.00329237   -0.02352182
     atom    8 type  2   force =     0.00892595    0.00648586   -0.22780225
     atom    9 type  2   force =     0.00018343   -0.01100492    0.27224957
     atom   10 type  1   force =     0.00264916    0.00276355   -0.00448566
     atom   11 type  2   force =     0.00729330    0.00357201   -0.25960326
     atom   12 type  2   force =    -0.01471965   -0.01880511    0.26053789
     atom   13 type  1   force =     0.00133999    0.01823425   -0.00784670
     atom   14 type  2   force =     0.00641900   -0.01023520   -0.26667669
     atom   15 type  2   force =    -0.00760670   -0.00627545    0.26189255
     atom   16 type  1   force =    -0.00109899    0.03521819   -0.02705109
     atom   17 type  2   force =    -0.00288363   -0.02411406   -0.24533830
     atom   18 type  2   force =     0.00012785    0.00173147    0.27049310
     atom   19 type  1   force =     0.01682157    0.00176410   -0.01707703
     atom   20 type  2   force =    -0.00033095   -0.01666989    0.26127835
     atom   21 type  1   force =     0.00002149    0.02871493    0.00483946
     atom   22 type  2   force =    -0.00351526    0.00157628   -0.25571194
     atom   23 type  2   force =     0.00869656   -0.01781008    0.26247502
     atom   24 type  1   force =     0.00058977    0.01275028   -0.01323105
     atom   25 type  2   force =     0.00721092   -0.00905663   -0.26239958
     atom   26 type  2   force =     0.00542236   -0.01639302    0.26086932
     atom   27 type  1   force =    -0.00486558    0.00235998    0.00575980
     atom   28 type  2   force =    -0.04699969    0.21922249   -0.07659721
     atom   29 type  2   force =     0.00484323    0.00058610    0.27154972
     atom   30 type  1   force =    -0.00002173    0.02120324    0.00919003
     atom   31 type  2   force =    -0.01023705    0.00633668   -0.24926499
     atom   32 type  2   force =     0.00340984   -0.01282299    0.27437414
     atom   33 type  1   force =    -0.00197202    0.00556398    0.00091471
     atom   34 type  2   force =    -0.00440925   -0.01621832   -0.27621189
     atom   35 type  2   force =     0.00075391   -0.01342962    0.26410824
     atom   36 type  3   force =     0.01084829   -0.04557829   -0.03155506
     The ionic contribution  to forces
     atom    1 type  1   force =    -0.20431268    0.83873013    5.94153021
     atom    2 type  2   force =    -0.13914335    0.25992348   39.46109070
     atom    3 type  2   force =    -0.36235069    0.00188160  -36.54173392
     atom    4 type  1   force =     0.06474227   -0.11685693   -0.61146172
     atom    5 type  2   force =    -1.04804305    1.28375386   38.49414589
     atom    6 type  2   force =     0.13622093   -0.68124832  -37.89959993
     atom    7 type  1   force =    -2.66314548   -2.28451685    2.38431526
     atom    8 type  2   force =    -1.45120520    0.45775259   37.39929251
     atom    9 type  2   force =     0.32093321    0.01352134  -38.06482821
     atom   10 type  1   force =    -0.72996462   -0.43691511    5.19832554
[...]
     atom   27 type  1   force =    -0.00561835    0.00009746   -0.00226110
     atom   28 type  2   force =    -0.00621346    0.28369656   -0.03647789
     atom   29 type  2   force =    -0.00095191   -0.00947281    0.27169103
     atom   30 type  1   force =     0.00015221    0.02090575    0.00791547
     atom   31 type  2   force =    -0.01219707    0.00334374   -0.24800622
     atom   32 type  2   force =     0.00797856   -0.00865774    0.27106452
     atom   33 type  1   force =    -0.00288315    0.00835741    0.00084902
     atom   34 type  2   force =     0.00072333   -0.01160928   -0.27052211
     atom   35 type  2   force =    -0.00124566   -0.01429962    0.26436118
     atom   36 type  3   force =     0.00154047   -0.03964266   -0.03747849
     The ionic contribution  to forces
     atom    1 type  1   force =    -0.14245027    0.93435577    2.17649195
     atom    2 type  2   force =    -0.04860989    0.18013324   38.45490724
     atom    3 type  2   force =    -0.17283143    0.16763801  -38.03479319
     atom    4 type  1   force =    -0.13300735   -0.66019163    2.11344318
     atom    5 type  2   force =    -0.93832261    0.81565700   38.27435321
     atom    6 type  2   force =     0.23627509   -0.21181619  -37.70467666
     atom    7 type  1   force =    -2.77453770   -1.98893275    1.86122356
     atom    8 type  2   force =    -1.62778872    0.62656530   38.08095704
     atom    9 type  2   force =     0.33509932   -0.22411943  -37.90164496
     atom   10 type  1   force =    -0.52188723   -0.34395454    1.81915721
     atom   11 type  2   force =    -0.45634815   -1.26304817   38.41211061
     atom   12 type  2   force =     0.12479568    0.23382829  -38.18008044
     atom   13 type  1   force =     0.16779192    0.97172971    2.78471998
     atom   14 type  2   force =     0.03765582   -0.04615099   38.43605802
     atom   15 type  2   force =    -0.02900114    0.13524792  -37.44800230
     atom   16 type  1   force =     0.01422133    3.20822215    2.34419371
     atom   17 type  2   force =     0.97440404    0.82327581   38.39442710
     atom   18 type  2   force =    -0.27971487   -0.21544653  -37.55315048
     atom   19 type  1   force =     2.83007088   -1.96765164    2.91585392
     atom   20 type  2   force =    -0.04680321   -0.23924510  -38.56384846
     atom   21 type  1   force =     0.00456122   -0.07960437    0.58321863
     atom   22 type  2   force =     0.48693006   -1.23153202   38.54502132
     atom   23 type  2   force =    -0.17148341    0.19933787  -37.99231159
     atom   24 type  1   force =    -0.03743850    1.99703865   -0.43203789
     atom   25 type  2   force =     0.01036197    0.19031401   38.60036877
     atom   26 type  2   force =     0.21247920    0.14825027  -37.95474112
     atom   27 type  1   force =     0.13696224   -0.69079211    2.92842318
     atom   28 type  2   force =     0.00316567   -1.85605675   38.00802984
     atom   29 type  2   force =     0.04362815    0.15684193  -36.75790645
     atom   30 type  1   force =     0.00250559   -0.44191615    1.59493472
     atom   31 type  2   force =     1.55273903    0.62810467   38.27840065
     atom   32 type  2   force =    -0.29080725   -0.22843138  -37.72718365
     atom   33 type  1   force =     0.53812982   -0.38117163    2.37932417
     atom   34 type  2   force =    -0.04167662   -0.17195555   38.68411368
     atom   35 type  2   force =     0.03450827   -0.01427045  -37.67177025
     atom   36 type  3   force =    -0.03357696    0.83974677    8.25241575
     The local contribution  to forces
     atom    1 type  1   force =     0.14209284   -0.95337018   -2.17170981
     atom    2 type  2   force =     0.05956318   -0.16268321  -38.21789383
     atom    3 type  2   force =     0.17205049   -0.15700960   37.78939637
     atom    4 type  1   force =     0.12685907    0.66113164   -2.11363141
     atom    5 type  2   force =     0.92767856   -0.79861909  -38.04611080
     atom    6 type  2   force =    -0.23310334    0.21414957   37.45790450
     atom    7 type  1   force =     2.79049167    1.98122417   -1.83831740
     atom    8 type  2   force =     1.61474337   -0.63132893  -37.85574307
     atom    9 type  2   force =    -0.32645070    0.23207570   37.65156826
     atom   10 type  1   force =     0.51874385    0.33599219   -1.82044574
     atom   11 type  2   force =     0.45291887    1.26552809  -38.17669512
     atom   12 type  2   force =    -0.11680012   -0.22110686   37.93850208
     atom   13 type  1   force =    -0.16685171   -0.98932566   -2.77992356
     atom   14 type  2   force =    -0.03699402    0.05525087  -38.18956836
     atom   15 type  2   force =     0.02842461   -0.12411465   37.20793168
     atom   16 type  1   force =    -0.01443921   -3.24214075   -2.31221978
     atom   17 type  2   force =    -0.96308285   -0.80632984  -38.16576749
     atom   18 type  2   force =     0.27587337    0.21837960   37.30616116
     atom   19 type  1   force =    -2.84600120    1.96067076   -2.89235624
     atom   20 type  2   force =     0.04572378    0.24859195   38.32170737
     atom   21 type  1   force =    -0.00475339    0.04959391   -0.58754072
     atom   22 type  2   force =    -0.48246947    1.23475234  -38.30980813
     atom   23 type  2   force =     0.16283690   -0.18645684   37.75019300
     atom   24 type  1   force =     0.03732254   -2.01742537    0.42946892
     atom   25 type  2   force =    -0.02200392   -0.17323496  -38.36390948
     atom   26 type  2   force =    -0.21109200   -0.13746356   37.70951829
     atom   27 type  1   force =    -0.13054759    0.69121126   -2.92677914
     atom   28 type  2   force =     0.00242489    1.59123035  -37.97579385
     atom   29 type  2   force =    -0.04280202   -0.14761026   36.50668710
     atom   30 type  1   force =    -0.00308808    0.42104717   -1.60267431
     atom   31 type  2   force =    -1.54075208   -0.63161977  -38.05104937
     atom   32 type  2   force =     0.28286228    0.23665559   37.47689363
     atom   33 type  1   force =    -0.53464275    0.37207004   -2.38015321
     atom   34 type  2   force =     0.04086615    0.18265905  -38.43429632
     atom   35 type  2   force =    -0.03391720    0.02699141   37.42837867
     atom   36 type  3   force =     0.03315402   -0.80040041   -8.21469362
     The core correction contribution to forces
     atom    1 type  1   force =     0.00000000    0.00000000    0.00000000
     atom    2 type  2   force =     0.00070255    0.00079150    0.02041094
     atom    3 type  2   force =    -0.00026520    0.00034018   -0.02091659
     atom    4 type  1   force =     0.00000000    0.00000000    0.00000000
     atom    5 type  2   force =    -0.00081152    0.00056594    0.01995928
     atom    6 type  2   force =     0.00042714   -0.00021426   -0.02088280
     atom    7 type  1   force =     0.00000000    0.00000000    0.00000000
     atom    8 type  2   force =    -0.00091337    0.00042801    0.01969427
     atom    9 type  2   force =     0.00078923    0.00035312   -0.02106403
     atom   10 type  1   force =     0.00000000    0.00000000    0.00000000
     atom   11 type  2   force =     0.00003121    0.00001493    0.02044544
     atom   12 type  2   force =     0.00063104    0.00099365   -0.02079622
     atom   13 type  1   force =     0.00000000    0.00000000    0.00000000
     atom   14 type  2   force =     0.00007623    0.00010612    0.02079180
     atom   15 type  2   force =    -0.00009970    0.00060638   -0.02052349
     atom   16 type  1   force =     0.00000000    0.00000000    0.00000000
     atom   17 type  2   force =     0.00091607    0.00058405    0.01999545
     atom   18 type  2   force =    -0.00052685   -0.00021228   -0.02085088
     atom   19 type  1   force =     0.00000000    0.00000000    0.00000000
     atom   20 type  2   force =    -0.00013907    0.00036402   -0.02121702
     atom   21 type  1   force =     0.00000000    0.00000000    0.00000000
     atom   22 type  2   force =     0.00004834    0.00010553    0.02043196
     atom   23 type  2   force =    -0.00072480    0.00085230   -0.02077560
     atom   24 type  1   force =     0.00000000    0.00000000    0.00000000
     atom   25 type  2   force =    -0.00080011    0.00082379    0.02041792
     atom   26 type  2   force =     0.00033233    0.00034482   -0.02089898
     atom   27 type  1   force =     0.00000000    0.00000000    0.00000000
     atom   28 type  2   force =     0.00039903   -0.01842779    0.00415219
     atom   29 type  2   force =     0.00008502    0.00060243   -0.02106452
     atom   30 type  1   force =     0.00000000    0.00000000    0.00000000
     atom   31 type  2   force =     0.00073577    0.00050518    0.01984584
     atom   32 type  2   force =    -0.00066974    0.00035195   -0.02104929
     atom   33 type  1   force =     0.00000000    0.00000000    0.00000000
     atom   34 type  2   force =    -0.00007267    0.00066909    0.02101609
     atom   35 type  2   force =     0.00008321    0.00081332   -0.02078726
     atom   36 type  3   force =     0.00000000    0.00000000    0.00000000
     The Hubbard contrib.    to forces
     atom    1 type  1   force =     0.00000000    0.00000000    0.00000000
     atom    2 type  2   force =     0.00000000    0.00000000    0.00000000
     atom    3 type  2   force =     0.00000000    0.00000000    0.00000000
     atom    4 type  1   force =     0.00000000    0.00000000    0.00000000
     atom    5 type  2   force =     0.00000000    0.00000000    0.00000000
     atom    6 type  2   force =     0.00000000    0.00000000    0.00000000
     atom    7 type  1   force =     0.00000000    0.00000000    0.00000000
     atom    8 type  2   force =     0.00000000    0.00000000    0.00000000
     atom    9 type  2   force =     0.00000000    0.00000000    0.00000000
     atom   10 type  1   force =     0.00000000    0.00000000    0.00000000
     atom   11 type  2   force =     0.00000000    0.00000000    0.00000000
     atom   12 type  2   force =     0.00000000    0.00000000    0.00000000
     atom   13 type  1   force =     0.00000000    0.00000000    0.00000000
     atom   14 type  2   force =     0.00000000    0.00000000    0.00000000
     atom   15 type  2   force =     0.00000000    0.00000000    0.00000000
     atom   16 type  1   force =     0.00000000    0.00000000    0.00000000
     atom   17 type  2   force =     0.00000000    0.00000000    0.00000000
     atom   18 type  2   force =     0.00000000    0.00000000    0.00000000
     atom   19 type  1   force =     0.00000000    0.00000000    0.00000000
     atom   20 type  2   force =     0.00000000    0.00000000    0.00000000
     atom   21 type  1   force =     0.00000000    0.00000000    0.00000000
     atom   22 type  2   force =     0.00000000    0.00000000    0.00000000
     atom   23 type  2   force =     0.00000000    0.00000000    0.00000000
     atom   24 type  1   force =     0.00000000    0.00000000    0.00000000
     atom   25 type  2   force =     0.00000000    0.00000000    0.00000000
     atom   26 type  2   force =     0.00000000    0.00000000    0.00000000
     atom   27 type  1   force =     0.00000000    0.00000000    0.00000000
     atom   28 type  2   force =     0.00000000    0.00000000    0.00000000
     atom   29 type  2   force =     0.00000000    0.00000000    0.00000000
     atom   30 type  1   force =     0.00000000    0.00000000    0.00000000
     atom   31 type  2   force =     0.00000000    0.00000000    0.00000000
     atom   32 type  2   force =     0.00000000    0.00000000    0.00000000
     atom   33 type  1   force =     0.00000000    0.00000000    0.00000000
     atom   34 type  2   force =     0.00000000    0.00000000    0.00000000
     atom   35 type  2   force =     0.00000000    0.00000000    0.00000000
     atom   36 type  3   force =     0.00000000    0.00000000    0.00000000
     The SCF correction term to forces
     atom    1 type  1   force =     0.00003282    0.00004728    0.00004937
     atom    2 type  2   force =     0.00000863    0.00001189    0.00003180
     atom    3 type  2   force =     0.00000919    0.00002438    0.00000683
     atom    4 type  1   force =     0.00000444    0.00001012   -0.00000074
     atom    5 type  2   force =     0.00000431    0.00000744    0.00001912
     atom    6 type  2   force =     0.00001959    0.00003050   -0.00000303
     atom    7 type  1   force =    -0.00000281   -0.00007729    0.00001354
     atom    8 type  2   force =     0.00000286   -0.00001888    0.00000948
     atom    9 type  2   force =    -0.00000669   -0.00002851   -0.00000019
     atom   10 type  1   force =     0.00000692    0.00001470    0.00006085
     atom   11 type  2   force =     0.00000512   -0.00000634    0.00003847
     atom   12 type  2   force =     0.00000532   -0.00002277   -0.00000375
     atom   13 type  1   force =    -0.00004193    0.00005356    0.00007132
     atom   14 type  2   force =    -0.00000161    0.00001200    0.00003933
     atom   15 type  2   force =     0.00000194    0.00001389    0.00001034
     atom   16 type  1   force =    -0.00000135    0.00004171    0.00002539
     atom   17 type  2   force =    -0.00001358    0.00001248    0.00002772
     atom   18 type  2   force =    -0.00001333    0.00002226    0.00000846
     atom   19 type  1   force =     0.00000242   -0.00007938    0.00003156
     atom   20 type  2   force =     0.00000432   -0.00001935    0.00000278
     atom   21 type  1   force =     0.00000665   -0.00000823    0.00006553
     atom   22 type  2   force =    -0.00000766   -0.00000787    0.00004084
     atom   23 type  2   force =    -0.00000020   -0.00002414    0.00000028
     atom   24 type  1   force =     0.00000708    0.00006218    0.00005119
     atom   25 type  2   force =    -0.00000744    0.00001703    0.00004073
     atom   26 type  2   force =    -0.00001239    0.00002602    0.00000784
     atom   27 type  1   force =    -0.00000460    0.00000817    0.00004563
     atom   28 type  2   force =     0.00000904    0.00000590    0.00003791
     atom   29 type  2   force =    -0.00000541    0.00001382   -0.00000889
     atom   30 type  1   force =     0.00000426   -0.00006651    0.00002780
     atom   31 type  2   force =     0.00000336   -0.00002403    0.00002351
     atom   32 type  2   force =     0.00000218   -0.00002441    0.00000419
     atom   33 type  1   force =    -0.00001246    0.00001774    0.00007848
     atom   34 type  2   force =     0.00000284    0.00000026    0.00004376
     atom   35 type  2   force =    -0.00000553   -0.00001342   -0.00000257
     atom   36 type  3   force =     0.00000085   -0.00000311    0.00000311

     Total force =     0.005858     Total SCF correction =     0.000288
     Energy error            =      8.6E-05 Ry
     Gradient error          =      2.6E-03 Ry/Bohr

     bfgs converged in  18 scf cycles and  17 bfgs steps
     (criteria: energy <  1.0E-04 Ry, force <  1.0E-02 Ry/Bohr)

     End of BFGS Geometry Optimization

     Final energy             =   -2205.5823081608 Ry

     File ./MoS2-V-O.bfgs deleted, as requested
Begin final coordinates

ATOMIC_POSITIONS (angstrom)
Mo            6.5670967080        1.7529063864        2.7445920531
S             8.1448661552        0.8452416921        4.3306315393
S             8.1253064621        0.8281774376        1.1277421017
Mo            8.1174868638        4.5125673127        2.7514018900
S             6.5096227318        3.6531925340        4.3162941343
S             6.5613137186        3.5697580244        1.1229213736
Mo            6.5096249940        7.1919989409        2.6526811687
S             8.0639529163        6.3389616624        4.3063689628
S             8.1399631994        6.3126058475        1.1134100264
Mo            8.1279968496        9.9331844861        2.7348875072
S             6.5156613225        8.9639853539        4.3024623033
S             6.5781811945        9.0272702726        1.0998338702
Mo            3.4097514032        1.7518909402        2.7563094116
S             4.9936713073        0.8130266846        4.3286509674
S             4.9830793116        0.8482583665        1.1586627725
Mo            4.9900472937        4.5366215010        2.6703042632
S             3.4768248501        3.6560685620        4.3271127962
S             3.4130780298        3.5679062837        1.1347313538
Mo            3.4725649793        7.1887298809        2.6722273649
S             4.9840406651        6.3051328039        1.0442190900
Mo            4.9888058439        9.9103806005        2.7104017113
S             3.4664480282        8.9689534766        4.3152600173
S             3.3957679766        9.0187984517        1.1150074412
Mo            0.2617255035        1.7044769821        2.6914769035
S             1.8281390310        0.8498707103        4.3419504982
S             1.8559582663        0.8270314942        1.1363769504
Mo            1.8614212879        4.5136327600        2.7670288832
S             0.2544493578        3.7244993482        4.4793538536
S             0.2663356136        3.5746242522        1.1905573399
Mo            0.2619137701        7.2199597296        2.7351524723
S             1.9073627445        6.3410448646        4.3221051402
S             1.8487748367        6.3096389715        1.1283498920
Mo            1.8502585524        9.9355950238        2.7460361765
S             0.2575504977        9.0399672284        4.3389988248
S             0.2668485668        9.0428288096        1.1521040310
H             9.6732161787        4.7594476225        5.4251424909
End final coordinates



     Writing all to output data dir ./MoS2-V-O.save/
 
     init_run     :      2.41s CPU      2.58s WALL (       1 calls)
     electrons    :   1477.19s CPU   1618.90s WALL (      18 calls)
     update_pot   :     23.70s CPU     24.69s WALL (      17 calls)
     forces       :     24.79s CPU     26.52s WALL (      18 calls)

     Called by init_run:
     wfcinit      :      0.39s CPU      0.43s WALL (       1 calls)
     potinit      :      1.32s CPU      1.41s WALL (       1 calls)
     hinit0       :      0.18s CPU      0.20s WALL (       1 calls)

     Called by electrons:
     c_bands      :    187.54s CPU    189.49s WALL (     150 calls)
     sum_band     :     48.48s CPU     52.94s WALL (     150 calls)
     v_of_rho     :     61.88s CPU     71.32s WALL (     159 calls)
     newd         :     25.55s CPU     28.60s WALL (     159 calls)
     mix_rho      :   1161.67s CPU   1283.64s WALL (     150 calls)

     Called by c_bands:
     init_us_2    :      3.31s CPU      3.42s WALL (     301 calls)
     init_us_2:cp :      3.31s CPU      3.42s WALL (     301 calls)
     regterg      :    176.63s CPU    178.47s WALL (     150 calls)

     Called by *egterg:
     rdiaghg      :     14.93s CPU     15.02s WALL (     882 calls)
     h_psi        :    101.21s CPU    102.11s WALL (     909 calls)
     s_psi        :     12.95s CPU     12.99s WALL (     909 calls)
     g_psi        :      0.68s CPU      0.69s WALL (     758 calls)

     Called by h_psi:
     h_psi:calbec :     14.20s CPU     14.25s WALL (     909 calls)
     vloc_psi     :     72.63s CPU     73.41s WALL (     909 calls)
     add_vuspsi   :     12.68s CPU     12.74s WALL (     909 calls)

     General routines
     calbec       :     20.12s CPU     20.19s WALL (    1131 calls)
     fft          :     41.92s CPU     48.76s WALL (   10751 calls)
     ffts         :    512.46s CPU    630.54s WALL (  283328 calls)
     fftw         :     62.39s CPU     63.01s WALL (   93080 calls)
     interpolate  :      1.10s CPU      1.28s WALL (     159 calls)
 
     Parallel routines
 
     PWSCF        :  25m31.74s CPU  27m57.83s WALL

 
   This run was terminated on:   3:46:29   4Nov2023            

=------------------------------------------------------------------------------=
   JOB DONE.
=------------------------------------------------------------------------------=
