
     Program PWSCF v.7.2 starts on  3Nov2023 at 20:53: 1 

     This program is part of the open-source Quantum ESPRESSO suite
     for quantum simulation of materials; please cite
         "P. Giannozzi et al., J. Phys.:Condens. Matter 21 395502 (2009);
         "P. Giannozzi et al., J. Phys.:Condens. Matter 29 465901 (2017);
         "P. Giannozzi et al., J. Chem. Phys. 152 154105 (2020);
          URL http://www.quantum-espresso.org", 
     in publications or presentations arising from this work. More details at
     http://www.quantum-espresso.org/quote

     Parallel version (MPI & OpenMP), running on      48 processor cores
     Number of MPI processes:                48
     Threads/MPI process:                     1

     MPI processes distributed on     3 nodes
     174065 MiB available memory on the printing compute node when the environment starts
 
     Waiting for input...
     Reading input from standard input
Warning: card &CELL ignored
Warning: card CELL_DYNAMICS = 'BFGS', ignored
Warning: card CELL_DOFREE = '2DXY' ignored
Warning: card / ignored

     Current dimensions of program PWSCF are:
     Max number of different atomic species (ntypx) = 10
     Max number of k-points (npk) =  40000
     Max angular momentum in pseudopotentials (lmaxx) =  4

     IMPORTANT: XC functional enforced from input :
     Exchange-correlation= RVV10
                           (   1   4  13   4  26   0   0)
     Any further DFT definition will be discarded
     Please, verify this is what you really want


     gamma-point specific algorithms are used
     signal trapping enabled: kill the code with -SIGUSR1 to stop cleanly the simulation 
 
     R & G space division:  proc/nbgrp/npool/nimage =      48
     Subspace diagonalization in iterative solution of the eigenvalue problem:
     one sub-group per band group will be used
     scalapack distributed-memory algorithm (size of sub-group:  2*  2 procs)

 
     Parallelization info
     --------------------
     sticks:   dense  smooth     PW     G-vecs:    dense   smooth      PW
     Min         243     194     47                49060    35090    4376
     Max         246     196     50                49086    35128    4410
     Sum       11735    9389   2349              2355467  1685513  210763
 
     Using Slab Decomposition
 


     bravais-lattice index     =            0
     lattice parameter (alat)  =      17.8707  a.u.
     unit-cell volume          =   17436.2743 (a.u.)^3
     number of atoms/cell      =           36
     number of atomic types    =            3
     number of electrons       =       307.00
     number of Kohn-Sham states=          185
     kinetic-energy cutoff     =      80.0000  Ry
     charge density cutoff     =     400.0000  Ry
     scf convergence threshold =      1.0E-06
     mixing beta               =       0.7000
     number of iterations used =            8  local-TF  mixing
     energy convergence thresh.=      1.0E-04
     force convergence thresh. =      1.0E-02
     Exchange-correlation= RVV10
                           (   1   4  13   4  26   0   0)
     nstep                     =          200


     celldm(1)=  17.870686  celldm(2)=   0.000000  celldm(3)=   0.000000
     celldm(4)=   0.000000  celldm(5)=   0.000000  celldm(6)=   0.000000

     crystal axes: (cart. coord. in units of alat)
               a(1) = (   1.000000   0.000000   0.000000 )  
               a(2) = (   0.000000   1.155671   0.000000 )  
               a(3) = (   0.000000   0.000000   2.643601 )  

     reciprocal axes: (cart. coord. in units 2 pi/alat)
               b(1) = (  1.000000  0.000000  0.000000 )  
               b(2) = (  0.000000  0.865298  0.000000 )  
               b(3) = (  0.000000  0.000000  0.378272 )  


     PseudoPot. # 1 for Mo read from file:
     ../pseudo/Mo_ONCV_PBE-1.0.oncvpsp.upf
     MD5 check sum: 1b5d28e075c9ccadda658a603575cd1f
     Pseudo is Norm-conserving, Zval = 14.0
     Generated using ONCVPSP code by D. R. Hamann
     Using radial grid of 1526 points,  6 beta functions with: 
                l(1) =   0
                l(2) =   0
                l(3) =   1
                l(4) =   1
                l(5) =   2
                l(6) =   2

     PseudoPot. # 2 for S  read from file:
     ../pseudo/s_pbe_v1.4.uspp.F.UPF
     MD5 check sum: 88d86576ff6df21479756cfb9bdac1df
     Pseudo is Ultrasoft + core correction, Zval =  6.0
     Generated by new atomic code, or converted to UPF format
     Using radial grid of  907 points,  6 beta functions with: 
                l(1) =   0
                l(2) =   0
                l(3) =   1
                l(4) =   1
                l(5) =   2
                l(6) =   2
     Q(r) pseudized with  8 coefficients,  rinner =    1.300   1.300   1.300
                                                       1.300   1.300

     PseudoPot. # 3 for H  read from file:
     ../pseudo/H_ONCV_PBE-1.0.oncvpsp.upf
     MD5 check sum: 1790becc920ee074925cf490c71280fe
     Pseudo is Norm-conserving, Zval =  1.0
     Generated using ONCVPSP code by D. R. Hamann
     Using radial grid of 1166 points,  2 beta functions with: 
                l(1) =   0
                l(2) =   0

     atomic species   valence    mass     pseudopotential
        Mo            14.00    95.94000     Mo( 1.00)
        S              6.00    32.06500     S ( 1.00)
        H              1.00     1.00794     H ( 1.00)

     No symmetry found



   Cartesian axes

     site n.     atom                  positions (alat units)
         1           Mo  tau(   1) = (   0.6952221   0.1890506   0.2985846  )
         2           S   tau(   2) = (   0.8646417   0.0856217   0.4689279  )
         3           S   tau(   3) = (   0.8663890   0.0857843   0.1351291  )
         4           Mo  tau(   4) = (   0.8560186   0.4753274   0.2873942  )
         5           S   tau(   5) = (   0.6873294   0.3936244   0.4596353  )
         6           S   tau(   6) = (   0.6929804   0.3713468   0.1185692  )
         7           Mo  tau(   7) = (   0.6862796   0.7633098   0.2825370  )
         8           S   tau(   8) = (   0.8545980   0.6708292   0.4486168  )
         9           S   tau(   9) = (   0.8545123   0.6666874   0.1146125  )
        10           Mo  tau(  10) = (   0.8629403   1.0471007   0.3006803  )
        11           S   tau(  11) = (   0.6868280   0.9456650   0.4634891  )
        12           S   tau(  12) = (   0.6998113   0.9568511   0.1205389  )
        13           Mo  tau(  13) = (   0.3618216   0.1847309   0.2935964  )
        14           S   tau(  14) = (   0.5260962   0.0863870   0.4600448  )
        15           S   tau(  15) = (   0.5348379   0.0894875   0.1297123  )
        16           Mo  tau(  16) = (   0.5265817   0.4772436   0.2784130  )
        17           S   tau(  17) = (   0.3624753   0.3882513   0.4525556  )
        18           S   tau(  18) = (   0.3635411   0.3752055   0.1119148  )
        19           Mo  tau(  19) = (   0.3652268   0.7630864   0.2781795  )
        20           S   tau(  20) = (   0.5269494   0.6690381   0.1096838  )
        21           Mo  tau(  21) = (   0.5300192   1.0470394   0.2900995  )
        22           S   tau(  22) = (   0.3670346   0.9457522   0.4574073  )
        23           S   tau(  23) = (   0.3604225   0.9585725   0.1159032  )
        24           Mo  tau(  24) = (   0.0313099   0.1847895   0.3013130  )
        25           S   tau(  25) = (   0.1956761   0.0838230   0.4650863  )
        26           S   tau(  26) = (   0.1967693   0.0903508   0.1278874  )
        27           Mo  tau(  27) = (   0.1967578   0.4753919   0.2813011  )
        28           S   tau(  28) = (   0.0287851   0.3864324   0.4586755  )
        29           S   tau(  29) = (   0.0244514   0.3729871   0.1239344  )
        30           Mo  tau(  30) = (   0.0286728   0.7631204   0.2856894  )
        31           S   tau(  31) = (   0.2011512   0.6675435   0.4465001  )
        32           S   tau(  32) = (   0.1969214   0.6672839   0.1104564  )
        33           Mo  tau(  33) = (   0.1950294   1.0511147   0.2932237  )
        34           S   tau(  34) = (   0.0312912   0.9612169   0.4667423  )
        35           S   tau(  35) = (   0.0292670   0.9563028   0.1216485  )
        36           H   tau(  36) = (   0.1111111   0.1284079   0.5650415  )

     number of k points=     1  Gaussian smearing, width (Ry)=  0.0100
                       cart. coord. in units 2pi/alat
        k(    1) = (   0.0000000   0.0000000   0.0000000), wk =   2.0000000

     Dense  grid:  1177734 G-vectors     FFT dimensions: ( 120, 135, 320)

     Smooth grid:   842757 G-vectors     FFT dimensions: ( 108, 120, 270)

     Estimated max dynamical RAM per process >     146.59 MB

     Estimated total dynamical RAM >       6.87 GB

     Initial potential from superposition of free atoms

     starting charge     306.9873, renormalised to     307.0000

     negative rho (up, down):  1.411E-04 0.000E+00


---------------------------------------------------------------------------------
Carrying out rVV10 run using the following parameters:
Nqs =      20    Nr_points =    1024   r_max =   100.000
b_value =  6.30000    beta =  0.00901
     q_mesh =  0.00010000  0.00030000  0.00058939  0.00100810
               0.00161396  0.00249058  0.00375900  0.00559430
               0.00824984  0.01209221  0.01765183  0.02569619
               0.03733578  0.05417739  0.07854596  0.11380545
               0.16482331  0.23864234  0.34545298  0.50000000

Gradients computed in Reciprocal space

---------------------------------------------------------------------------------


     Starting wfcs are  213 randomized atomic wfcs

     total cpu time spent up to now is       16.3 secs

     Self-consistent Calculation

     iteration #  1     ecut=    80.00 Ry     beta= 0.70
     Davidson diagonalization with overlap
     ethr =  1.00E-02,  avg # of iterations =  2.0

     Threshold (ethr) on eigenvalues was too large:
     Diagonalizing with lowered threshold

     Davidson diagonalization with overlap
     ethr =  3.90E-04,  avg # of iterations =  4.0

     negative rho (up, down):  2.568E-08 0.000E+00

     total cpu time spent up to now is      322.7 secs

     total energy              =   -2205.61817558 Ry
     estimated scf accuracy    <       1.48360376 Ry

     iteration #  2     ecut=    80.00 Ry     beta= 0.70
     Davidson diagonalization with overlap
     ethr =  4.83E-04,  avg # of iterations =  1.0

     total cpu time spent up to now is      392.8 secs

     total energy              =   -2205.43970640 Ry
     estimated scf accuracy    <       0.61050692 Ry

     iteration #  3     ecut=    80.00 Ry     beta= 0.70
     Davidson diagonalization with overlap
     ethr =  1.99E-04,  avg # of iterations =  2.0

     total cpu time spent up to now is      463.6 secs

     total energy              =   -2205.53833839 Ry
     estimated scf accuracy    <       0.06162328 Ry

     iteration #  4     ecut=    80.00 Ry     beta= 0.70
     Davidson diagonalization with overlap
     ethr =  2.01E-05,  avg # of iterations = 15.0

     total cpu time spent up to now is      542.4 secs

     total energy              =   -2205.54193083 Ry
     estimated scf accuracy    <       0.03200191 Ry

     iteration #  5     ecut=    80.00 Ry     beta= 0.70
     Davidson diagonalization with overlap
     ethr =  1.04E-05,  avg # of iterations =  2.0

     total cpu time spent up to now is      602.6 secs

     total energy              =   -2205.54154130 Ry
     estimated scf accuracy    <       0.01996194 Ry

     iteration #  6     ecut=    80.00 Ry     beta= 0.70
     Davidson diagonalization with overlap
     ethr =  6.50E-06,  avg # of iterations =  2.0

     total cpu time spent up to now is      665.3 secs

     total energy              =   -2205.54109599 Ry
     estimated scf accuracy    <       0.01313615 Ry

     iteration #  7     ecut=    80.00 Ry     beta= 0.70
     Davidson diagonalization with overlap
     ethr =  4.28E-06,  avg # of iterations =  1.0

     total cpu time spent up to now is      841.1 secs

     total energy              =   -2205.53877661 Ry
     estimated scf accuracy    <       0.00949800 Ry

     iteration #  8     ecut=    80.00 Ry     beta= 0.70
     Davidson diagonalization with overlap
     ethr =  3.09E-06,  avg # of iterations =  2.0

     negative rho (up, down):  2.956E-03 0.000E+00

     total cpu time spent up to now is     1094.9 secs

     total energy              =   -2205.53858371 Ry
     estimated scf accuracy    <       0.00446892 Ry

     iteration #  9     ecut=    80.00 Ry     beta= 0.70
     Davidson diagonalization with overlap
     ethr =  1.46E-06,  avg # of iterations =  2.0

     negative rho (up, down):  1.285E-02 0.000E+00

     total cpu time spent up to now is     1172.4 secs

     total energy              =   -2205.53811203 Ry
     estimated scf accuracy    <       0.00325793 Ry

     iteration # 10     ecut=    80.00 Ry     beta= 0.70
     Davidson diagonalization with overlap
     ethr =  1.06E-06,  avg # of iterations =  1.0

     negative rho (up, down):  3.338E-02 0.000E+00

     total cpu time spent up to now is     1192.5 secs

     total energy              =   -2205.53821347 Ry
     estimated scf accuracy    <       0.00167725 Ry

     iteration # 11     ecut=    80.00 Ry     beta= 0.70
     Davidson diagonalization with overlap
     ethr =  5.46E-07,  avg # of iterations =  2.0

     negative rho (up, down):  1.866E-02 0.000E+00

     total cpu time spent up to now is     1264.9 secs

     total energy              =   -2205.53821518 Ry
     estimated scf accuracy    <       0.00047415 Ry

     iteration # 12     ecut=    80.00 Ry     beta= 0.70
     Davidson diagonalization with overlap
     c_bands:  1 eigenvalues not converged
     ethr =  1.54E-07,  avg # of iterations = 20.0

     negative rho (up, down):  6.757E-03 0.000E+00

     total cpu time spent up to now is     1337.1 secs

     total energy              =   -2205.53830480 Ry
     estimated scf accuracy    <       0.00011219 Ry

     iteration # 13     ecut=    80.00 Ry     beta= 0.70
     Davidson diagonalization with overlap
     c_bands:  2 eigenvalues not converged
     ethr =  3.65E-08,  avg # of iterations = 20.0

     negative rho (up, down):  2.329E-03 0.000E+00

     total cpu time spent up to now is     1444.5 secs

     total energy              =   -2205.53833640 Ry
     estimated scf accuracy    <       0.00001333 Ry

     iteration # 14     ecut=    80.00 Ry     beta= 0.70
     Davidson diagonalization with overlap
     ethr =  4.34E-09,  avg # of iterations = 14.0

     negative rho (up, down):  6.289E-04 0.000E+00

     total cpu time spent up to now is     1526.2 secs

     total energy              =   -2205.53833510 Ry
     estimated scf accuracy    <       0.00000460 Ry

     iteration # 15     ecut=    80.00 Ry     beta= 0.70
     Davidson diagonalization with overlap
     ethr =  1.50E-09,  avg # of iterations =  2.0

     negative rho (up, down):  3.533E-04 0.000E+00

     total cpu time spent up to now is     1583.7 secs

     total energy              =   -2205.53833673 Ry
     estimated scf accuracy    <       0.00000167 Ry

     iteration # 16     ecut=    80.00 Ry     beta= 0.70
     Davidson diagonalization with overlap
     ethr =  5.44E-10,  avg # of iterations =  2.0

     negative rho (up, down):  1.368E-04 0.000E+00

     total cpu time spent up to now is     1591.3 secs

     End of self-consistent calculation

          k = 0.0000 0.0000 0.0000 (105382 PWs)   bands (ev):

   -62.8776 -62.8445 -62.8209 -62.8135 -62.8047 -62.7938 -62.7854 -62.7633
   -62.7351 -62.5753 -62.5590 -62.5157 -37.1934 -37.1460 -37.1172 -37.0934
   -37.0893 -37.0766 -37.0697 -37.0492 -37.0258 -37.0089 -37.0067 -36.9962
   -36.9872 -36.9769 -36.9735 -36.9694 -36.9627 -36.9502 -36.9446 -36.9387
   -36.9025 -36.8937 -36.8758 -36.8525 -36.8403 -36.8097 -36.8002 -36.7949
   -36.7584 -36.7459 -36.7221 -36.7140 -36.7003 -36.6557 -36.5380 -36.5305
   -16.6404 -15.7239 -15.1181 -15.0202 -14.8719 -14.7809 -14.6629 -14.4334
   -14.3984 -14.3627 -14.3220 -14.3095 -14.2870 -14.2128 -14.1186 -14.0735
   -14.0453 -14.0357 -13.9524 -13.9049 -13.7586 -13.7445 -13.7211  -9.4080
    -7.6522  -7.4526  -7.3250  -7.2286  -7.1974  -7.1381  -7.0961  -7.0140
    -6.7968  -6.7544  -6.7089  -6.6346  -6.5671  -6.4623  -6.4269  -6.4018
    -6.2792  -6.2598  -6.1941  -5.9073  -5.8954  -5.8494  -5.7548  -5.7377
    -5.7207  -5.6634  -5.6013  -5.5861  -5.5508  -5.4841  -5.4719  -5.4658
    -5.3930  -5.3095  -5.2012  -5.1376  -5.0063  -4.9597  -4.9358  -4.8985
    -4.8789  -4.7613  -4.6148  -4.5026  -4.4458  -4.3112  -4.2238  -4.1825
    -4.1045  -3.9919  -3.9635  -3.8550  -3.7498  -3.7457  -3.6974  -3.6583
    -3.6322  -3.5234  -3.5061  -3.4804  -3.4509  -3.4086  -3.3826  -3.3291
    -3.3082  -3.1506  -3.0955  -2.8724  -2.8475  -2.7579  -2.7097  -2.6957
    -2.6648  -2.6072  -2.6042  -2.5369  -2.4591  -2.1915  -1.9561  -1.9349
    -1.8504  -0.7137  -0.5849  -0.4454  -0.1291  -0.0934  -0.0658  -0.0008
     0.0335   0.1630   0.2523   0.2634   0.2904   0.3196   0.3990   0.5223
     0.5558   0.6066   0.6167   0.6536   0.6933   0.7170   0.7672   0.7870
     0.8326   0.8738   0.8909   0.9481   0.9828   1.0207   1.0935   1.4043
     1.4220

     the Fermi energy is    -0.7300 ev

!    total energy              =   -2205.53833662 Ry
     estimated scf accuracy    <       0.00000070 Ry
     smearing contrib. (-TS)   =      -0.00744079 Ry
     internal energy E=F+TS    =   -2205.53089583 Ry

     The total energy is F=E-TS. E is the sum of the following terms:
     one-electron contribution =  -18050.59555127 Ry
     hartree contribution      =    9012.61336106 Ry
     xc contribution           =    -385.40862368 Ry
     ewald contribution        =    7217.85991805 Ry

     convergence has been achieved in  16 iterations

     negative rho (up, down):  1.368E-04 0.000E+00

     Forces acting on atoms (cartesian axes, Ry/au):

     atom    1 type  1   force =     0.01144282   -0.02323449    0.00660537
     atom    2 type  2   force =    -0.01783658    0.01660874    0.00110054
     atom    3 type  2   force =    -0.01197183    0.00965209   -0.00338249
     atom    4 type  1   force =     0.01086068   -0.00850128   -0.00056182
     atom    5 type  2   force =    -0.00148228   -0.00509784   -0.00777802
     atom    6 type  2   force =     0.00411844    0.01138451    0.00302319
     atom    7 type  1   force =    -0.00362358    0.00145131   -0.00752240
     atom    8 type  2   force =     0.00032629   -0.00455116    0.01775404
     atom    9 type  2   force =     0.01463625    0.00377099    0.00998258
     atom   10 type  1   force =    -0.01015982    0.00878400   -0.02910551
     atom   11 type  2   force =     0.00177017   -0.00236783   -0.00409934
     atom   12 type  2   force =     0.00008533    0.00068428    0.00543508
     atom   13 type  1   force =     0.01534312    0.02577681   -0.00720391
     atom   14 type  2   force =     0.01331921   -0.00091543    0.00816091
     atom   15 type  2   force =    -0.01147216    0.00104764   -0.01087014
     atom   16 type  1   force =    -0.00310181    0.00055091    0.00133159
     atom   17 type  2   force =     0.00953068    0.00728868    0.00218725
     atom   18 type  2   force =    -0.00396559   -0.00786924    0.01626217
     atom   19 type  1   force =     0.01292010    0.00325952   -0.00378087
     atom   20 type  2   force =     0.00265230   -0.00566347    0.00048097
     atom   21 type  1   force =    -0.00831429    0.00902937    0.00092768
     atom   22 type  2   force =     0.00168881   -0.00606856    0.00004663
     atom   23 type  2   force =    -0.00188976    0.00154778    0.00884359
     atom   24 type  1   force =    -0.02451891    0.01189440   -0.05501385
     atom   25 type  2   force =     0.06148221   -0.00241591   -0.02851350
     atom   26 type  2   force =    -0.01171437   -0.00047026   -0.00395680
     atom   27 type  1   force =    -0.00236736   -0.01148834    0.00552458
     atom   28 type  2   force =     0.00057700    0.00212725   -0.00500278
     atom   29 type  2   force =     0.00212237   -0.00064670   -0.00201912
     atom   30 type  1   force =    -0.00274030    0.01041205   -0.00475279
     atom   31 type  2   force =    -0.00093028   -0.00065328    0.01709454
     atom   32 type  2   force =    -0.01141380    0.00592265    0.00715540
     atom   33 type  1   force =     0.00112113   -0.02041948   -0.00722148
     atom   34 type  2   force =     0.00043259   -0.05020090   -0.00925345
     atom   35 type  2   force =    -0.00593921    0.00851590    0.01433069
     atom   36 type  3   force =    -0.03098757    0.01085528    0.06379145
     The non-local contrib.  to forces
     atom    1 type  1   force =    -0.00093368    0.03763088   -0.01322745
     atom    2 type  2   force =    -0.00917161    0.00527298   -0.24924288
     atom    3 type  2   force =    -0.01567356   -0.00260195    0.27231369
     atom    4 type  1   force =    -0.00861469    0.01416582    0.00322948
     atom    5 type  2   force =     0.00734170   -0.03399258   -0.25361330
     atom    6 type  2   force =    -0.00115067    0.00993990    0.26279112
     atom    7 type  1   force =    -0.03319747   -0.01373324   -0.01374528
     atom    8 type  2   force =     0.00529427   -0.00358791   -0.25305845
     atom    9 type  2   force =     0.01319825   -0.01304634    0.27643573
     atom   10 type  1   force =     0.00068139   -0.00131687   -0.00104560
     atom   11 type  2   force =     0.01126122    0.00963387   -0.25809212
     atom   12 type  2   force =    -0.01146069   -0.01236037    0.26267927
     atom   13 type  1   force =    -0.00039745    0.01564821   -0.01649977
     atom   14 type  2   force =     0.01642141   -0.00889409   -0.25544375
     atom   15 type  2   force =    -0.01415568   -0.00068734    0.26046134
     atom   16 type  1   force =     0.00646952    0.04741070   -0.02616959
     atom   17 type  2   force =     0.00140798   -0.02991932   -0.24736015
     atom   18 type  2   force =     0.00006032   -0.01207729    0.27589961
     atom   19 type  1   force =     0.02934960   -0.01756410   -0.01030922
     atom   20 type  2   force =    -0.00060496   -0.02120360    0.26374477
     atom   21 type  1   force =     0.00881488    0.00944362    0.00745943
     atom   22 type  2   force =    -0.00299560    0.00565093   -0.25533577
     atom   23 type  2   force =     0.00282494   -0.01412022    0.26874789
     atom   24 type  1   force =    -0.00218762    0.02447138   -0.00818796
     atom   25 type  2   force =    -0.15196516    0.07947141    0.04696671
     atom   26 type  2   force =    -0.00245975   -0.01418140    0.27170756
     atom   27 type  1   force =     0.00095341    0.01862988    0.00855035
     atom   28 type  2   force =    -0.00443309   -0.02929998   -0.25748610
     atom   29 type  2   force =     0.00607183   -0.00106933    0.26491432
     atom   30 type  1   force =    -0.00395769    0.01004832    0.00694404
     atom   31 type  2   force =    -0.00813792   -0.00051062   -0.25077098
     atom   32 type  2   force =    -0.00730879   -0.01523708    0.27179078
     atom   33 type  1   force =    -0.00250285    0.00344573   -0.01306675
     atom   34 type  2   force =     0.00203189   -0.03438886   -0.27201388
     atom   35 type  2   force =     0.00528040   -0.00903123    0.27383360
     atom   36 type  3   force =     0.04440197   -0.02416218   -0.05072249
     The ionic contribution  to forces
     atom    1 type  1   force =     0.27080823    0.26956816    5.58345243
     atom    2 type  2   force =    -1.09716018    0.32284917   39.11964294
     atom    3 type  2   force =    -0.20969473    0.00446651  -36.15497124
     atom    4 type  1   force =    -0.00972340    0.74140721    0.59626187
     atom    5 type  2   force =    -1.01006201    1.56823494   38.73793574
     atom    6 type  2   force =     0.33343385   -0.47594375  -38.03653792
     atom    7 type  1   force =    -2.63713338   -2.80213938    2.58285110
     atom    8 type  2   force =    -1.01534349    0.04756506   37.39047341
     atom    9 type  2   force =     0.33077676   -0.02851693  -37.99801595
     atom   10 type  1   force =    -1.28838939   -0.52984557    5.49487036
     atom   11 type  2   force =    -0.59275600   -1.66894846   39.13769511
     atom   12 type  2   force =     0.43244123    0.66920442  -37.85546818
     atom   13 type  1   force =     0.80886973    1.06956900    2.51248062
     atom   14 type  2   force =     0.15729602   -0.02910320   38.48658673
     atom   15 type  2   force =     0.17517574   -0.07035634  -36.83203005
     atom   16 type  1   force =     0.02096003    4.04731881    0.46201395
     atom   17 type  2   force =     0.94745312    1.65870351   37.88239306
     atom   18 type  2   force =    -0.13535283   -0.61192458  -38.59542883
     atom   19 type  1   force =     2.76833294   -2.48071116    0.64686635
     atom   20 type  2   force =     0.23448166   -0.19150043  -38.46663540
     atom   21 type  1   force =     0.10891721   -0.05928403    1.10989700
     atom   22 type  2   force =     0.53951766   -1.83488096   38.40912138
     atom   23 type  2   force =    -0.06636748    0.63366416  -38.30594288
     atom   24 type  1   force =    -0.83792815    1.34664457    4.92809127
     atom   25 type  2   force =     1.84317095   -0.34781602   37.87897580
     atom   26 type  2   force =    -0.26249804    0.05073798  -37.44820945
     atom   27 type  1   force =     0.08345927    0.64321646   -2.39810019
     atom   28 type  2   force =    -0.06310725    1.37163062   38.07356420
     atom   29 type  2   force =    -0.28164592   -0.37793940  -37.32443145
     atom   30 type  1   force =    -0.36829503   -0.95494830   -0.06359572
     atom   31 type  2   force =     1.24356479   -0.02594851   37.32186059
     atom   32 type  2   force =    -0.47516652    0.00299979  -38.63630834
     atom   33 type  1   force =     0.91605904   -1.21284581    1.71402702
     atom   34 type  2   force =     0.17620890   -1.69256920   39.29281491
     atom   35 type  2   force =    -0.31157731    0.43394971  -37.84797486
     atom   36 type  3   force =    -0.72872604    0.51349195    8.60177461
     The local contribution  to forces
     atom    1 type  1   force =    -0.25843544   -0.33047018   -5.56253168
     atom    2 type  2   force =     1.08883676   -0.31118812  -38.88833280
     atom    3 type  2   force =     0.21270874    0.00775260   35.90071054
     atom    4 type  1   force =     0.02933087   -0.76403611   -0.59897507
     atom    5 type  2   force =     1.00196265   -1.54131396  -38.51194765
     atom    6 type  2   force =    -0.32832074    0.47835179   37.79797163
     atom    7 type  1   force =     2.66669056    2.81735549   -2.57548131
     atom    8 type  2   force =     1.01066017   -0.04900883  -37.13948079
     atom    9 type  2   force =    -0.32877650    0.04455901   37.75288138
     atom   10 type  1   force =     1.27759788    0.53992024   -5.52181974
     atom   11 type  2   force =     0.58381589    1.65779820  -38.90372864
     atom   12 type  2   force =    -0.42196750   -0.65722924   37.61939785
     atom   13 type  1   force =    -0.79316481   -1.05945188   -2.50208644
     atom   14 type  2   force =    -0.15978285    0.03712205  -38.24281728
     atom   15 type  2   force =    -0.17331800    0.07197479   36.58167670
     atom   16 type  1   force =    -0.03061771   -4.09412193   -0.43342906
     atom   17 type  2   force =    -0.93952364   -1.62329214  -37.65238119
     atom   18 type  2   force =     0.13132531    0.61607684   38.35726419
     atom   19 type  1   force =    -2.78484699    2.50156074   -0.63921274
     atom   20 type  2   force =    -0.23145147    0.20627303   38.22478626
     atom   21 type  1   force =    -0.12611743    0.05886354   -1.11536682
     atom   22 type  2   force =    -0.53495431    1.82391192  -38.17354967
     atom   23 type  2   force =     0.06195008   -0.61915284   38.06740386
     atom   24 type  1   force =     0.81564220   -1.35920583   -4.97381040
     atom   25 type  2   force =    -1.64097086    0.27187482  -37.95526942
     atom   26 type  2   force =     0.25341811   -0.03779614   37.19428956
     atom   27 type  1   force =    -0.08683161   -0.67327452    2.39611583
     atom   28 type  2   force =     0.06800541   -1.34257525  -37.84053273
     atom   29 type  2   force =     0.27826351    0.37875880   37.07857138
     atom   30 type  1   force =     0.36960940    0.95528816    0.05300207
     atom   31 type  2   force =    -1.23687996    0.02571475  -37.07392345
     atom   32 type  2   force =     0.47091216    0.01729138   38.39301853
     atom   33 type  1   force =    -0.91243060    1.18889233   -1.70708090
     atom   34 type  2   force =    -0.17791736    1.67595493  -39.05055381
     atom   35 type  2   force =     0.30085573   -0.41727400   37.61010058
     atom   36 type  3   force =     0.65334644   -0.47848465   -8.48719357
     The core correction contribution to forces
     atom    1 type  1   force =     0.00000000    0.00000000    0.00000000
     atom    2 type  2   force =    -0.00030175   -0.00035377    0.01945265
     atom    3 type  2   force =     0.00071097    0.00001146   -0.02101374
     atom    4 type  1   force =     0.00000000    0.00000000    0.00000000
     atom    5 type  2   force =    -0.00069513    0.00197425    0.02032667
     atom    6 type  2   force =     0.00018360   -0.00096888   -0.02084302
     atom    7 type  1   force =     0.00000000    0.00000000    0.00000000
     atom    8 type  2   force =    -0.00022957    0.00048526    0.02030455
     atom    9 type  2   force =    -0.00049463    0.00076204   -0.02095116
     atom   10 type  1   force =     0.00000000    0.00000000    0.00000000
     atom   11 type  2   force =    -0.00054842   -0.00084499    0.02048419
     atom   12 type  2   force =     0.00106700    0.00109680   -0.02078140
     atom   13 type  1   force =     0.00000000    0.00000000    0.00000000
     atom   14 type  2   force =    -0.00065514   -0.00007333    0.02025508
     atom   15 type  2   force =     0.00079576    0.00008772   -0.02054764
     atom   16 type  1   force =     0.00000000    0.00000000    0.00000000
     atom   17 type  2   force =     0.00014868    0.00176685    0.01998763
     atom   18 type  2   force =    -0.00004322    0.00003855   -0.02109681
     atom   19 type  1   force =     0.00000000    0.00000000    0.00000000
     atom   20 type  2   force =     0.00016513    0.00079272   -0.02106969
     atom   21 type  1   force =     0.00000000    0.00000000    0.00000000
     atom   22 type  2   force =     0.00010462   -0.00078690    0.02024307
     atom   23 type  2   force =    -0.00030070    0.00111896   -0.02092656
     atom   24 type  1   force =     0.00000000    0.00000000    0.00000000
     atom   25 type  2   force =     0.01127321   -0.00595830    0.00126643
     atom   26 type  2   force =    -0.00017032    0.00077559   -0.02132986
     atom   27 type  1   force =     0.00000000    0.00000000    0.00000000
     atom   28 type  2   force =     0.00012415    0.00237597    0.01987999
     atom   29 type  2   force =    -0.00054665   -0.00038411   -0.02066126
     atom   30 type  1   force =     0.00000000    0.00000000    0.00000000
     atom   31 type  2   force =     0.00052144    0.00012852    0.02036545
     atom   32 type  2   force =     0.00014341    0.00088431   -0.02092786
     atom   33 type  1   force =     0.00000000    0.00000000    0.00000000
     atom   34 type  2   force =     0.00012669    0.00076767    0.02093485
     atom   35 type  2   force =    -0.00048546    0.00083824   -0.02121222
     atom   36 type  3   force =     0.00000000    0.00000000    0.00000000
     The Hubbard contrib.    to forces
     atom    1 type  1   force =     0.00000000    0.00000000    0.00000000
     atom    2 type  2   force =     0.00000000    0.00000000    0.00000000
     atom    3 type  2   force =     0.00000000    0.00000000    0.00000000
     atom    4 type  1   force =     0.00000000    0.00000000    0.00000000
     atom    5 type  2   force =     0.00000000    0.00000000    0.00000000
     atom    6 type  2   force =     0.00000000    0.00000000    0.00000000
     atom    7 type  1   force =     0.00000000    0.00000000    0.00000000
     atom    8 type  2   force =     0.00000000    0.00000000    0.00000000
     atom    9 type  2   force =     0.00000000    0.00000000    0.00000000
     atom   10 type  1   force =     0.00000000    0.00000000    0.00000000
     atom   11 type  2   force =     0.00000000    0.00000000    0.00000000
     atom   12 type  2   force =     0.00000000    0.00000000    0.00000000
     atom   13 type  1   force =     0.00000000    0.00000000    0.00000000
     atom   14 type  2   force =     0.00000000    0.00000000    0.00000000
     atom   15 type  2   force =     0.00000000    0.00000000    0.00000000
     atom   16 type  1   force =     0.00000000    0.00000000    0.00000000
     atom   17 type  2   force =     0.00000000    0.00000000    0.00000000
     atom   18 type  2   force =     0.00000000    0.00000000    0.00000000
     atom   19 type  1   force =     0.00000000    0.00000000    0.00000000
     atom   20 type  2   force =     0.00000000    0.00000000    0.00000000
     atom   21 type  1   force =     0.00000000    0.00000000    0.00000000
     atom   22 type  2   force =     0.00000000    0.00000000    0.00000000
     atom   23 type  2   force =     0.00000000    0.00000000    0.00000000
     atom   24 type  1   force =     0.00000000    0.00000000    0.00000000
     atom   25 type  2   force =     0.00000000    0.00000000    0.00000000
     atom   26 type  2   force =     0.00000000    0.00000000    0.00000000
     atom   27 type  1   force =     0.00000000    0.00000000    0.00000000
     atom   28 type  2   force =     0.00000000    0.00000000    0.00000000
     atom   29 type  2   force =     0.00000000    0.00000000    0.00000000
     atom   30 type  1   force =     0.00000000    0.00000000    0.00000000
     atom   31 type  2   force =     0.00000000    0.00000000    0.00000000
     atom   32 type  2   force =     0.00000000    0.00000000    0.00000000
     atom   33 type  1   force =     0.00000000    0.00000000    0.00000000
     atom   34 type  2   force =     0.00000000    0.00000000    0.00000000
     atom   35 type  2   force =     0.00000000    0.00000000    0.00000000
     atom   36 type  3   force =     0.00000000    0.00000000    0.00000000
     The SCF correction term to forces
     atom    1 type  1   force =     0.00000325    0.00003258   -0.00104949
     atom    2 type  2   force =    -0.00004025    0.00002441   -0.00038093
     atom    3 type  2   force =    -0.00002371    0.00001940   -0.00038331
     atom    4 type  1   force =    -0.00013256   -0.00004228   -0.00103966
     atom    5 type  2   force =    -0.00002995   -0.00000455   -0.00044104
     atom    6 type  2   force =    -0.00002805    0.00000137   -0.00032018
     atom    7 type  1   force =     0.00001625   -0.00003564   -0.00110848
     atom    8 type  2   force =    -0.00005554   -0.00000882   -0.00044623
     atom    9 type  2   force =    -0.00006808    0.00000914   -0.00032898
     atom   10 type  1   force =    -0.00005015    0.00002212   -0.00107209
     atom   11 type  2   force =    -0.00000299   -0.00001052   -0.00041945
     atom   12 type  2   force =     0.00000483   -0.00003141   -0.00035402
     atom   13 type  1   force =     0.00003519    0.00000741   -0.00105989
     atom   14 type  2   force =     0.00003931    0.00002907   -0.00038143
     atom   15 type  2   force =     0.00002957    0.00002474   -0.00039204
     atom   16 type  1   force =     0.00008589   -0.00006075   -0.00104526
     atom   17 type  2   force =     0.00004407    0.00002571   -0.00041367
     atom   18 type  2   force =     0.00004437    0.00001317   -0.00033754
     atom   19 type  1   force =     0.00008409   -0.00003004   -0.00108682
     atom   20 type  2   force =     0.00006148   -0.00002925   -0.00030653
     atom   21 type  1   force =     0.00007059    0.00000216   -0.00102349
     atom   22 type  2   force =     0.00001598    0.00003238   -0.00039393
     atom   23 type  2   force =     0.00000294    0.00003365   -0.00040027
     atom   24 type  1   force =    -0.00004580   -0.00001980   -0.00106831
     atom   25 type  2   force =    -0.00002640    0.00000811   -0.00041458
     atom   26 type  2   force =    -0.00000482   -0.00001036   -0.00037618
     atom   27 type  1   force =     0.00005112   -0.00006423   -0.00100297
     atom   28 type  2   force =    -0.00001268   -0.00000819   -0.00038970
     atom   29 type  2   force =    -0.00002087   -0.00001673   -0.00037367
     atom   30 type  1   force =    -0.00009744    0.00001980   -0.00106474
     atom   31 type  2   force =     0.00000091   -0.00004148   -0.00039862
     atom   32 type  2   force =     0.00000550   -0.00001983   -0.00037927
     atom   33 type  1   force =    -0.00000492    0.00008419   -0.00106241
     atom   34 type  2   force =    -0.00001799    0.00003049   -0.00039708
     atom   35 type  2   force =    -0.00001301    0.00002912   -0.00037797
     atom   36 type  3   force =    -0.00001041    0.00000608   -0.00002866

     Total force =     0.155505     Total SCF correction =     0.004114

     BFGS Geometry Optimization
     Energy error            =      0.0E+00 Ry
     Gradient error          =      6.4E-02 Ry/Bohr

     number of scf cycles    =   1
     number of bfgs steps    =   0

     energy             new  =   -2205.5383366205 Ry

     new trust radius        =       0.0717454978 bohr
     new conv_thr            =       0.0000010000 Ry


ATOMIC_POSITIONS (angstrom)
Mo            6.5806036866        1.7755110677        2.8271384452
S             8.1672706288        0.8184929912        4.4351207356
S             8.1868978685        0.8163494121        1.2760934907
Mo            8.1009097896        4.4905582594        2.7175210911
S             6.4991248697        3.7197138296        4.3425446979
S             6.5555291826        3.5177619767        1.1228800317
Mo            6.4880641788        7.2192052857        2.6679037994
S             8.0819003914        6.3414626216        4.2518565979
S             8.0886628174        6.3066978369        1.0891455547
Mo            8.1552427039        9.9068287033        2.8280597890
S             6.4961043276        8.9416738129        4.3809362546
S             6.6179923567        9.0490733182        1.1427834240
Mo            3.4297788915        1.7605963506        2.7726590150
S             4.9822137109        0.8164567861        4.3548516615
S             5.0517629491        0.8468164962        1.2209062301
Mo            4.9781152760        4.5134695299        2.6335891974
S             3.4328850824        3.6754566908        4.2808670244
S             3.4358220788        3.5440644763        1.0669572513
Mo            3.4606987636        7.2180494032        2.6286761115
S             4.9846377322        6.3239353079        1.0375082487
Mo            5.0078641899        9.9063781899        2.7438918680
S             3.4718517951        8.9405399237        4.3256159887
S             3.4074291465        9.0658090353        1.1007481232
Mo            0.2831156363        1.7538037744        2.8203326348
S             1.8829971946        0.7914155626        4.3831207427
S             1.8546010541        0.8541770664        1.2073070074
Mo            1.8594385563        4.4895873933        2.6631208628
S             0.2725191827        3.6555245179        4.3349367419
S             0.2323543191        3.5269070100        1.1709494096
Mo            0.2697020490        7.2221559116        2.6991813597
S             1.9017459650        6.3124531365        4.2314901640
S             1.8561982936        6.3134779448        1.0483457589
Mo            1.8449399374        9.9293336318        2.7691248083
S             0.2961418174        9.0634326546        4.4089727491
S             0.2736285072        9.0480321371        1.1579842558
H             1.0343531927        1.2200665865        5.3772187449



     Writing config-only to output data dir ./MoS2-V-O.save/
     NEW-OLD atomic charge density approx. for the potential

     negative rho (up, down):  1.439E-04 0.000E+00

     total cpu time spent up to now is     1613.6 secs

     Self-consistent Calculation

     iteration #  1     ecut=    80.00 Ry     beta= 0.70
     Davidson diagonalization with overlap
     ethr =  1.00E-06,  avg # of iterations =  8.0

     negative rho (up, down):  1.806E-04 0.000E+00

     total cpu time spent up to now is     1959.9 secs

     total energy              =   -2205.55476382 Ry
     estimated scf accuracy    <       0.00225585 Ry

     iteration #  2     ecut=    80.00 Ry     beta= 0.70
     Davidson diagonalization with overlap
     ethr =  7.35E-07,  avg # of iterations =  2.0

     negative rho (up, down):  2.391E-04 0.000E+00

     total cpu time spent up to now is     2273.0 secs

     total energy              =   -2205.55476093 Ry
     estimated scf accuracy    <       0.00044169 Ry

     iteration #  3     ecut=    80.00 Ry     beta= 0.70
     Davidson diagonalization with overlap
     ethr =  1.44E-07,  avg # of iterations =  5.0

     negative rho (up, down):  2.617E-04 0.000E+00

     total cpu time spent up to now is     2687.1 secs

     total energy              =   -2205.55482918 Ry
     estimated scf accuracy    <       0.00002582 Ry

     iteration #  4     ecut=    80.00 Ry     beta= 0.70
     Davidson diagonalization with overlap
     ethr =  8.41E-09,  avg # of iterations =  9.0

     negative rho (up, down):  2.629E-04 0.000E+00

     total cpu time spent up to now is     3576.6 secs

     total energy              =   -2205.55483871 Ry
     estimated scf accuracy    <       0.00000786 Ry

     iteration #  5     ecut=    80.00 Ry     beta= 0.70
     Davidson diagonalization with overlap
     ethr =  2.56E-09,  avg # of iterations =  2.0

     negative rho (up, down):  2.547E-04 0.000E+00

     total cpu time spent up to now is     4044.4 secs

     total energy              =   -2205.55483941 Ry
     estimated scf accuracy    <       0.00000152 Ry

     iteration #  6     ecut=    80.00 Ry     beta= 0.70
     Davidson diagonalization with overlap
     ethr =  4.95E-10,  avg # of iterations =  6.0

     negative rho (up, down):  1.370E-04 0.000E+00

     total cpu time spent up to now is     4085.8 secs

     End of self-consistent calculation

          k = 0.0000 0.0000 0.0000 (105382 PWs)   bands (ev):

   -62.8709 -62.8443 -62.8210 -62.8124 -62.8024 -62.7932 -62.7825 -62.7660
   -62.7363 -62.5895 -62.5727 -62.5258 -37.1841 -37.1403 -37.1157 -37.0911
   -37.0872 -37.0783 -37.0718 -37.0503 -37.0257 -37.0115 -37.0067 -36.9951
   -36.9848 -36.9768 -36.9715 -36.9658 -36.9627 -36.9522 -36.9472 -36.9394
   -36.9061 -36.8969 -36.8767 -36.8505 -36.8390 -36.8111 -36.8035 -36.8021
   -36.7684 -36.7584 -36.7333 -36.7283 -36.7116 -36.6671 -36.5501 -36.5411
   -16.4197 -15.6847 -15.1318 -15.0176 -14.8785 -14.7856 -14.6547 -14.4434
   -14.3883 -14.3734 -14.3271 -14.3195 -14.2919 -14.2195 -14.1230 -14.0860
   -14.0500 -14.0430 -13.9585 -13.8968 -13.7645 -13.7522 -13.7271  -9.1532
    -7.6429  -7.4481  -7.3080  -7.2354  -7.2136  -7.1494  -7.1081  -7.0054
    -6.7954  -6.7616  -6.7122  -6.6379  -6.5730  -6.4607  -6.4253  -6.4067
    -6.2741  -6.2548  -6.1934  -5.9102  -5.8829  -5.8563  -5.7678  -5.7448
    -5.7247  -5.6705  -5.6125  -5.5945  -5.5593  -5.4968  -5.4798  -5.4555
    -5.3874  -5.3001  -5.1905  -5.1356  -5.0054  -4.9652  -4.9413  -4.9059
    -4.8900  -4.7708  -4.6098  -4.4893  -4.4435  -4.3020  -4.2374  -4.1866
    -4.1291  -4.0062  -3.9732  -3.8540  -3.7520  -3.7477  -3.6984  -3.6540
    -3.6294  -3.5415  -3.4928  -3.4844  -3.4599  -3.4147  -3.3978  -3.3268
    -3.3155  -3.1580  -3.0940  -2.8741  -2.8400  -2.7527  -2.7052  -2.7016
    -2.6717  -2.6261  -2.6139  -2.5382  -2.4711  -2.1903  -1.9522  -1.9427
    -1.8727  -0.7413  -0.5905  -0.4636  -0.1245  -0.0846  -0.0565   0.0080
     0.0502   0.1714   0.2523   0.2609   0.2993   0.3295   0.4041   0.5212
     0.5596   0.6097   0.6233   0.6499   0.6872   0.7297   0.7526   0.7905
     0.8236   0.8768   0.8943   0.9566   0.9757   1.0242   1.0873   1.3950
     1.4234

     the Fermi energy is    -0.7527 ev

!    total energy              =   -2205.55483995 Ry
     estimated scf accuracy    <       0.00000055 Ry
     smearing contrib. (-TS)   =      -0.00702413 Ry
     internal energy E=F+TS    =   -2205.54781582 Ry

     The total energy is F=E-TS. E is the sum of the following terms:
     one-electron contribution =  -18053.83985554 Ry
     hartree contribution      =    9014.18970119 Ry
     xc contribution           =    -385.38372342 Ry
     ewald contribution        =    7219.48606195 Ry

     convergence has been achieved in   6 iterations

     negative rho (up, down):  1.370E-04 0.000E+00

     Forces acting on atoms (cartesian axes, Ry/au):

     atom    1 type  1   force =     0.00238379   -0.01297401    0.00007922
     atom    2 type  2   force =    -0.00843635    0.01187551   -0.00304607
     atom    3 type  2   force =    -0.01417453    0.00730194   -0.01286847
     atom    4 type  1   force =     0.00800425   -0.00247329    0.00202615
     atom    5 type  2   force =     0.00026672   -0.00602656   -0.00733255
     atom    6 type  2   force =     0.00348884    0.00682761    0.00400259
     atom    7 type  1   force =    -0.00159382   -0.00058105   -0.00121743
     atom    8 type  2   force =    -0.00020866   -0.00403041    0.01043918
     atom    9 type  2   force =     0.01221940    0.00278458    0.00767071
     atom   10 type  1   force =    -0.00356434    0.00784723   -0.00976045
     atom   11 type  2   force =     0.00102477   -0.00088821   -0.00657305
     atom   12 type  2   force =    -0.00282173    0.00094374    0.00076522
     atom   13 type  1   force =     0.01389788    0.01561340   -0.00648910
     atom   14 type  2   force =     0.00969799    0.00009079    0.00619020
     atom   15 type  2   force =    -0.00797189    0.00163381   -0.00920571
     atom   16 type  1   force =    -0.00125417    0.00233827    0.00068422
     atom   17 type  2   force =     0.00824056    0.00700940    0.00371466
     atom   18 type  2   force =    -0.00251041   -0.00440706    0.01043582
     atom   19 type  1   force =     0.00876769    0.00026235    0.00072226
     atom   20 type  2   force =     0.00246101   -0.00510865   -0.00204579
     atom   21 type  1   force =    -0.00572469    0.00653876    0.00243529
     atom   22 type  2   force =     0.00206991   -0.00502796    0.00027697
     atom   23 type  2   force =    -0.00087313    0.00059156    0.00398051
     atom   24 type  1   force =    -0.00983073    0.00415386   -0.02104901
     atom   25 type  2   force =     0.00770017    0.01681698    0.01141234
     atom   26 type  2   force =    -0.00623212   -0.00089688   -0.00454004
     atom   27 type  1   force =    -0.00190947   -0.00559246    0.00658132
     atom   28 type  2   force =    -0.00003647   -0.00268997   -0.00591792
     atom   29 type  2   force =     0.00142223    0.00272586   -0.00859872
     atom   30 type  1   force =    -0.00280348    0.00197703    0.00263421
     atom   31 type  2   force =     0.00002152   -0.00027695    0.00945139
     atom   32 type  2   force =    -0.00845559    0.00442158    0.00697256
     atom   33 type  1   force =     0.00076215   -0.01376977   -0.00172017
     atom   34 type  2   force =    -0.00276814   -0.03711947   -0.01284663
     atom   35 type  2   force =    -0.00575179    0.00724475    0.00598283
     atom   36 type  3   force =     0.00449265   -0.00713631    0.01675346
     The non-local contrib.  to forces
     atom    1 type  1   force =     0.00144196    0.03357841   -0.01458442
     atom    2 type  2   force =    -0.00345057    0.00107799   -0.24880928
     atom    3 type  2   force =    -0.01466811   -0.00539358    0.26522103
     atom    4 type  1   force =    -0.00637603    0.01350608    0.00184409
     atom    5 type  2   force =     0.00854798   -0.03519922   -0.25366554
     atom    6 type  2   force =    -0.00180593    0.00561853    0.26427363
     atom    7 type  1   force =    -0.03262184   -0.01425489   -0.01539308
     atom    8 type  2   force =     0.00474187   -0.00401152   -0.25844343
     atom    9 type  2   force =     0.01086996   -0.01400111    0.27572084
     atom   10 type  1   force =     0.00003434   -0.00100341   -0.00218332
     atom   11 type  2   force =     0.00953946    0.01052371   -0.25983084
     atom   12 type  2   force =    -0.01337094   -0.01172549    0.26090513
     atom   13 type  1   force =     0.00086604    0.01901227   -0.01687190
     atom   14 type  2   force =     0.01404551   -0.00846839   -0.25695824
     atom   15 type  2   force =    -0.01141877   -0.00068244    0.26102476
     atom   16 type  1   force =     0.00584111    0.04670644   -0.02740853
     atom   17 type  2   force =     0.00060255   -0.02917237   -0.24512931
     atom   18 type  2   force =     0.00116203   -0.00901779    0.27191446
     atom   19 type  1   force =     0.02994835   -0.01708084   -0.01125740
     atom   20 type  2   force =    -0.00068206   -0.02032251    0.26241099
     atom   21 type  1   force =     0.00777144    0.01017878    0.00651256
     atom   22 type  2   force =    -0.00184275    0.00602418   -0.25561314
     atom   23 type  2   force =     0.00406914   -0.01472443    0.26585270
     atom   24 type  1   force =    -0.00557287    0.02721906   -0.00635308
     atom   25 type  2   force =    -0.20270448    0.10031907    0.07407148
     atom   26 type  2   force =     0.00096947   -0.01393081    0.27311899
     atom   27 type  1   force =     0.00011725    0.01567053    0.00718158
     atom   28 type  2   force =    -0.00480277   -0.02931887   -0.25750029
     atom   29 type  2   force =     0.00546387   -0.00116709    0.26139296
     atom   30 type  1   force =    -0.00343232    0.01137458    0.00600324
     atom   31 type  2   force =    -0.00665655   -0.00093204   -0.25678254
     atom   32 type  2   force =    -0.00425926   -0.01666005    0.27281563
     atom   33 type  1   force =    -0.00350848    0.00110663   -0.01309807
     atom   34 type  2   force =    -0.00105910   -0.02449202   -0.27472753
     atom   35 type  2   force =     0.00384139   -0.00957523    0.26833087
     atom   36 type  3   force =     0.03738671   -0.01951557   -0.04259197
     The ionic contribution  to forces
     atom    1 type  1   force =     0.03080484    0.51767979    5.77570079
     atom    2 type  2   force =    -0.75649874    0.20164385   39.21192504
     atom    3 type  2   force =    -0.25567003   -0.05223618  -36.30099952
     atom    4 type  1   force =    -0.17870491    0.97371752    0.72409765
     atom    5 type  2   force =    -0.99287630    1.59323607   38.68145334
     atom    6 type  2   force =     0.27702389   -0.47741049  -37.95359641
     atom    7 type  1   force =    -2.50858898   -2.89372137    2.51958823
     atom    8 type  2   force =    -1.04973444    0.04907066   37.44647126
     atom    9 type  2   force =     0.28698137   -0.06102179  -37.91033121
     atom   10 type  1   force =    -1.02032486   -0.53481290    5.21854688
     atom   11 type  2   force =    -0.52642539   -1.66116546   39.12506270
     atom   12 type  2   force =     0.34897307    0.61795823  -37.85298866
     atom   13 type  1   force =     0.58988275    0.76857852    2.47252133
     atom   14 type  2   force =     0.05103985   -0.03176568   38.57910018
     atom   15 type  2   force =     0.16328375   -0.05577575  -36.89755708
     atom   16 type  1   force =     0.16801622    4.11456008    0.52641300
     atom   17 type  2   force =     0.89513588    1.65632947   37.99523793
     atom   18 type  2   force =    -0.12420370   -0.51855284  -38.58503574
     atom   19 type  1   force =     2.60832770   -2.65426742    0.62187421
     atom   20 type  2   force =     0.22377318   -0.22186155  -38.49674744
     atom   21 type  1   force =     0.05697786   -0.07447677    1.25514281
     atom   22 type  2   force =     0.51335158   -1.80254514   38.47109636
     atom   23 type  2   force =    -0.05049298    0.62967980  -38.30022623
     atom   24 type  1   force =    -0.35486745    0.89961682    4.18626561
     atom   25 type  2   force =     1.42485226   -0.24279942   37.71985393
     atom   26 type  2   force =    -0.13219248   -0.02523032  -37.31999796
     atom   27 type  1   force =     0.11152667    0.90158726   -2.12236206
     atom   28 type  2   force =    -0.01436753    1.20197781   38.13409964
     atom   29 type  2   force =    -0.23789414   -0.21225438  -37.44218012
     atom   30 type  1   force =    -0.34513952   -1.17811155   -0.06071777
     atom   31 type  2   force =     1.25292516   -0.02817623   37.34255577
     atom   32 type  2   force =    -0.42223365   -0.03698784  -38.53105155
     atom   33 type  1   force =     0.77607823   -0.79394556    1.87903492
     atom   34 type  2   force =     0.09939977   -1.42018379   39.26327500
     atom   35 type  2   force =    -0.27565363    0.42140285  -37.81418714
     atom   36 type  3   force =    -0.63248529    0.43026372    8.43866231
     The local contribution  to forces
     atom    1 type  1   force =    -0.02952596   -0.56477139   -5.76141163
     atom    2 type  2   force =     0.75166952   -0.19048355  -38.98572849
     atom    3 type  2   force =     0.25555942    0.06489112   36.04361808
     atom    4 type  1   force =     0.19356689   -0.99031424   -0.72445359
     atom    5 type  2   force =     0.98548307   -1.56638461  -38.45535371
     atom    6 type  2   force =    -0.27176746    0.47918322   37.71377497
     atom    7 type  1   force =     2.53961792    2.90774462   -2.50607501
     atom    8 type  2   force =     1.04523115   -0.04962347  -37.19797621
     atom    9 type  2   force =    -0.28502048    0.07704293   37.66279554
     atom   10 type  1   force =     1.01681848    0.54410151   -5.22695860
     atom   11 type  2   force =     0.51831124    1.65089366  -38.89230052
     atom   12 type  2   force =    -0.33943198   -0.60605729   37.61320824
     atom   13 type  1   force =    -0.57699301   -0.77227415   -2.46254112
     atom   14 type  2   force =    -0.05474989    0.04041960  -38.33637981
     atom   15 type  2   force =    -0.16054227    0.05796642   36.64767372
     atom   16 type  1   force =    -0.17534005   -4.15940019   -0.49889129
     atom   17 type  2   force =    -0.88779453   -1.62218041  -37.76637647
     atom   18 type  2   force =     0.12052747    0.52292323   38.34433469
     atom   19 type  1   force =    -2.62978986    2.67215328   -0.61048562
     atom   20 type  2   force =    -0.22091164    0.23644617   38.25284338
     atom   21 type  1   force =    -0.07062284    0.07133521   -1.25983258
     atom   22 type  2   force =    -0.50960762    1.79249033  -38.23558451
     atom   23 type  2   force =     0.04579782   -0.61540578   38.05900905
     atom   24 type  1   force =     0.35030917   -0.92256683   -4.20185737
     atom   25 type  2   force =    -1.22760684    0.16588812  -37.78250733
     atom   26 type  2   force =     0.12515289    0.03757129   37.06335632
     atom   27 type  1   force =    -0.11381160   -0.92333978    2.12123255
     atom   28 type  2   force =     0.01893645   -1.17765059  -37.90252887
     atom   29 type  2   force =     0.23429562    0.21616706   37.19263245
     atom   30 type  1   force =     0.34601225    1.16913712    0.05678946
     atom   31 type  2   force =    -1.24677892    0.02872062  -37.09683466
     atom   32 type  2   force =     0.41793657    0.05727023   38.28581181
     atom   33 type  1   force =    -0.77171246    0.77918963   -1.86808613
     atom   34 type  2   force =    -0.10111418    1.40706838  -39.02252837
     atom   35 type  2   force =     0.26649999   -0.40534181   37.57271406
     atom   36 type  3   force =     0.59958979   -0.41788649   -8.37926143
     The core correction contribution to forces
     atom    1 type  1   force =     0.00000000    0.00000000    0.00000000
     atom    2 type  2   force =    -0.00033675   -0.00024148    0.01946665
     atom    3 type  2   force =     0.00057872    0.00009835   -0.02086014
     atom    4 type  1   force =     0.00000000    0.00000000    0.00000000
     atom    5 type  2   force =    -0.00074765    0.00202461    0.02028308
     atom    6 type  2   force =     0.00019143   -0.00079727   -0.02084129
     atom    7 type  1   force =     0.00000000    0.00000000    0.00000000
     atom    8 type  2   force =    -0.00021183    0.00049387    0.02045427
     atom    9 type  2   force =    -0.00039567    0.00076070   -0.02093746
     atom   10 type  1   force =     0.00000000    0.00000000    0.00000000
     atom   11 type  2   force =    -0.00040863   -0.00087309    0.02053289
     atom   12 type  2   force =     0.00107184    0.00105959   -0.02074439
     atom   13 type  1   force =     0.00000000    0.00000000    0.00000000
     atom   14 type  2   force =    -0.00062727   -0.00008111    0.02033067
     atom   15 type  2   force =     0.00069636    0.00010522   -0.02056530
     atom   16 type  1   force =     0.00000000    0.00000000    0.00000000
     atom   17 type  2   force =     0.00016877    0.00176291    0.01995385
     atom   18 type  2   force =    -0.00010677   -0.00003085   -0.02103767
     atom   19 type  1   force =     0.00000000    0.00000000    0.00000000
     atom   20 type  2   force =     0.00016593    0.00072178   -0.02105118
     atom   21 type  1   force =     0.00000000    0.00000000    0.00000000
     atom   22 type  2   force =     0.00003643   -0.00080889    0.02028970
     atom   23 type  2   force =    -0.00032989    0.00116019   -0.02087496
     atom   24 type  1   force =     0.00000000    0.00000000    0.00000000
     atom   25 type  2   force =     0.01351539   -0.00676158   -0.00011317
     atom   26 type  2   force =    -0.00019973    0.00069803   -0.02128845
     atom   27 type  1   force =     0.00000000    0.00000000    0.00000000
     atom   28 type  2   force =     0.00017269    0.00222517    0.01994186
     atom   29 type  2   force =    -0.00048157   -0.00021861   -0.02062875
     atom   30 type  1   force =     0.00000000    0.00000000    0.00000000
     atom   31 type  2   force =     0.00044862    0.00017078    0.02049923
     atom   32 type  2   force =     0.00001607    0.00090069   -0.02092715
     atom   33 type  1   force =     0.00000000    0.00000000    0.00000000
     atom   34 type  2   force =     0.00017736    0.00046604    0.02105502
     atom   35 type  2   force =    -0.00040228    0.00085959   -0.02106835
     atom   36 type  3   force =     0.00000000    0.00000000    0.00000000
     The Hubbard contrib.    to forces
     atom    1 type  1   force =     0.00000000    0.00000000    0.00000000
     atom    2 type  2   force =     0.00000000    0.00000000    0.00000000
     atom    3 type  2   force =     0.00000000    0.00000000    0.00000000
     atom    4 type  1   force =     0.00000000    0.00000000    0.00000000
     atom    5 type  2   force =     0.00000000    0.00000000    0.00000000
     atom    6 type  2   force =     0.00000000    0.00000000    0.00000000
     atom    7 type  1   force =     0.00000000    0.00000000    0.00000000
     atom    8 type  2   force =     0.00000000    0.00000000    0.00000000
     atom    9 type  2   force =     0.00000000    0.00000000    0.00000000
     atom   10 type  1   force =     0.00000000    0.00000000    0.00000000
     atom   11 type  2   force =     0.00000000    0.00000000    0.00000000
     atom   12 type  2   force =     0.00000000    0.00000000    0.00000000
     atom   13 type  1   force =     0.00000000    0.00000000    0.00000000
     atom   14 type  2   force =     0.00000000    0.00000000    0.00000000
     atom   15 type  2   force =     0.00000000    0.00000000    0.00000000
     atom   16 type  1   force =     0.00000000    0.00000000    0.00000000
     atom   17 type  2   force =     0.00000000    0.00000000    0.00000000
     atom   18 type  2   force =     0.00000000    0.00000000    0.00000000
     atom   19 type  1   force =     0.00000000    0.00000000    0.00000000
     atom   20 type  2   force =     0.00000000    0.00000000    0.00000000
     atom   21 type  1   force =     0.00000000    0.00000000    0.00000000
     atom   22 type  2   force =     0.00000000    0.00000000    0.00000000
     atom   23 type  2   force =     0.00000000    0.00000000    0.00000000
     atom   24 type  1   force =     0.00000000    0.00000000    0.00000000
     atom   25 type  2   force =     0.00000000    0.00000000    0.00000000
     atom   26 type  2   force =     0.00000000    0.00000000    0.00000000
     atom   27 type  1   force =     0.00000000    0.00000000    0.00000000
     atom   28 type  2   force =     0.00000000    0.00000000    0.00000000
     atom   29 type  2   force =     0.00000000    0.00000000    0.00000000
     atom   30 type  1   force =     0.00000000    0.00000000    0.00000000
     atom   31 type  2   force =     0.00000000    0.00000000    0.00000000
     atom   32 type  2   force =     0.00000000    0.00000000    0.00000000
     atom   33 type  1   force =     0.00000000    0.00000000    0.00000000
     atom   34 type  2   force =     0.00000000    0.00000000    0.00000000
     atom   35 type  2   force =     0.00000000    0.00000000    0.00000000
     atom   36 type  3   force =     0.00000000    0.00000000    0.00000000
     The SCF correction term to forces
     atom    1 type  1   force =    -0.00033600    0.00053683    0.00036461
     atom    2 type  2   force =     0.00018125   -0.00012364    0.00009012
     atom    3 type  2   force =     0.00002653   -0.00006010    0.00014220
     atom    4 type  1   force =    -0.00048065    0.00061501    0.00052813
     atom    5 type  2   force =    -0.00013932    0.00029424   -0.00005961
     atom    6 type  2   force =    -0.00015203    0.00023129    0.00038182
     atom    7 type  1   force =     0.00000014   -0.00035174    0.00065256
     atom    8 type  2   force =    -0.00023436    0.00003771   -0.00007657
     atom    9 type  2   force =    -0.00021473    0.00000152    0.00041312
     atom   10 type  1   force =    -0.00009124   -0.00044031    0.00082472
     atom   11 type  2   force =     0.00000914   -0.00026937   -0.00004715
     atom   12 type  2   force =    -0.00006267   -0.00029364    0.00037503
     atom   13 type  1   force =     0.00014315    0.00029442    0.00039272
     atom   14 type  2   force =    -0.00000915   -0.00001597    0.00008753
     atom   15 type  2   force =     0.00001009    0.00001802    0.00020832
     atom   16 type  1   force =     0.00022960    0.00046960    0.00056115
     atom   17 type  2   force =     0.00012895    0.00026746    0.00001879
     atom   18 type  2   force =     0.00011161    0.00026886    0.00025021
     atom   19 type  1   force =     0.00028257   -0.00054502    0.00058120
     atom   20 type  2   force =     0.00011666   -0.00009489    0.00048858
     atom   21 type  1   force =     0.00014990   -0.00050080    0.00060263
     atom   22 type  2   force =     0.00013333   -0.00019079    0.00007869
     atom   23 type  2   force =     0.00008385   -0.00012055    0.00021007
     atom   24 type  1   force =     0.00030148   -0.00011753    0.00088596
     atom   25 type  2   force =    -0.00035511    0.00016845    0.00009756
     atom   26 type  2   force =     0.00003879   -0.00000741    0.00026118
     atom   27 type  1   force =     0.00025926    0.00048719    0.00051937
     atom   28 type  2   force =     0.00002576    0.00007418    0.00005986
     atom   29 type  2   force =     0.00003951    0.00019654    0.00017487
     atom   30 type  1   force =    -0.00024284   -0.00042546    0.00054940
     atom   31 type  2   force =     0.00008425   -0.00006243    0.00000371
     atom   32 type  2   force =     0.00008573   -0.00010379    0.00031394
     atom   33 type  1   force =    -0.00009409   -0.00012281    0.00041923
     atom   34 type  2   force =    -0.00017094    0.00001959    0.00006938
     atom   35 type  2   force =    -0.00003620   -0.00010298    0.00018351
     atom   36 type  3   force =     0.00000250   -0.00000032   -0.00006532

     Total force =     0.081605     Total SCF correction =     0.003076
     Energy error            =      1.7E-02 Ry
     Gradient error          =      3.7E-02 Ry/Bohr

     number of scf cycles    =   2
     number of bfgs steps    =   1

     energy             old  =   -2205.5383366205 Ry
     energy             new  =   -2205.5548399536 Ry

     CASE: energy            _new < energy            _old

     new trust radius        =       0.0810608254 bohr
     new conv_thr            =       0.0000000371 Ry


ATOMIC_POSITIONS (angstrom)
Mo            6.5846879166        1.7602061382        2.8283781018
S             8.1568347687        0.8316759470        4.4326899405
S             8.1725552563        0.8243559268        1.2643999995
Mo            8.1097360739        4.4869185070        2.7191681653
S             6.4990919434        3.7136144211        4.3348441331
S             6.5592671882        3.5256668002        1.1268667050
Mo            6.4860475925        7.2189617416        2.6655202929
S             8.0817783722        6.3371810048        4.2640044258
S             8.1017924386        6.3097671009        1.0975285871
Mo            8.1503682654        9.9151513573        2.8144840762
S             6.4973016728        8.9404882024        4.3745427996
S             6.6155749277        9.0500082466        1.1444069330
Mo            3.4444808519        1.7786274829        2.7657873847
S             4.9929361208        0.8163727191        4.3616353315
S             5.0428561241        0.8484107523        1.2110425078
Mo            4.9764840189        4.5155830001        2.6344151848
S             3.4416792286        3.6827918959        4.2844572334
S             3.4329546630        3.5388697487        1.0788376176
Mo            3.4705484071        7.2188535962        2.6286282800
S             4.9872296694        6.3185269087        1.0358299053
Mo            5.0014546303        9.9136163528        2.7461557947
S             3.4739357077        8.9351292488        4.3258630277
S             3.4063413194        9.0665934838        1.1057479167
Mo            0.2702927000        1.7594940288        2.7924308190
S             1.9005382935        0.8054847341        4.3879026688
S             1.8471510984        0.8533204933        1.2026914507
Mo            1.8573726218        4.4827289588        2.6697741906
S             0.2725900677        3.6535827826        4.3289478467
S             0.2339567665        3.5291422409        1.1631785613
Mo            0.2667992747        7.2257066892        2.7006094279
S             1.9015995422        6.3120985306        4.2426694824
S             1.8468848264        6.3183399970        1.0556255705
Mo            1.8457957833        9.9138418941        2.7663612621
S             0.2938321731        9.0225303114        4.3962569579
S             0.2676167749        9.0557878622        1.1656832689
H             1.0327310432        1.2158395264        5.4029740208



     Writing config-only to output data dir ./MoS2-V-O.save/
     NEW-OLD atomic charge density approx. for the potential

     negative rho (up, down):  1.487E-04 0.000E+00

     total cpu time spent up to now is     4118.5 secs

     Self-consistent Calculation

     iteration #  1     ecut=    80.00 Ry     beta= 0.70
     Davidson diagonalization with overlap
     c_bands:  2 eigenvalues not converged
     ethr =  1.00E-06,  avg # of iterations = 20.0

     negative rho (up, down):  1.309E-04 0.000E+00

     total cpu time spent up to now is     4721.1 secs

     total energy              =   -2205.56422690 Ry
     estimated scf accuracy    <       0.00183572 Ry

     iteration #  2     ecut=    80.00 Ry     beta= 0.70
     Davidson diagonalization with overlap
     ethr =  5.98E-07,  avg # of iterations =  2.0

     negative rho (up, down):  1.343E-04 0.000E+00

     total cpu time spent up to now is     5456.4 secs

     total energy              =   -2205.56429503 Ry
     estimated scf accuracy    <       0.00032636 Ry

     iteration #  3     ecut=    80.00 Ry     beta= 0.70
     Davidson diagonalization with overlap
     ethr =  1.06E-07,  avg # of iterations =  2.0

     negative rho (up, down):  1.322E-04 0.000E+00

     total cpu time spent up to now is     6062.1 secs

     total energy              =   -2205.56432703 Ry
     estimated scf accuracy    <       0.00006476 Ry

     iteration #  4     ecut=    80.00 Ry     beta= 0.70
     Davidson diagonalization with overlap
     ethr =  2.11E-08,  avg # of iterations =  6.0

     negative rho (up, down):  1.320E-04 0.000E+00

     total cpu time spent up to now is     6137.1 secs

     total energy              =   -2205.56434028 Ry
     estimated scf accuracy    <       0.00000386 Ry

     iteration #  5     ecut=    80.00 Ry     beta= 0.70
     Davidson diagonalization with overlap
     ethr =  1.26E-09,  avg # of iterations = 12.0

     negative rho (up, down):  1.317E-04 0.000E+00

     total cpu time spent up to now is     6202.2 secs

     total energy              =   -2205.56434221 Ry
     estimated scf accuracy    <       0.00000202 Ry

     iteration #  6     ecut=    80.00 Ry     beta= 0.70
     Davidson diagonalization with overlap
     ethr =  6.59E-10,  avg # of iterations =  2.0

     negative rho (up, down):  1.321E-04 0.000E+00

     total cpu time spent up to now is     6274.7 secs

     total energy              =   -2205.56434244 Ry
     estimated scf accuracy    <       0.00000023 Ry

     iteration #  7     ecut=    80.00 Ry     beta= 0.70
     Davidson diagonalization with overlap
     ethr =  7.61E-11,  avg # of iterations =  2.0

     negative rho (up, down):  1.376E-04 0.000E+00

     total cpu time spent up to now is     6283.6 secs

     End of self-consistent calculation

          k = 0.0000 0.0000 0.0000 (105382 PWs)   bands (ev):

   -62.8694 -62.8488 -62.8212 -62.8140 -62.8010 -62.7926 -62.7791 -62.7688
   -62.7338 -62.6032 -62.5850 -62.5311 -37.1782 -37.1336 -37.1176 -37.0910
   -37.0900 -37.0800 -37.0753 -37.0495 -37.0275 -37.0145 -37.0069 -36.9960
   -36.9845 -36.9790 -36.9701 -36.9629 -36.9604 -36.9528 -36.9492 -36.9404
   -36.9102 -36.9005 -36.8769 -36.8487 -36.8358 -36.8163 -36.8092 -36.8036
   -36.7763 -36.7691 -36.7443 -36.7412 -36.7184 -36.6752 -36.5585 -36.5488
   -16.3036 -15.6578 -15.1473 -15.0189 -14.8843 -14.7860 -14.6498 -14.4533
   -14.3910 -14.3791 -14.3410 -14.3265 -14.2937 -14.2249 -14.1271 -14.1009
   -14.0524 -14.0439 -13.9685 -13.8929 -13.7746 -13.7606 -13.7215  -8.9998
    -7.6342  -7.4371  -7.2880  -7.2353  -7.2278  -7.1588  -7.1128  -7.0015
    -6.8038  -6.7648  -6.7088  -6.6380  -6.5770  -6.4581  -6.4189  -6.4159
    -6.2858  -6.2457  -6.1921  -5.9077  -5.8748  -5.8610  -5.7847  -5.7580
    -5.7267  -5.6730  -5.6187  -5.6035  -5.5668  -5.5140  -5.4770  -5.4484
    -5.3750  -5.2920  -5.1719  -5.1270  -5.0175  -4.9836  -4.9437  -4.9096
    -4.9028  -4.7800  -4.5978  -4.4928  -4.4361  -4.2921  -4.2503  -4.1887
    -4.1606  -4.0140  -3.9850  -3.8571  -3.7603  -3.7494  -3.7051  -3.6524
    -3.6223  -3.5597  -3.4905  -3.4827  -3.4548  -3.4261  -3.4020  -3.3344
    -3.3041  -3.1682  -3.0956  -2.8794  -2.8349  -2.7361  -2.7057  -2.7006
    -2.6763  -2.6487  -2.6269  -2.5310  -2.4824  -2.1909  -1.9509  -1.9445
    -1.8932  -0.7691  -0.5961  -0.4779  -0.1235  -0.0863  -0.0567   0.0195
     0.0613   0.1768   0.2345   0.2599   0.3072   0.3486   0.3947   0.5158
     0.5612   0.6129   0.6247   0.6472   0.6833   0.7364   0.7386   0.7867
     0.8173   0.8859   0.9068   0.9631   0.9691   1.0244   1.0841   1.3738
     1.4199

     the Fermi energy is    -0.7767 ev

!    total energy              =   -2205.56434243 Ry
     estimated scf accuracy    <       0.00000003 Ry
     smearing contrib. (-TS)   =      -0.00663973 Ry
     internal energy E=F+TS    =   -2205.55770270 Ry

     The total energy is F=E-TS. E is the sum of the following terms:
     one-electron contribution =  -18054.58407558 Ry
     hartree contribution      =    9014.57232004 Ry
     xc contribution           =    -385.37521158 Ry
     ewald contribution        =    7219.82926442 Ry

     convergence has been achieved in   7 iterations

     negative rho (up, down):  1.376E-04 0.000E+00

     Forces acting on atoms (cartesian axes, Ry/au):

     atom    1 type  1   force =    -0.00598947   -0.00047146   -0.00717831
     atom    2 type  2   force =     0.00093417    0.00562051   -0.00568230
     atom    3 type  2   force =    -0.01232435    0.00385840   -0.01755462
     atom    4 type  1   force =     0.00432891    0.00255116    0.00199278
     atom    5 type  2   force =     0.00206938   -0.00641870   -0.00551822
     atom    6 type  2   force =     0.00265109    0.00241628    0.00420674
     atom    7 type  1   force =     0.00114639   -0.00282409    0.00252764
     atom    8 type  2   force =    -0.00153657   -0.00369482    0.00400241
     atom    9 type  2   force =     0.00751897    0.00167415    0.00495713
     atom   10 type  1   force =     0.00136671    0.00550821    0.00426061
     atom   11 type  2   force =     0.00037289    0.00107434   -0.00685437
     atom   12 type  2   force =    -0.00508266    0.00112588   -0.00180947
     atom   13 type  1   force =     0.00528690    0.00124175    0.00002431
     atom   14 type  2   force =     0.00396450    0.00142306    0.00332687
     atom   15 type  2   force =    -0.00400270    0.00152815   -0.00687875
     atom   16 type  1   force =     0.00111864    0.00409861   -0.00032123
     atom   17 type  2   force =     0.00666894    0.00636674    0.00485547
     atom   18 type  2   force =    -0.00044707    0.00105256    0.00297565
     atom   19 type  1   force =     0.00348069   -0.00259074    0.00329078
     atom   20 type  2   force =     0.00216188   -0.00332855   -0.00368556
     atom   21 type  1   force =    -0.00306291    0.00340382    0.00144532
     atom   22 type  2   force =     0.00188486   -0.00312601    0.00136393
     atom   23 type  2   force =    -0.00006264   -0.00101220   -0.00000818
     atom   24 type  1   force =    -0.00005751   -0.00137317    0.00466136
     atom   25 type  2   force =    -0.01240218    0.01337587    0.01155447
     atom   26 type  2   force =     0.00091689   -0.00168719   -0.00110374
     atom   27 type  1   force =    -0.00047748    0.00000136    0.00471864
     atom   28 type  2   force =    -0.00060911   -0.00640234   -0.00461160
     atom   29 type  2   force =     0.00126435    0.00535878   -0.01141152
     atom   30 type  1   force =    -0.00231406   -0.00560467    0.00539139
     atom   31 type  2   force =     0.00145505   -0.00062999    0.00248534
     atom   32 type  2   force =    -0.00386205    0.00220011    0.00717786
     atom   33 type  1   force =    -0.00001176   -0.00020403    0.00662147
     atom   34 type  2   force =    -0.00494397   -0.01846659   -0.01138776
     atom   35 type  2   force =    -0.00455992    0.00379023   -0.00113489
     atom   36 type  3   force =     0.01315521   -0.00983544    0.00330036
     The non-local contrib.  to forces
     atom    1 type  1   force =     0.00320123    0.02893633   -0.01512449
     atom    2 type  2   force =     0.00171927   -0.00420803   -0.24762043
     atom    3 type  2   force =    -0.01060696   -0.00853739    0.26029774
     atom    4 type  1   force =    -0.00395282    0.01315740    0.00096924
     atom    5 type  2   force =     0.01003022   -0.03570111   -0.25335497
     atom    6 type  2   force =    -0.00244636    0.00092149    0.26550307
     atom    7 type  1   force =    -0.03198583   -0.01478138   -0.01712090
     atom    8 type  2   force =     0.00405492   -0.00448169   -0.26286848
     atom    9 type  2   force =     0.00619170   -0.01499016    0.27438324
     atom   10 type  1   force =    -0.00014703   -0.00054485   -0.00225788
     atom   11 type  2   force =     0.00801099    0.01166191   -0.26062484
     atom   12 type  2   force =    -0.01464314   -0.01105448    0.26088411
     atom   13 type  1   force =     0.00360090    0.02392605   -0.01792574
     atom   14 type  2   force =     0.01047909   -0.00787238   -0.25753760
     atom   15 type  2   force =    -0.00817792   -0.00099231    0.26122848
     atom   16 type  1   force =     0.00504416    0.04644702   -0.02793976
     atom   17 type  2   force =    -0.00079582   -0.02787596   -0.24301529
     atom   18 type  2   force =     0.00274100   -0.00465970    0.26687271
     atom   19 type  1   force =     0.03089624   -0.01650538   -0.01210099
     atom   20 type  2   force =    -0.00069527   -0.01811150    0.26131866
     atom   21 type  1   force =     0.00606100    0.01084759    0.00556316
     atom   22 type  2   force =    -0.00099263    0.00693684   -0.25487619
     atom   23 type  2   force =     0.00512603   -0.01576597    0.26345534
     atom   24 type  1   force =    -0.00900996    0.02979115   -0.00413925
     atom   25 type  2   force =    -0.22405657    0.10111945    0.07286490
     atom   26 type  2   force =     0.00581441   -0.01377930    0.27714341
     atom   27 type  1   force =    -0.00088718    0.01252005    0.00587056
     atom   28 type  2   force =    -0.00534791   -0.02841328   -0.25599401
     atom   29 type  2   force =     0.00485214   -0.00201422    0.25987419
     atom   30 type  1   force =    -0.00326642    0.01275774    0.00544436
     atom   31 type  2   force =    -0.00496583   -0.00210767   -0.26217459
     atom   32 type  2   force =     0.00052021   -0.01850111    0.27384893
     atom   33 type  1   force =    -0.00444130   -0.00328104   -0.01387334
     atom   34 type  2   force =    -0.00357921   -0.01012793   -0.27358955
     atom   35 type  2   force =     0.00335573   -0.01220785    0.26412677
     atom   36 type  3   force =     0.03556033   -0.01728448   -0.04058627
     The ionic contribution  to forces
     atom    1 type  1   force =    -0.16008215    0.78400113    5.81816597
     atom    2 type  2   force =    -0.41217979    0.06371937   39.28126712
     atom    3 type  2   force =    -0.23015805   -0.11940745  -36.54390460
     atom    4 type  1   force =    -0.39414570    1.14857326    0.88885887
     atom    5 type  2   force =    -0.97057480    1.60761060   38.57273841
     atom    6 type  2   force =     0.23200810   -0.45839527  -37.83683674
     atom    7 type  1   force =    -2.37271906   -2.92316299    2.44840670
     atom    8 type  2   force =    -1.11944701    0.05401584   37.54882706
     atom    9 type  2   force =     0.21103376   -0.07581370  -37.80976930
     atom   10 type  1   force =    -0.72480047   -0.53318817    4.96575003
     atom   11 type  2   force =    -0.45832854   -1.63960309   39.06026815
     atom   12 type  2   force =     0.27205197    0.54841113  -37.82983261
     atom   13 type  1   force =     0.12207679    0.23216624    2.38628537
     atom   14 type  2   force =    -0.12076600   -0.04732577   38.70699171
     atom   15 type  2   force =     0.13331648   -0.08702688  -37.03119923
     atom   16 type  1   force =     0.33862900    4.19035861    0.55641508
     atom   17 type  2   force =     0.83623362    1.62431257   38.13100274
     atom   18 type  2   force =    -0.14567144   -0.38703158  -38.56571897
     atom   19 type  1   force =     2.42063233   -2.79980167    0.60657883
     atom   20 type  2   force =     0.20816417   -0.22453912  -38.57063267
[...]
     atom   27 type  1   force =     0.00249740    0.01382661    0.00347656
     atom   28 type  2   force =     0.00224020   -0.02654300   -0.25968847
     atom   29 type  2   force =    -0.00036566   -0.01240592    0.26524284
     atom   30 type  1   force =    -0.00605454    0.00987765    0.00313714
     atom   31 type  2   force =    -0.00628444   -0.00128243   -0.26426794
     atom   32 type  2   force =     0.00308621   -0.02132530    0.26826395
     atom   33 type  1   force =    -0.00091793   -0.01892906   -0.01189288
     atom   34 type  2   force =     0.00742112    0.00044985   -0.26322740
     atom   35 type  2   force =     0.00173564   -0.01289711    0.26778903
     atom   36 type  3   force =     0.00379579   -0.00180029   -0.06299151
     The ionic contribution  to forces
     atom    1 type  1   force =    -0.05979016    0.70372288    2.14037115
     atom    2 type  2   force =    -0.22060513   -0.04398302   38.95356425
     atom    3 type  2   force =     0.23113668   -0.21742339  -37.66787486
     atom    4 type  1   force =    -0.55592534    1.15685068    0.99954281
     atom    5 type  2   force =    -0.88267150    1.43088174   38.17851615
     atom    6 type  2   force =     0.22021771   -0.15738989  -38.10885927
     atom    7 type  1   force =    -2.21944367   -2.82809712    2.04027489
     atom    8 type  2   force =    -1.37291844    0.09417673   38.04148495
     atom    9 type  2   force =     0.24184846    0.02911251  -37.64673941
     atom   10 type  1   force =    -0.04943886   -0.52279088    3.01650718
     atom   11 type  2   force =    -0.34566607   -1.48880068   38.73010848
     atom   12 type  2   force =     0.26499545    0.30957759  -38.11204572
     atom   13 type  1   force =    -0.44198393    0.21906136    2.49287631
     atom   14 type  2   force =    -0.02788732   -0.12063899   38.69907065
     atom   15 type  2   force =    -0.18020611   -0.21541055  -37.80842737
     atom   16 type  1   force =     0.49373546    4.12170350    0.10179176
     atom   17 type  2   force =     0.85744160    1.37957797   38.53556529
     atom   18 type  2   force =    -0.41326128   -0.29265243  -38.38207506
     atom   19 type  1   force =     2.19313574   -2.43703645    3.41725193
     atom   20 type  2   force =     0.02718742   -0.05357591  -38.66143271
     atom   21 type  1   force =    -0.40049208   -0.22023648    0.85174971
     atom   22 type  2   force =     0.46272656   -1.40698898   38.82832153
     atom   23 type  2   force =    -0.31634336    0.35355663  -37.89333585
     atom   24 type  1   force =     0.54234151   -0.02822130    2.11063564
     atom   25 type  2   force =     0.29990999   -0.03042366   35.84748377
     atom   26 type  2   force =    -0.07415164   -0.20875284  -36.68830755
     atom   27 type  1   force =     0.20531219    0.82799182    0.83842761
     atom   28 type  2   force =     0.01409963    0.67413350   38.47509228
     atom   29 type  2   force =     0.12405710   -0.03748027  -37.86791726
     atom   30 type  1   force =     0.09329620   -0.93003308    2.27380554
     atom   31 type  2   force =     1.15848172    0.16503886   38.03076530
     atom   32 type  2   force =    -0.22758301    0.13140816  -37.43385714
     atom   33 type  1   force =     0.44882717   -0.12593033    3.41866412
     atom   34 type  2   force =    -0.09922362   -0.50967577   38.97986670
     atom   35 type  2   force =     0.05198372    0.22564320  -37.45688570
     atom   36 type  3   force =    -0.04314280    0.05310494    8.72601991
     The local contribution  to forces
     atom    1 type  1   force =     0.05961822   -0.73465819   -2.13242147
     atom    2 type  2   force =     0.21269156    0.05005781  -38.71758791
     atom    3 type  2   force =    -0.22821121    0.22523588   37.42273373
     atom    4 type  1   force =     0.56060576   -1.17289027   -1.00323785
     atom    5 type  2   force =     0.87395745   -1.40575006  -37.94616233
     atom    6 type  2   force =    -0.21735723    0.16456423   37.86549695
     atom    7 type  1   force =     2.24854670    2.84388365   -2.02850990
     atom    8 type  2   force =     1.36257049   -0.09338419  -37.79815333
     atom    9 type  2   force =    -0.23783063   -0.01469039   37.39822064
     atom   10 type  1   force =     0.05214715    0.52306526   -3.02042431
     atom   11 type  2   force =     0.33870830    1.48075795  -38.49270844
     atom   12 type  2   force =    -0.25813173   -0.30402987   37.87013889
     atom   13 type  1   force =     0.42858289   -0.24941596   -2.47914042
     atom   14 type  2   force =     0.03424549    0.12377869  -38.46444452
     atom   15 type  2   force =     0.17861969    0.21889350   37.56911695
     atom   16 type  1   force =    -0.50109963   -4.17929717   -0.08578846
     atom   17 type  2   force =    -0.84866937   -1.34731050  -38.30868430
     atom   18 type  2   force =     0.41117761    0.29942087   38.14181358
     atom   19 type  1   force =    -2.23528045    2.45710479   -3.39330862
     atom   20 type  2   force =    -0.02790798    0.06768651   38.42151971
     atom   21 type  1   force =     0.39631337    0.20881987   -0.85489287
     atom   22 type  2   force =    -0.45178610    1.39954243  -38.59476640
     atom   23 type  2   force =     0.30757949   -0.34411563   37.65043806
     atom   24 type  1   force =    -0.52689351    0.00304900   -2.09907326
     atom   25 type  2   force =    -0.27841918    0.01701965  -36.10482009
     atom   26 type  2   force =     0.07226844    0.22008146   36.42233431
     atom   27 type  1   force =    -0.20783660   -0.84170175   -0.84208621
     atom   28 type  2   force =    -0.01544517   -0.64939645  -38.23604601
     atom   29 type  2   force =    -0.12338850    0.04922651   37.62380739
     atom   30 type  1   force =    -0.08745745    0.92049991   -2.27682806
     atom   31 type  2   force =    -1.15260294   -0.16450975  -37.78611633
     atom   32 type  2   force =     0.22457235   -0.11081289   37.18455947
     atom   33 type  1   force =    -0.44776026    0.14366849   -3.40684740
     atom   34 type  2   force =     0.09235070    0.50990184  -38.73725459
     atom   35 type  2   force =    -0.05325968   -0.21325608   37.21058587
     atom   36 type  3   force =     0.03981249   -0.04952016   -8.66138075
     The core correction contribution to forces
     atom    1 type  1   force =     0.00000000    0.00000000    0.00000000
     atom    2 type  2   force =    -0.00073479    0.00027080    0.02026820
     atom    3 type  2   force =     0.00015358    0.00021358   -0.02098935
     atom    4 type  1   force =     0.00000000    0.00000000    0.00000000
     atom    5 type  2   force =    -0.00085931    0.00146503    0.02017244
     atom    6 type  2   force =     0.00022858    0.00002461   -0.02071732
     atom    7 type  1   force =     0.00000000    0.00000000    0.00000000
     atom    8 type  2   force =    -0.00080345    0.00023935    0.02059809
     atom    9 type  2   force =     0.00024312    0.00074623   -0.02079811
     atom   10 type  1   force =     0.00000000    0.00000000    0.00000000
     atom   11 type  2   force =    -0.00024479   -0.00076822    0.02040650
     atom   12 type  2   force =     0.00063075    0.00059921   -0.02075371
     atom   13 type  1   force =     0.00000000    0.00000000    0.00000000
     atom   14 type  2   force =     0.00063781   -0.00024787    0.02028741
     atom   15 type  2   force =    -0.00003342    0.00010049   -0.02066205
     atom   16 type  1   force =     0.00000000    0.00000000    0.00000000
     atom   17 type  2   force =     0.00087383    0.00213543    0.01989707
     atom   18 type  2   force =    -0.00040743    0.00007500   -0.02081734
     atom   19 type  1   force =     0.00000000    0.00000000    0.00000000
     atom   20 type  2   force =     0.00004181    0.00055852   -0.02105849
     atom   21 type  1   force =     0.00000000    0.00000000    0.00000000
     atom   22 type  2   force =     0.00070324   -0.00080425    0.02019524
     atom   23 type  2   force =    -0.00057687    0.00064436   -0.02085269
     atom   24 type  1   force =     0.00000000    0.00000000    0.00000000
     atom   25 type  2   force =     0.00140257   -0.00083054   -0.01096132
     atom   26 type  2   force =    -0.00007862    0.00038142   -0.02157518
     atom   27 type  1   force =     0.00000000    0.00000000    0.00000000
     atom   28 type  2   force =    -0.00019907    0.00182909    0.02040476
     atom   29 type  2   force =     0.00003247    0.00058000   -0.02082167
     atom   30 type  1   force =     0.00000000    0.00000000    0.00000000
     atom   31 type  2   force =     0.00040075    0.00033909    0.02053484
     atom   32 type  2   force =    -0.00024905    0.00116685   -0.02069872
     atom   33 type  1   force =     0.00000000    0.00000000    0.00000000
     atom   34 type  2   force =    -0.00063376   -0.00038918    0.02063311
     atom   35 type  2   force =    -0.00019013    0.00078650   -0.02106302
     atom   36 type  3   force =     0.00000000    0.00000000    0.00000000
     The Hubbard contrib.    to forces
     atom    1 type  1   force =     0.00000000    0.00000000    0.00000000
     atom    2 type  2   force =     0.00000000    0.00000000    0.00000000
     atom    3 type  2   force =     0.00000000    0.00000000    0.00000000
     atom    4 type  1   force =     0.00000000    0.00000000    0.00000000
     atom    5 type  2   force =     0.00000000    0.00000000    0.00000000
     atom    6 type  2   force =     0.00000000    0.00000000    0.00000000
     atom    7 type  1   force =     0.00000000    0.00000000    0.00000000
     atom    8 type  2   force =     0.00000000    0.00000000    0.00000000
     atom    9 type  2   force =     0.00000000    0.00000000    0.00000000
     atom   10 type  1   force =     0.00000000    0.00000000    0.00000000
     atom   11 type  2   force =     0.00000000    0.00000000    0.00000000
     atom   12 type  2   force =     0.00000000    0.00000000    0.00000000
     atom   13 type  1   force =     0.00000000    0.00000000    0.00000000
     atom   14 type  2   force =     0.00000000    0.00000000    0.00000000
     atom   15 type  2   force =     0.00000000    0.00000000    0.00000000
     atom   16 type  1   force =     0.00000000    0.00000000    0.00000000
     atom   17 type  2   force =     0.00000000    0.00000000    0.00000000
     atom   18 type  2   force =     0.00000000    0.00000000    0.00000000
     atom   19 type  1   force =     0.00000000    0.00000000    0.00000000
     atom   20 type  2   force =     0.00000000    0.00000000    0.00000000
     atom   21 type  1   force =     0.00000000    0.00000000    0.00000000
     atom   22 type  2   force =     0.00000000    0.00000000    0.00000000
     atom   23 type  2   force =     0.00000000    0.00000000    0.00000000
     atom   24 type  1   force =     0.00000000    0.00000000    0.00000000
     atom   25 type  2   force =     0.00000000    0.00000000    0.00000000
     atom   26 type  2   force =     0.00000000    0.00000000    0.00000000
     atom   27 type  1   force =     0.00000000    0.00000000    0.00000000
     atom   28 type  2   force =     0.00000000    0.00000000    0.00000000
     atom   29 type  2   force =     0.00000000    0.00000000    0.00000000
     atom   30 type  1   force =     0.00000000    0.00000000    0.00000000
     atom   31 type  2   force =     0.00000000    0.00000000    0.00000000
     atom   32 type  2   force =     0.00000000    0.00000000    0.00000000
     atom   33 type  1   force =     0.00000000    0.00000000    0.00000000
     atom   34 type  2   force =     0.00000000    0.00000000    0.00000000
     atom   35 type  2   force =     0.00000000    0.00000000    0.00000000
     atom   36 type  3   force =     0.00000000    0.00000000    0.00000000
     The SCF correction term to forces
     atom    1 type  1   force =    -0.00002897    0.00002683    0.00001991
     atom    2 type  2   force =     0.00001438    0.00001098    0.00001254
     atom    3 type  2   force =     0.00001663    0.00001966    0.00000340
     atom    4 type  1   force =     0.00000773   -0.00005045    0.00001209
     atom    5 type  2   force =    -0.00000167   -0.00001544    0.00000630
     atom    6 type  2   force =     0.00000009   -0.00001024    0.00000330
     atom    7 type  1   force =    -0.00004020   -0.00001649    0.00003580
     atom    8 type  2   force =     0.00000529   -0.00001131    0.00001615
     atom    9 type  2   force =     0.00000396   -0.00001834   -0.00001164
     atom   10 type  1   force =     0.00003455    0.00004259    0.00001990
     atom   11 type  2   force =    -0.00001874    0.00000648    0.00003675
     atom   12 type  2   force =    -0.00000148    0.00000937   -0.00001735
     atom   13 type  1   force =    -0.00001701    0.00002030    0.00002225
     atom   14 type  2   force =    -0.00000599    0.00000391    0.00002082
     atom   15 type  2   force =    -0.00000258    0.00002216    0.00000358
     atom   16 type  1   force =    -0.00000812   -0.00002043    0.00001099
     atom   17 type  2   force =    -0.00000214   -0.00001938    0.00001281
     atom   18 type  2   force =     0.00000056   -0.00000965    0.00000534
     atom   19 type  1   force =     0.00001031    0.00000830    0.00004523
     atom   20 type  2   force =    -0.00000881   -0.00000964    0.00001017
     atom   21 type  1   force =    -0.00004802    0.00000559    0.00004898
     atom   22 type  2   force =     0.00000734   -0.00000466    0.00002099
     atom   23 type  2   force =     0.00000307   -0.00000187    0.00001185
     atom   24 type  1   force =     0.00000464   -0.00000262    0.00003450
     atom   25 type  2   force =    -0.00002226    0.00000538    0.00001081
     atom   26 type  2   force =     0.00000112    0.00001343    0.00000356
     atom   27 type  1   force =    -0.00000677   -0.00003716    0.00000924
     atom   28 type  2   force =     0.00000928   -0.00001846    0.00001149
     atom   29 type  2   force =     0.00000002   -0.00000905    0.00000350
     atom   30 type  1   force =     0.00002916   -0.00000649    0.00002681
     atom   31 type  2   force =     0.00001199    0.00000315    0.00002542
     atom   32 type  2   force =     0.00000178   -0.00000392   -0.00000210
     atom   33 type  1   force =     0.00000270    0.00003149    0.00005345
     atom   34 type  2   force =     0.00001185    0.00001635    0.00001929
     atom   35 type  2   force =     0.00000312    0.00000766   -0.00000285
     atom   36 type  3   force =    -0.00000118    0.00000032    0.00000100

     Total force =     0.005914     Total SCF correction =     0.000196
     Energy error            =      8.9E-05 Ry
     Gradient error          =      1.8E-03 Ry/Bohr

     bfgs converged in  28 scf cycles and  27 bfgs steps
     (criteria: energy <  1.0E-04 Ry, force <  1.0E-02 Ry/Bohr)

     End of BFGS Geometry Optimization

     Final energy             =   -2205.5908905516 Ry

     File ./MoS2-V-O.bfgs deleted, as requested
Begin final coordinates

ATOMIC_POSITIONS (angstrom)
Mo            6.5459348629        1.7652182803        2.7513034782
S             8.1064030815        0.8681431537        4.3711921974
S             8.1278987101        0.8516990239        1.1686599574
Mo            8.1046457996        4.4979910548        2.7177235524
S             6.4856536706        3.6807936728        4.2927896113
S             6.5543784333        3.5700209580        1.1039430799
Mo            6.4832241385        7.2418555085        2.6578555158
S             8.0347893394        6.3223125464        4.2954859508
S             8.1185081421        6.3287892505        1.1209890097
Mo            8.1241871604        9.9525326424        2.7711608925
S             6.4948886856        8.9824679639        4.3342126057
S             6.5760010126        9.0681831053        1.1187928905
Mo            3.4425978447        1.7917607036        2.7624620945
S             4.9938026620        0.8391606763        4.3439653251
S             4.9803803351        0.8567909488        1.1523749314
Mo            4.9583756010        4.5275853923        2.6250951109
S             3.4590513562        3.7008688668        4.3165532690
S             3.3970989914        3.5665670009        1.0955611668
Mo            3.4858039038        7.1969378654        2.6841837910
S             4.9823159274        6.3255905630        1.0344666250
Mo            4.9758274121        9.9347352858        2.7275424277
S             3.4795282097        8.9412628602        4.3508421640
S             3.3828169994        9.0287338762        1.1309318975
Mo            0.2157722743        1.7786559885        2.7701241430
S             1.8347503663        0.8540234187        4.2721893179
S             1.8313195255        0.8394288280        1.2141839298
Mo            1.8378525651        4.4829375828        2.7183080729
S             0.2325304601        3.6338833326        4.3300741809
S             0.2375961112        3.5738414514        1.1376913183
Mo            0.2378483017        7.2180448970        2.7438536217
S             1.8931764003        6.3077196478        4.2996341788
S             1.8321631266        6.3237056732        1.1346285234
Mo            1.8363081542        9.8942959294        2.7852215184
S             0.2348327071        9.0091788790        4.3724614518
S             0.2501280531        9.0434477756        1.1769456073
H             1.7547077981        0.8961040290        5.6369364631
End final coordinates



     Writing all to output data dir ./MoS2-V-O.save/
 
     init_run     :     10.56s CPU     10.78s WALL (       1 calls)
     electrons    : 109618.75s CPU 174414.06s WALL (      28 calls)
     update_pot   :    247.44s CPU    399.37s WALL (      27 calls)
     forces       :    258.19s CPU    413.82s WALL (      28 calls)

     Called by init_run:
     wfcinit      :      1.65s CPU      1.69s WALL (       1 calls)
     potinit      :      6.25s CPU      6.39s WALL (       1 calls)
     hinit0       :      1.73s CPU      1.74s WALL (       1 calls)

     Called by electrons:
     c_bands      :   3623.28s CPU   5702.72s WALL (     246 calls)
     sum_band     :    751.49s CPU   1174.24s WALL (     246 calls)
     v_of_rho     :   1582.44s CPU   2497.24s WALL (     261 calls)
     newd         :    277.57s CPU    427.66s WALL (     261 calls)
     mix_rho      : 103428.55s CPU 164673.08s WALL (     246 calls)

     Called by c_bands:
     init_us_2    :      2.62s CPU      3.30s WALL (     493 calls)
     init_us_2:cp :      2.62s CPU      3.30s WALL (     493 calls)
     regterg      :   3587.97s CPU   5645.91s WALL (     246 calls)

     Called by *egterg:
     rdiaghg      :     82.95s CPU    140.06s WALL (    1349 calls)
     h_psi        :   2841.98s CPU   4505.59s WALL (    1390 calls)
     s_psi        :     16.03s CPU     24.55s WALL (    1390 calls)
     g_psi        :      0.54s CPU      0.63s WALL (    1143 calls)

     Called by h_psi:
     h_psi:calbec :    164.20s CPU    246.01s WALL (    1390 calls)
     vloc_psi     :   2660.45s CPU   4234.05s WALL (    1390 calls)
     add_vuspsi   :     16.40s CPU     24.25s WALL (    1390 calls)

     General routines
     calbec       :    229.44s CPU    346.90s WALL (    1748 calls)
     fft          :   1960.17s CPU   3076.38s WALL (   17557 calls)
     ffts         :  24254.74s CPU  38078.28s WALL (  501478 calls)
     fftw         :   3134.50s CPU   4987.55s WALL (  149930 calls)
     interpolate  :     34.98s CPU     55.87s WALL (     261 calls)
 
     Parallel routines
 
     PWSCF        :   1d 6h40m CPU   2d 0h49m WALL

 
   This run was terminated on:  20:42: 4   5Nov2023            

=------------------------------------------------------------------------------=
   JOB DONE.
=------------------------------------------------------------------------------=
