
     Program PWSCF v.7.2 starts on  4Nov2023 at  8:36: 7 

     This program is part of the open-source Quantum ESPRESSO suite
     for quantum simulation of materials; please cite
         "P. Giannozzi et al., J. Phys.:Condens. Matter 21 395502 (2009);
         "P. Giannozzi et al., J. Phys.:Condens. Matter 29 465901 (2017);
         "P. Giannozzi et al., J. Chem. Phys. 152 154105 (2020);
          URL http://www.quantum-espresso.org", 
     in publications or presentations arising from this work. More details at
     http://www.quantum-espresso.org/quote

     Parallel version (MPI & OpenMP), running on      48 processor cores
     Number of MPI processes:                48
     Threads/MPI process:                     1

     MPI processes distributed on     1 nodes
     63872 MiB available memory on the printing compute node when the environment starts
 
     Waiting for input...
     Reading input from standard input
Warning: card &CELL ignored
Warning: card CELL_DYNAMICS = 'BFGS', ignored
Warning: card CELL_DOFREE = '2DXY' ignored
Warning: card / ignored

     Current dimensions of program PWSCF are:
     Max number of different atomic species (ntypx) = 10
     Max number of k-points (npk) =  40000
     Max angular momentum in pseudopotentials (lmaxx) =  4

     IMPORTANT: XC functional enforced from input :
     Exchange-correlation= RVV10
                           (   1   4  13   4  26   0   0)
     Any further DFT definition will be discarded
     Please, verify this is what you really want


     gamma-point specific algorithms are used
     signal trapping enabled: kill the code with -SIGUSR1 to stop cleanly the simulation 
 
     R & G space division:  proc/nbgrp/npool/nimage =      48
     Subspace diagonalization in iterative solution of the eigenvalue problem:
     one sub-group per band group will be used
     scalapack distributed-memory algorithm (size of sub-group:  2*  2 procs)

 
     Parallelization info
     --------------------
     sticks:   dense  smooth     PW     G-vecs:    dense   smooth      PW
     Min         243     194     47                49060    35090    4376
     Max         246     196     50                49086    35128    4410
     Sum       11735    9389   2349              2355467  1685513  210763
 
     Using Slab Decomposition
 


     bravais-lattice index     =            0
     lattice parameter (alat)  =      17.8707  a.u.
     unit-cell volume          =   17436.2743 (a.u.)^3
     number of atoms/cell      =           36
     number of atomic types    =            3
     number of electrons       =       307.00
     number of Kohn-Sham states=          185
     kinetic-energy cutoff     =      80.0000  Ry
     charge density cutoff     =     400.0000  Ry
     scf convergence threshold =      1.0E-06
     mixing beta               =       0.7000
     number of iterations used =            8  local-TF  mixing
     energy convergence thresh.=      1.0E-04
     force convergence thresh. =      1.0E-02
     Exchange-correlation= RVV10
                           (   1   4  13   4  26   0   0)
     nstep                     =          200


     celldm(1)=  17.870686  celldm(2)=   0.000000  celldm(3)=   0.000000
     celldm(4)=   0.000000  celldm(5)=   0.000000  celldm(6)=   0.000000

     crystal axes: (cart. coord. in units of alat)
               a(1) = (   1.000000   0.000000   0.000000 )  
               a(2) = (   0.000000   1.155671   0.000000 )  
               a(3) = (   0.000000   0.000000   2.643601 )  

     reciprocal axes: (cart. coord. in units 2 pi/alat)
               b(1) = (  1.000000  0.000000  0.000000 )  
               b(2) = (  0.000000  0.865298  0.000000 )  
               b(3) = (  0.000000  0.000000  0.378272 )  


     PseudoPot. # 1 for Mo read from file:
     ../pseudo/Mo_ONCV_PBE-1.0.oncvpsp.upf
     MD5 check sum: 1b5d28e075c9ccadda658a603575cd1f
     Pseudo is Norm-conserving, Zval = 14.0
     Generated using ONCVPSP code by D. R. Hamann
     Using radial grid of 1526 points,  6 beta functions with: 
                l(1) =   0
                l(2) =   0
                l(3) =   1
                l(4) =   1
                l(5) =   2
                l(6) =   2

     PseudoPot. # 2 for S  read from file:
     ../pseudo/s_pbe_v1.4.uspp.F.UPF
     MD5 check sum: 88d86576ff6df21479756cfb9bdac1df
     Pseudo is Ultrasoft + core correction, Zval =  6.0
     Generated by new atomic code, or converted to UPF format
     Using radial grid of  907 points,  6 beta functions with: 
                l(1) =   0
                l(2) =   0
                l(3) =   1
                l(4) =   1
                l(5) =   2
                l(6) =   2
     Q(r) pseudized with  8 coefficients,  rinner =    1.300   1.300   1.300
                                                       1.300   1.300

     PseudoPot. # 3 for H  read from file:
     ../pseudo/H_ONCV_PBE-1.0.oncvpsp.upf
     MD5 check sum: 1790becc920ee074925cf490c71280fe
     Pseudo is Norm-conserving, Zval =  1.0
     Generated using ONCVPSP code by D. R. Hamann
     Using radial grid of 1166 points,  2 beta functions with: 
                l(1) =   0
                l(2) =   0

     atomic species   valence    mass     pseudopotential
        Mo            14.00    95.94000     Mo( 1.00)
        S              6.00    32.06500     S ( 1.00)
        H              1.00     1.00794     H ( 1.00)

     No symmetry found



   Cartesian axes

     site n.     atom                  positions (alat units)
         1           Mo  tau(   1) = (   0.6952221   0.1890506   0.2985846  )
         2           S   tau(   2) = (   0.8646417   0.0856217   0.4689279  )
         3           S   tau(   3) = (   0.8663890   0.0857843   0.1351291  )
         4           Mo  tau(   4) = (   0.8560186   0.4753274   0.2873942  )
         5           S   tau(   5) = (   0.6873294   0.3936244   0.4596353  )
         6           S   tau(   6) = (   0.6929804   0.3713468   0.1185692  )
         7           Mo  tau(   7) = (   0.6862796   0.7633098   0.2825370  )
         8           S   tau(   8) = (   0.8545980   0.6708292   0.4486168  )
         9           S   tau(   9) = (   0.8545123   0.6666874   0.1146125  )
        10           Mo  tau(  10) = (   0.8629403   1.0471007   0.3006803  )
        11           S   tau(  11) = (   0.6868280   0.9456650   0.4634891  )
        12           S   tau(  12) = (   0.6998113   0.9568511   0.1205389  )
        13           Mo  tau(  13) = (   0.3618216   0.1847309   0.2935964  )
        14           S   tau(  14) = (   0.5260962   0.0863870   0.4600448  )
        15           S   tau(  15) = (   0.5348379   0.0894875   0.1297123  )
        16           Mo  tau(  16) = (   0.5265817   0.4772436   0.2784130  )
        17           S   tau(  17) = (   0.3624753   0.3882513   0.4525556  )
        18           S   tau(  18) = (   0.3635411   0.3752055   0.1119148  )
        19           Mo  tau(  19) = (   0.3652268   0.7630864   0.2781795  )
        20           S   tau(  20) = (   0.5269494   0.6690381   0.1096838  )
        21           Mo  tau(  21) = (   0.5300192   1.0470394   0.2900995  )
        22           S   tau(  22) = (   0.3670346   0.9457522   0.4574073  )
        23           S   tau(  23) = (   0.3604225   0.9585725   0.1159032  )
        24           Mo  tau(  24) = (   0.0313099   0.1847895   0.3013130  )
        25           S   tau(  25) = (   0.1956761   0.0838230   0.4650863  )
        26           S   tau(  26) = (   0.1967693   0.0903508   0.1278874  )
        27           Mo  tau(  27) = (   0.1967578   0.4753919   0.2813011  )
        28           S   tau(  28) = (   0.0287851   0.3864324   0.4586755  )
        29           S   tau(  29) = (   0.0244514   0.3729871   0.1239344  )
        30           Mo  tau(  30) = (   0.0286728   0.7631204   0.2856894  )
        31           S   tau(  31) = (   0.2011512   0.6675435   0.4465001  )
        32           S   tau(  32) = (   0.1969214   0.6672839   0.1104564  )
        33           Mo  tau(  33) = (   0.1950294   1.0511147   0.2932237  )
        34           S   tau(  34) = (   0.0312912   0.9612169   0.4667423  )
        35           S   tau(  35) = (   0.0292670   0.9563028   0.1216485  )
        36           H   tau(  36) = (   1.0000000   0.8988550   0.5656742  )

     number of k points=     1  Gaussian smearing, width (Ry)=  0.0100
                       cart. coord. in units 2pi/alat
        k(    1) = (   0.0000000   0.0000000   0.0000000), wk =   2.0000000

     Dense  grid:  1177734 G-vectors     FFT dimensions: ( 120, 135, 320)

     Smooth grid:   842757 G-vectors     FFT dimensions: ( 108, 120, 270)

     Estimated max dynamical RAM per process >     146.59 MB

     Estimated total dynamical RAM >       6.87 GB

     Initial potential from superposition of free atoms

     starting charge     306.9873, renormalised to     307.0000

     negative rho (up, down):  1.410E-04 0.000E+00


---------------------------------------------------------------------------------
Carrying out rVV10 run using the following parameters:
Nqs =      20    Nr_points =    1024   r_max =   100.000
b_value =  6.30000    beta =  0.00901
     q_mesh =  0.00010000  0.00030000  0.00058939  0.00100810
               0.00161396  0.00249058  0.00375900  0.00559430
               0.00824984  0.01209221  0.01765183  0.02569619
               0.03733578  0.05417739  0.07854596  0.11380545
               0.16482331  0.23864234  0.34545298  0.50000000

Gradients computed in Reciprocal space

---------------------------------------------------------------------------------


     Starting wfcs are  213 randomized atomic wfcs

     total cpu time spent up to now is        2.8 secs

     Self-consistent Calculation

     iteration #  1     ecut=    80.00 Ry     beta= 0.70
     Davidson diagonalization with overlap
     ethr =  1.00E-02,  avg # of iterations =  2.0

     Threshold (ethr) on eigenvalues was too large:
     Diagonalizing with lowered threshold

     Davidson diagonalization with overlap
     ethr =  3.94E-04,  avg # of iterations =  4.0

     negative rho (up, down):  2.090E-08 0.000E+00

     total cpu time spent up to now is       16.7 secs

     total energy              =   -2205.56523882 Ry
     estimated scf accuracy    <       1.49409921 Ry

     iteration #  2     ecut=    80.00 Ry     beta= 0.70
     Davidson diagonalization with overlap
     ethr =  4.87E-04,  avg # of iterations =  2.0

     total cpu time spent up to now is       19.1 secs

     total energy              =   -2205.38709139 Ry
     estimated scf accuracy    <       0.61447473 Ry

     iteration #  3     ecut=    80.00 Ry     beta= 0.70
     Davidson diagonalization with overlap
     ethr =  2.00E-04,  avg # of iterations =  4.0

     total cpu time spent up to now is       21.7 secs

     total energy              =   -2205.48243153 Ry
     estimated scf accuracy    <       0.06860448 Ry

     iteration #  4     ecut=    80.00 Ry     beta= 0.70
     Davidson diagonalization with overlap
     c_bands:  1 eigenvalues not converged
     ethr =  2.23E-05,  avg # of iterations = 20.0

     total cpu time spent up to now is       25.0 secs

     total energy              =   -2205.48656196 Ry
     estimated scf accuracy    <       0.03464474 Ry

     iteration #  5     ecut=    80.00 Ry     beta= 0.70
     Davidson diagonalization with overlap
     ethr =  1.13E-05,  avg # of iterations =  2.0

     total cpu time spent up to now is       27.3 secs

     total energy              =   -2205.48486523 Ry
     estimated scf accuracy    <       0.02031546 Ry

     iteration #  6     ecut=    80.00 Ry     beta= 0.70
     Davidson diagonalization with overlap
     ethr =  6.62E-06,  avg # of iterations =  2.0

     total cpu time spent up to now is       29.6 secs

     total energy              =   -2205.48472569 Ry
     estimated scf accuracy    <       0.01247431 Ry

     iteration #  7     ecut=    80.00 Ry     beta= 0.70
     Davidson diagonalization with overlap
     ethr =  4.06E-06,  avg # of iterations =  1.0

     total cpu time spent up to now is       31.8 secs

     total energy              =   -2205.48293969 Ry
     estimated scf accuracy    <       0.00953344 Ry

     iteration #  8     ecut=    80.00 Ry     beta= 0.70
     Davidson diagonalization with overlap
     ethr =  3.11E-06,  avg # of iterations =  2.0

     negative rho (up, down):  2.568E-03 0.000E+00

     total cpu time spent up to now is       36.3 secs

     total energy              =   -2205.48217052 Ry
     estimated scf accuracy    <       0.00536041 Ry

     iteration #  9     ecut=    80.00 Ry     beta= 0.70
     Davidson diagonalization with overlap
     ethr =  1.75E-06,  avg # of iterations =  2.0

     negative rho (up, down):  2.705E-02 0.000E+00

     total cpu time spent up to now is       40.6 secs

     total energy              =   -2205.48177215 Ry
     estimated scf accuracy    <       0.00313560 Ry

     iteration # 10     ecut=    80.00 Ry     beta= 0.70
     Davidson diagonalization with overlap
     ethr =  1.02E-06,  avg # of iterations =  2.0

     negative rho (up, down):  3.138E-02 0.000E+00

     total cpu time spent up to now is       45.1 secs

     total energy              =   -2205.48175354 Ry
     estimated scf accuracy    <       0.00159334 Ry

     iteration # 11     ecut=    80.00 Ry     beta= 0.70
     Davidson diagonalization with overlap
     ethr =  5.19E-07,  avg # of iterations =  2.0

     negative rho (up, down):  2.204E-02 0.000E+00

     total cpu time spent up to now is       50.0 secs

     total energy              =   -2205.48175706 Ry
     estimated scf accuracy    <       0.00047787 Ry

     iteration # 12     ecut=    80.00 Ry     beta= 0.70
     Davidson diagonalization with overlap
     ethr =  1.56E-07,  avg # of iterations =  6.0

     negative rho (up, down):  1.208E-02 0.000E+00

     total cpu time spent up to now is       55.2 secs

     total energy              =   -2205.48179873 Ry
     estimated scf accuracy    <       0.00017435 Ry

     iteration # 13     ecut=    80.00 Ry     beta= 0.70
     Davidson diagonalization with overlap
     ethr =  5.68E-08,  avg # of iterations =  2.0

     negative rho (up, down):  4.531E-03 0.000E+00

     total cpu time spent up to now is       60.6 secs

     total energy              =   -2205.48187086 Ry
     estimated scf accuracy    <       0.00003884 Ry

     iteration # 14     ecut=    80.00 Ry     beta= 0.70
     Davidson diagonalization with overlap
     ethr =  1.27E-08,  avg # of iterations = 20.0

     negative rho (up, down):  1.630E-03 0.000E+00

     total cpu time spent up to now is       67.5 secs

     total energy              =   -2205.48187350 Ry
     estimated scf accuracy    <       0.00001336 Ry

     iteration # 15     ecut=    80.00 Ry     beta= 0.70
     Davidson diagonalization with overlap
     ethr =  4.35E-09,  avg # of iterations =  2.0

     negative rho (up, down):  5.800E-04 0.000E+00

     total cpu time spent up to now is       75.8 secs

     total energy              =   -2205.48187309 Ry
     estimated scf accuracy    <       0.00000465 Ry

     iteration # 16     ecut=    80.00 Ry     beta= 0.70
     Davidson diagonalization with overlap
     ethr =  1.52E-09,  avg # of iterations =  2.0

     negative rho (up, down):  5.119E-04 0.000E+00

     total cpu time spent up to now is       84.2 secs

     total energy              =   -2205.48187517 Ry
     estimated scf accuracy    <       0.00000181 Ry

     iteration # 17     ecut=    80.00 Ry     beta= 0.70
     Davidson diagonalization with overlap
     ethr =  5.90E-10,  avg # of iterations =  2.0

     negative rho (up, down):  1.369E-04 0.000E+00

     total cpu time spent up to now is       86.3 secs

     End of self-consistent calculation

          k = 0.0000 0.0000 0.0000 (105382 PWs)   bands (ev):

   -62.9163 -62.8473 -62.8267 -62.7987 -62.7845 -62.7538 -62.7484 -62.7386
   -62.7267 -62.5507 -62.5348 -62.4452 -37.2366 -37.1619 -37.1339 -37.1011
   -37.0743 -37.0653 -37.0473 -37.0313 -37.0225 -37.0077 -36.9962 -36.9802
   -36.9700 -36.9656 -36.9421 -36.9271 -36.9254 -36.9231 -36.9142 -36.9031
   -36.9000 -36.8790 -36.8693 -36.8538 -36.8295 -36.8183 -36.7812 -36.7386
   -36.7280 -36.7207 -36.7024 -36.6812 -36.6303 -36.5999 -36.5122 -36.4803
   -17.2017 -15.7770 -15.0623 -15.0193 -14.8809 -14.7727 -14.6555 -14.4204
   -14.3896 -14.3648 -14.2913 -14.2632 -14.2537 -14.1799 -14.1300 -14.0500
   -14.0288 -14.0106 -13.9188 -13.8960 -13.7426 -13.7273 -13.6998  -9.9037
    -7.6060  -7.4152  -7.3320  -7.2874  -7.1747  -7.1149  -7.1017  -7.0437
    -6.7650  -6.7166  -6.6818  -6.6423  -6.6021  -6.4934  -6.4220  -6.3690
    -6.3095  -6.1870  -6.1447  -5.9418  -5.8632  -5.8195  -5.7393  -5.7157
    -5.7015  -5.6380  -5.5859  -5.5661  -5.5422  -5.4851  -5.4407  -5.3659
    -5.3494  -5.3119  -5.2303  -5.0757  -5.0564  -5.0102  -4.9386  -4.8759
    -4.8325  -4.7526  -4.5603  -4.5395  -4.3901  -4.2710  -4.2241  -4.1844
    -4.0974  -4.0670  -3.9407  -3.8055  -3.7322  -3.7071  -3.6687  -3.6456
    -3.5951  -3.5324  -3.4948  -3.4235  -3.3975  -3.3829  -3.3650  -3.2870
    -3.2794  -3.1669  -3.0646  -2.9004  -2.7935  -2.7772  -2.7080  -2.6547
    -2.6348  -2.5826  -2.5662  -2.5236  -2.4423  -2.1632  -1.9430  -1.9002
    -1.8203  -0.6103  -0.5600  -0.5083  -0.1364  -0.1189  -0.0905   0.0168
     0.1013   0.1591   0.2293   0.2910   0.3333   0.3937   0.5083   0.5198
     0.5650   0.6148   0.6369   0.6712   0.6921   0.7226   0.7692   0.7908
     0.8416   0.8794   0.9420   0.9922   1.0293   1.0757   1.1377   1.1764
     1.4855

     the Fermi energy is    -0.6613 ev

!    total energy              =   -2205.48187641 Ry
     estimated scf accuracy    <       0.00000065 Ry
     smearing contrib. (-TS)   =      -0.00973566 Ry
     internal energy E=F+TS    =   -2205.47214075 Ry

     The total energy is F=E-TS. E is the sum of the following terms:
     one-electron contribution =  -18050.60411644 Ry
     hartree contribution      =    9012.78757990 Ry
     xc contribution           =    -385.50484590 Ry
     ewald contribution        =    7217.84924169 Ry

     convergence has been achieved in  17 iterations

     negative rho (up, down):  1.369E-04 0.000E+00

     Forces acting on atoms (cartesian axes, Ry/au):

     atom    1 type  1   force =     0.01243985   -0.02486055    0.00502027
     atom    2 type  2   force =    -0.01605152    0.02242847    0.00209794
     atom    3 type  2   force =    -0.01169363    0.01090285   -0.00328873
     atom    4 type  1   force =     0.01082573   -0.00247288   -0.00012875
     atom    5 type  2   force =    -0.00197928   -0.00526834   -0.00670547
     atom    6 type  2   force =     0.00395087    0.01074180    0.00159560
     atom    7 type  1   force =     0.00237798    0.00053024   -0.00835314
     atom    8 type  2   force =    -0.00073221   -0.00637465    0.01945549
     atom    9 type  2   force =     0.01615075    0.00383070    0.00978399
     atom   10 type  1   force =    -0.02918346    0.00449985   -0.02526464
     atom   11 type  2   force =     0.00322691   -0.00196010   -0.00782497
     atom   12 type  2   force =     0.00250884    0.00249435    0.00601815
     atom   13 type  1   force =     0.00578136    0.00568837   -0.00518700
     atom   14 type  2   force =     0.00799321    0.00138010    0.01128319
     atom   15 type  2   force =    -0.01199870    0.00211818   -0.00919274
     atom   16 type  1   force =     0.00041761    0.00100784    0.00038478
     atom   17 type  2   force =     0.00629778    0.00124884    0.00157380
     atom   18 type  2   force =    -0.00573950   -0.00613327    0.01443369
     atom   19 type  1   force =     0.00545013    0.00172759   -0.00479077
     atom   20 type  2   force =     0.00330684   -0.00617324    0.00076482
     atom   21 type  1   force =    -0.00443387    0.00671651    0.00543471
     atom   22 type  2   force =     0.00414504   -0.00208463   -0.00521734
     atom   23 type  2   force =    -0.00528471    0.00344712    0.00940366
     atom   24 type  1   force =    -0.01023744   -0.00546445   -0.01957402
     atom   25 type  2   force =     0.01888545    0.02623438    0.00786602
     atom   26 type  2   force =    -0.01058489   -0.00353016   -0.00462215
     atom   27 type  1   force =    -0.00733051   -0.00540763    0.00872114
     atom   28 type  2   force =     0.00118749   -0.00152927   -0.00555434
     atom   29 type  2   force =     0.00266619    0.00146597   -0.00320463
     atom   30 type  1   force =    -0.00403820   -0.00029598   -0.02106372
     atom   31 type  2   force =     0.00313635   -0.00285535    0.01735408
     atom   32 type  2   force =    -0.01264347    0.00415767    0.00737495
     atom   33 type  1   force =     0.04366620   -0.00260185   -0.01468130
     atom   34 type  2   force =     0.06766219    0.13648847   -0.29815937
     atom   35 type  2   force =    -0.00767169    0.00619451    0.01639535
     atom   36 type  3   force =    -0.08247366   -0.17629147    0.29785145
     The non-local contrib.  to forces
     atom    1 type  1   force =    -0.00646618    0.03799892   -0.01167352
     atom    2 type  2   force =    -0.00893882    0.00009151   -0.26430535
     atom    3 type  2   force =    -0.01537149   -0.00559520    0.27195155
     atom    4 type  1   force =    -0.00892978    0.00642797    0.00234587
     atom    5 type  2   force =     0.00743962   -0.03367517   -0.25451055
     atom    6 type  2   force =    -0.00016985    0.00945434    0.26136963
     atom    7 type  1   force =    -0.03766845   -0.01400215   -0.01271393
     atom    8 type  2   force =     0.00705729   -0.00225470   -0.23874155
     atom    9 type  2   force =     0.01395216   -0.01073779    0.27755745
     atom   10 type  1   force =     0.00259477    0.00399996   -0.00668878
     atom   11 type  2   force =     0.02033614    0.00854629   -0.25701785
     atom   12 type  2   force =    -0.00715460   -0.00824799    0.26227761
     atom   13 type  1   force =     0.00374506    0.02640122   -0.00732544
     atom   14 type  2   force =     0.01103798   -0.00925432   -0.26164975
     atom   15 type  2   force =    -0.01395306   -0.00533095    0.26171682
     atom   16 type  1   force =     0.00067006    0.04887843   -0.01384742
     atom   17 type  2   force =     0.00116005   -0.03064518   -0.25132732
     atom   18 type  2   force =    -0.00614319   -0.00615396    0.27162378
     atom   19 type  1   force =     0.03390434   -0.01609189   -0.00784075
     atom   20 type  2   force =    -0.00028477   -0.01896373    0.26420313
     atom   21 type  1   force =     0.00334114    0.02033011    0.00577212
     atom   22 type  2   force =    -0.00981819    0.00588581   -0.25720988
     atom   23 type  2   force =     0.00026338   -0.00447825    0.26928667
     atom   24 type  1   force =     0.00498069    0.02702497   -0.01144947
     atom   25 type  2   force =     0.01146955    0.01172789   -0.25183094
     atom   26 type  2   force =    -0.00041448   -0.01888970    0.26613336
     atom   27 type  1   force =     0.00423262    0.00954298    0.00771678
     atom   28 type  2   force =    -0.00315743   -0.02770117   -0.27179571
     atom   29 type  2   force =     0.00653842   -0.00035541    0.26393354
     atom   30 type  1   force =     0.00092200    0.00475825    0.00363234
     atom   31 type  2   force =    -0.01520470    0.00100755   -0.24103041
     atom   32 type  2   force =    -0.00831149   -0.01349023    0.27226975
     atom   33 type  1   force =     0.00471120    0.00565341   -0.01090487
     atom   34 type  2   force =     0.00871802   -0.05094122   -0.11390684
     atom   35 type  2   force =    -0.00267111   -0.01171724    0.27930919
     atom   36 type  3   force =     0.02960262    0.05764557   -0.08849807
     The ionic contribution  to forces
     atom    1 type  1   force =     0.32680368    0.31278897    5.68452217
     atom    2 type  2   force =    -0.73946950    0.59706250   39.24124665
     atom    3 type  2   force =    -0.18016711    0.05874458  -36.11346852
     atom    4 type  1   force =     0.03255057    0.43581576    0.60732193
     atom    5 type  2   force =    -0.99696882    1.46650689   38.75083139
     atom    6 type  2   force =     0.33501433   -0.50805732  -38.01819295
     atom    7 type  1   force =    -2.81665636   -2.89509164    2.39000851
     atom    8 type  2   force =    -1.17690736   -0.28187380   37.24722290
     atom    9 type  2   force =     0.31868420   -0.07772768  -38.05448156
     atom   10 type  1   force =    -1.37856695    0.00831399    5.16328495
     atom   11 type  2   force =    -0.81797004   -1.55860273   39.05988717
     atom   12 type  2   force =     0.40595776    0.70486306  -37.90083702
     atom   13 type  1   force =     0.52878853    1.05897786    2.84941279
     atom   14 type  2   force =     0.04955951    0.05022917   38.51736184
     atom   15 type  2   force =     0.15369161   -0.04122816  -36.80350425
     atom   16 type  1   force =    -0.03270182    3.88141081    0.48552597
     atom   17 type  2   force =     0.83536289    1.47608378   37.93745578
     atom   18 type  2   force =    -0.15270266   -0.65298570  -38.55601626
     atom   19 type  1   force =     2.86474300   -2.53587827    0.52617445
     atom   20 type  2   force =     0.22517929   -0.21818764  -38.48732359
     atom   21 type  1   force =     0.00607039    0.13412787    1.09348940
     atom   22 type  2   force =     0.61828394   -1.68401381   38.38208930
     atom   23 type  2   force =    -0.05925755    0.67624811  -38.32306446
     atom   24 type  1   force =    -0.53624189    1.29315082    5.77175874
     atom   25 type  2   force =     0.74306053    0.43693235   39.23831845
     atom   26 type  2   force =    -0.26963927    0.10110361  -37.35256727
     atom   27 type  1   force =     0.09181173    0.27975865   -2.30173485
     atom   28 type  2   force =     0.05745287    0.95587831   38.19974975
     atom   29 type  2   force =    -0.26385593   -0.43924562  -37.26949490
     atom   30 type  1   force =    -0.26884170   -1.25817337   -0.70808029
     atom   31 type  2   force =     1.40771922   -0.27703966   37.23085462
     atom   32 type  2   force =    -0.45490427   -0.04255091  -38.67658962
     atom   33 type  1   force =     1.07009141   -0.61197882    1.71053951
     atom   34 type  2   force =     0.89576006   -0.12550436   37.28848688
     atom   35 type  2   force =    -0.29172803    0.49855218  -37.92993197
     atom   36 type  3   force =    -0.53000626   -1.21840977    9.11974433
     The local contribution  to forces
     atom    1 type  1   force =    -0.30782808   -0.37584601   -5.66688324
     atom    2 type  2   force =     0.73232979   -0.57490787  -38.99482077
     atom    3 type  2   force =     0.18319948   -0.04249213   35.85962629
     atom    4 type  1   force =    -0.01260160   -0.44470097   -0.60880540
     atom    5 type  2   force =     0.98834819   -1.44009481  -38.52293747
     atom    6 type  2   force =    -0.33092670    0.51021542   37.77949900
     atom    7 type  1   force =     2.85675951    2.90981674   -2.38467662
     atom    8 type  2   force =     1.16979643    0.27780104  -37.00801974
     atom    9 type  2   force =    -0.31582111    0.09172882   37.80812169
     atom   10 type  1   force =     1.34693402   -0.00784457   -5.18081251
     atom   11 type  2   force =     0.80215409    1.54885974  -38.83063201
     atom   12 type  2   force =    -0.39714431   -0.69494304   37.66573022
     atom   13 type  1   force =    -0.52684538   -1.07992201   -2.84632641
     atom   14 type  2   force =    -0.05203732   -0.03962078  -38.26462995
     atom   15 type  2   force =    -0.15250881    0.04824167   36.55358398
     atom   16 type  1   force =     0.03242640   -3.92922558   -0.47032042
     atom   17 type  2   force =    -0.83039990   -1.44591056  -37.70433472
     atom   18 type  2   force =     0.15275659    0.65320058   38.32002169
     atom   19 type  1   force =    -2.89332927    2.55389485   -0.52214901
     atom   20 type  2   force =    -0.22176852    0.23045345   38.24533148
     atom   21 type  1   force =    -0.01392597   -0.14773601   -1.09296213
     atom   22 type  2   force =    -0.60497620    1.67670516  -38.15008206
     atom   23 type  2   force =     0.05385249   -0.66895342   38.08456226
     atom   24 type  1   force =     0.52107198   -1.32577433   -5.77893150
     atom   25 type  2   force =    -0.73561570   -0.42199414  -38.99846988
     atom   26 type  2   force =     0.25968867   -0.08689665   37.10324045
     atom   27 type  1   force =    -0.10354153   -0.29464466    2.30370261
     atom   28 type  2   force =    -0.05332694   -0.93168641  -37.95389095
     atom   29 type  2   force =     0.26056563    0.44143658   37.02333166
     atom   30 type  1   force =     0.26394168    1.25324634    0.68446641
     atom   31 type  2   force =    -1.39050560    0.27353180  -36.99183107
     atom   32 type  2   force =     0.45028468    0.05950370   38.43308311
     atom   33 type  1   force =    -1.03120306    0.60367781   -1.71328663
     atom   34 type  2   force =    -0.83797326    0.30854101  -37.48168677
     atom   35 type  2   force =     0.28683925   -0.48166459   37.68902962
     atom   36 type  3   force =     0.41794310    0.98448007   -8.73334020
     The core correction contribution to forces
     atom    1 type  1   force =     0.00000000    0.00000000    0.00000000
     atom    2 type  2   force =     0.00007293    0.00014503    0.02035256
     atom    3 type  2   force =     0.00067015    0.00023242   -0.02100269
     atom    4 type  1   force =     0.00000000    0.00000000    0.00000000
     atom    5 type  2   force =    -0.00073721    0.00192924    0.02036428
     atom    6 type  2   force =     0.00010064   -0.00095398   -0.02076464
     atom    7 type  1   force =     0.00000000    0.00000000    0.00000000
     atom    8 type  2   force =    -0.00054442    0.00003823    0.01937072
     atom    9 type  2   force =    -0.00055728    0.00062071   -0.02100715
     atom   10 type  1   force =     0.00000000    0.00000000    0.00000000
     atom   11 type  2   force =    -0.00122702   -0.00075268    0.02029904
     atom   12 type  2   force =     0.00084619    0.00085771   -0.02077469
     atom   13 type  1   force =     0.00000000    0.00000000    0.00000000
     atom   14 type  2   force =    -0.00057558    0.00001771    0.02056706
     atom   15 type  2   force =     0.00076368    0.00039144   -0.02059740
     atom   16 type  1   force =     0.00000000    0.00000000    0.00000000
     atom   17 type  2   force =     0.00010734    0.00165587    0.02024817
     atom   18 type  2   force =     0.00027696   -0.00027060   -0.02089147
     atom   19 type  1   force =     0.00000000    0.00000000    0.00000000
     atom   20 type  2   force =     0.00014088    0.00062512   -0.02109777
     atom   21 type  1   force =     0.00000000    0.00000000    0.00000000
     atom   22 type  2   force =     0.00055428   -0.00066148    0.02029903
     atom   23 type  2   force =    -0.00018053    0.00064120   -0.02093858
     atom   24 type  1   force =     0.00000000    0.00000000    0.00000000
     atom   25 type  2   force =    -0.00006485   -0.00049950    0.02019329
     atom   26 type  2   force =    -0.00023850    0.00109961   -0.02100900
     atom   27 type  1   force =     0.00000000    0.00000000    0.00000000
     atom   28 type  2   force =     0.00022523    0.00195223    0.02077537
     atom   29 type  2   force =    -0.00057054   -0.00041010   -0.02061118
     atom   30 type  1   force =     0.00000000    0.00000000    0.00000000
     atom   31 type  2   force =     0.00104010   -0.00024979    0.01971769
     atom   32 type  2   force =     0.00022508    0.00076656   -0.02095680
     atom   33 type  1   force =     0.00000000    0.00000000    0.00000000
     atom   34 type  2   force =     0.00120337    0.00435396    0.00932298
     atom   35 type  2   force =    -0.00007031    0.00099445   -0.02156432
     atom   36 type  3   force =     0.00000000    0.00000000    0.00000000
     The Hubbard contrib.    to forces
     atom    1 type  1   force =     0.00000000    0.00000000    0.00000000
     atom    2 type  2   force =     0.00000000    0.00000000    0.00000000
     atom    3 type  2   force =     0.00000000    0.00000000    0.00000000
     atom    4 type  1   force =     0.00000000    0.00000000    0.00000000
     atom    5 type  2   force =     0.00000000    0.00000000    0.00000000
     atom    6 type  2   force =     0.00000000    0.00000000    0.00000000
     atom    7 type  1   force =     0.00000000    0.00000000    0.00000000
     atom    8 type  2   force =     0.00000000    0.00000000    0.00000000
     atom    9 type  2   force =     0.00000000    0.00000000    0.00000000
     atom   10 type  1   force =     0.00000000    0.00000000    0.00000000
     atom   11 type  2   force =     0.00000000    0.00000000    0.00000000
     atom   12 type  2   force =     0.00000000    0.00000000    0.00000000
     atom   13 type  1   force =     0.00000000    0.00000000    0.00000000
     atom   14 type  2   force =     0.00000000    0.00000000    0.00000000
     atom   15 type  2   force =     0.00000000    0.00000000    0.00000000
     atom   16 type  1   force =     0.00000000    0.00000000    0.00000000
     atom   17 type  2   force =     0.00000000    0.00000000    0.00000000
     atom   18 type  2   force =     0.00000000    0.00000000    0.00000000
     atom   19 type  1   force =     0.00000000    0.00000000    0.00000000
     atom   20 type  2   force =     0.00000000    0.00000000    0.00000000
     atom   21 type  1   force =     0.00000000    0.00000000    0.00000000
     atom   22 type  2   force =     0.00000000    0.00000000    0.00000000
     atom   23 type  2   force =     0.00000000    0.00000000    0.00000000
     atom   24 type  1   force =     0.00000000    0.00000000    0.00000000
     atom   25 type  2   force =     0.00000000    0.00000000    0.00000000
     atom   26 type  2   force =     0.00000000    0.00000000    0.00000000
     atom   27 type  1   force =     0.00000000    0.00000000    0.00000000
     atom   28 type  2   force =     0.00000000    0.00000000    0.00000000
     atom   29 type  2   force =     0.00000000    0.00000000    0.00000000
     atom   30 type  1   force =     0.00000000    0.00000000    0.00000000
     atom   31 type  2   force =     0.00000000    0.00000000    0.00000000
     atom   32 type  2   force =     0.00000000    0.00000000    0.00000000
     atom   33 type  1   force =     0.00000000    0.00000000    0.00000000
     atom   34 type  2   force =     0.00000000    0.00000000    0.00000000
     atom   35 type  2   force =     0.00000000    0.00000000    0.00000000
     atom   36 type  3   force =     0.00000000    0.00000000    0.00000000
     The SCF correction term to forces
     atom    1 type  1   force =    -0.00006897    0.00019374   -0.00090997
     atom    2 type  2   force =    -0.00004531    0.00003348   -0.00033997
     atom    3 type  2   force =    -0.00002406    0.00000937   -0.00036018
     atom    4 type  1   force =    -0.00019286   -0.00001946   -0.00095598
     atom    5 type  2   force =    -0.00006046    0.00006171   -0.00041795
     atom    6 type  2   force =    -0.00006693    0.00007952   -0.00028027
     atom    7 type  1   force =    -0.00005611   -0.00019653   -0.00093592
     atom    8 type  2   force =    -0.00013354   -0.00008923   -0.00034168
     atom    9 type  2   force =    -0.00010661   -0.00005717   -0.00037126
     atom   10 type  1   force =    -0.00014468    0.00002666   -0.00101313
     atom   11 type  2   force =    -0.00006565   -0.00001453   -0.00032615
     atom   12 type  2   force =     0.00000441   -0.00003921   -0.00034280
     atom   13 type  1   force =     0.00009375    0.00022749   -0.00091276
     atom   14 type  2   force =     0.00000924    0.00000450   -0.00033082
     atom   15 type  2   force =     0.00000849    0.00004036   -0.00035673
     atom   16 type  1   force =     0.00002357   -0.00005963   -0.00093818
     atom   17 type  2   force =     0.00006800    0.00006112   -0.00043293
     atom   18 type  2   force =     0.00007341    0.00007260   -0.00026887
     atom   19 type  1   force =     0.00013267   -0.00020093   -0.00094029
     atom   20 type  2   force =     0.00004058   -0.00010425   -0.00031326
     atom   21 type  1   force =     0.00008117   -0.00000927   -0.00082951
     atom   22 type  2   force =     0.00010182   -0.00000411   -0.00027855
     atom   23 type  2   force =     0.00003811   -0.00001434   -0.00040706
     atom   24 type  1   force =    -0.00004761    0.00013027   -0.00091662
     atom   25 type  2   force =     0.00003653    0.00006398   -0.00030972
     atom   26 type  2   force =     0.00001930    0.00004915   -0.00038452
     atom   27 type  1   force =     0.00016728   -0.00006842   -0.00092823
     atom   28 type  2   force =    -0.00000563    0.00002396   -0.00035763
     atom   29 type  2   force =    -0.00001078    0.00003670   -0.00032857
     atom   30 type  1   force =    -0.00005958   -0.00013102   -0.00104701
     atom   31 type  2   force =     0.00008793   -0.00010907   -0.00032159
     atom   32 type  2   force =     0.00006314   -0.00007527   -0.00039631
     atom   33 type  1   force =     0.00006726    0.00004194   -0.00099415
     atom   34 type  2   force =    -0.00004540    0.00003526   -0.00034046
     atom   35 type  2   force =    -0.00004088    0.00002591   -0.00041199
     atom   36 type  3   force =    -0.00001251   -0.00001115   -0.00001944

     Total force =     0.500075     Total SCF correction =     0.003751

     BFGS Geometry Optimization
     Energy error            =      0.0E+00 Ry
     Gradient error          =      3.0E-01 Ry/Bohr

     number of scf cycles    =   1
     number of bfgs steps    =   0

     energy             new  =   -2205.4818764110 Ry

     new trust radius        =       0.3558034135 bohr
     new conv_thr            =       0.0000010000 Ry


ATOMIC_POSITIONS (angstrom)
Mo            6.5811312914        1.7746505920        2.8262996461
S             8.1682152402        0.8215726591        4.4356485330
S             8.1870450813        0.8170112861        1.2761431047
Mo            8.1008912958        4.4937483521        2.7177502613
S             6.4988618643        3.7196236048        4.3431122654
S             6.5554405110        3.5174218710        1.1221245831
Mo            6.4912400678        7.2187178742        2.6674641938
S             8.0813402579        6.3404976743        4.2527569670
S             8.0894642571        6.3067294363        1.0890404645
Mo            8.1451758269        9.9045616305        2.8300922899
S             6.4968752015        8.9418895765        4.3789647375
S             6.6192748223        9.0500311640        1.1430919703
Mo            3.4247190247        1.7499660067        2.7737263218
S             4.9793953175        0.8176715258        4.3565039016
S             5.0514843158        0.8473829996        1.2217938710
Mo            4.9799776690        4.5137113306        2.6330881647
S             3.4311743012        3.6722605432        4.2805424006
S             3.4348833689        3.5449831123        1.0659896618
Mo            3.4567458252        7.2172387398        2.6281416947
S             4.9849840990        6.3236655482        1.0376584569
Mo            5.0099176152        9.9051542745        2.7462768847
S             3.4731515759        8.9426481316        4.3228304166
S             3.4056326198        9.0668141210        1.1010445025
Mo            0.2906730656        1.7446178666        2.8390865846
S             1.8604559600        0.8065766453        4.4023719581
S             1.8551987539        0.8525578353        1.2069549156
Mo            1.8568121703        4.4928051661        2.6648124101
S             0.2728422408        3.6535895737        4.3346448672
S             0.2326420949        3.5280249857        1.1703220691
Mo            0.2690152249        7.2164894689        2.6905499859
S             1.9038979304        6.3112878496        4.2316275039
S             1.8555475768        6.3125439552        1.0484619396
Mo            1.8674538195        9.9387623142        2.7651772406
S             0.3317181877        9.1622244127        4.2560903195
S             0.2727117183        9.0468037094        1.1590768257
H             9.4131168194        8.4069661292        5.5070609062



     Writing config-only to output data dir ./MoS2-V-O.save/
     NEW-OLD atomic charge density approx. for the potential

     negative rho (up, down):  1.495E-04 0.000E+00

     total cpu time spent up to now is       89.8 secs

     Self-consistent Calculation

     iteration #  1     ecut=    80.00 Ry     beta= 0.70
     Davidson diagonalization with overlap
     c_bands:  1 eigenvalues not converged
     ethr =  1.00E-06,  avg # of iterations = 20.0

     negative rho (up, down):  6.743E-04 0.000E+00

     total cpu time spent up to now is      108.8 secs

     total energy              =   -2205.52856566 Ry
     estimated scf accuracy    <       0.03855914 Ry

     iteration #  2     ecut=    80.00 Ry     beta= 0.70
     Davidson diagonalization with overlap
     ethr =  1.26E-05,  avg # of iterations =  3.0

     negative rho (up, down):  1.363E-03 0.000E+00

     total cpu time spent up to now is      125.4 secs

     total energy              =   -2205.52987666 Ry
     estimated scf accuracy    <       0.00510891 Ry

     iteration #  3     ecut=    80.00 Ry     beta= 0.70
     Davidson diagonalization with overlap
     ethr =  1.66E-06,  avg # of iterations =  8.0

     negative rho (up, down):  1.843E-03 0.000E+00

     total cpu time spent up to now is      139.6 secs

     total energy              =   -2205.53032262 Ry
     estimated scf accuracy    <       0.00191965 Ry

     iteration #  4     ecut=    80.00 Ry     beta= 0.70
     Davidson diagonalization with overlap
     ethr =  6.25E-07,  avg # of iterations =  2.0

     negative rho (up, down):  2.085E-03 0.000E+00

     total cpu time spent up to now is      159.6 secs

     total energy              =   -2205.53041892 Ry
     estimated scf accuracy    <       0.00018404 Ry

     iteration #  5     ecut=    80.00 Ry     beta= 0.70
     Davidson diagonalization with overlap
     ethr =  5.99E-08,  avg # of iterations =  6.0

     negative rho (up, down):  2.104E-03 0.000E+00

     total cpu time spent up to now is      172.3 secs

     total energy              =   -2205.53043765 Ry
     estimated scf accuracy    <       0.00007800 Ry

     iteration #  6     ecut=    80.00 Ry     beta= 0.70
     Davidson diagonalization with overlap
     ethr =  2.54E-08,  avg # of iterations =  6.0

     negative rho (up, down):  1.918E-03 0.000E+00

     total cpu time spent up to now is      183.9 secs

     total energy              =   -2205.53044211 Ry
     estimated scf accuracy    <       0.00001923 Ry

     iteration #  7     ecut=    80.00 Ry     beta= 0.70
     Davidson diagonalization with overlap
     ethr =  6.26E-09,  avg # of iterations =  5.0

     negative rho (up, down):  1.532E-03 0.000E+00

     total cpu time spent up to now is      193.8 secs

     total energy              =   -2205.53044287 Ry
     estimated scf accuracy    <       0.00000686 Ry

     iteration #  8     ecut=    80.00 Ry     beta= 0.70
     Davidson diagonalization with overlap
     ethr =  2.23E-09,  avg # of iterations =  5.0

     negative rho (up, down):  1.049E-03 0.000E+00

     total cpu time spent up to now is      204.0 secs

     total energy              =   -2205.53044136 Ry
     estimated scf accuracy    <       0.00000230 Ry

     iteration #  9     ecut=    80.00 Ry     beta= 0.70
     Davidson diagonalization with overlap
     ethr =  7.49E-10,  avg # of iterations =  2.0

     negative rho (up, down):  1.364E-04 0.000E+00

     total cpu time spent up to now is      206.2 secs

     End of self-consistent calculation

          k = 0.0000 0.0000 0.0000 (105382 PWs)   bands (ev):

   -62.8791 -62.8400 -62.8302 -62.8230 -62.7898 -62.7819 -62.7724 -62.7576
   -62.7519 -62.6138 -62.5905 -62.5082 -37.2331 -37.1716 -37.1389 -37.1057
   -37.0855 -37.0795 -37.0563 -37.0503 -37.0377 -37.0246 -37.0126 -37.0018
   -36.9782 -36.9713 -36.9705 -36.9593 -36.9542 -36.9507 -36.9371 -36.9328
   -36.9059 -36.9042 -36.8704 -36.8639 -36.8500 -36.8361 -36.8214 -36.7851
   -36.7727 -36.7689 -36.7537 -36.7425 -36.6875 -36.6623 -36.5663 -36.5401
   -16.3258 -15.6510 -15.0747 -15.0383 -14.9063 -14.7948 -14.6539 -14.4305
   -14.4237 -14.3756 -14.3322 -14.3073 -14.2792 -14.2142 -14.1479 -14.0730
   -14.0561 -14.0481 -13.9486 -13.9174 -13.7734 -13.7534 -13.7337  -8.8583
    -7.6681  -7.4926  -7.3958  -7.2920  -7.1918  -7.1533  -7.1234  -7.0843
    -6.8038  -6.7483  -6.7076  -6.6716  -6.6140  -6.5424  -6.4383  -6.3736
    -6.2840  -6.2360  -6.1718  -5.9762  -5.8894  -5.8508  -5.7749  -5.7579
    -5.7387  -5.6643  -5.6065  -5.6004  -5.5825  -5.5165  -5.4691  -5.3881
    -5.3714  -5.3283  -5.2278  -5.1262  -5.0891  -5.0102  -4.9552  -4.9102
    -4.8686  -4.7814  -4.5869  -4.5095  -4.4052  -4.3362  -4.2707  -4.2091
    -4.1321  -4.1137  -3.9814  -3.8022  -3.7404  -3.7242  -3.6911  -3.6562
    -3.6167  -3.5608  -3.5513  -3.4627  -3.4355  -3.4158  -3.4027  -3.3419
    -3.3083  -3.1687  -3.0886  -2.9170  -2.8271  -2.8022  -2.6973  -2.6782
    -2.6685  -2.6205  -2.5982  -2.5609  -2.4836  -2.1942  -1.9643  -1.9358
    -1.8513  -0.7103  -0.6210  -0.5579  -0.1412  -0.1054  -0.0581   0.0164
     0.0741   0.1191   0.2599   0.2902   0.3058   0.3609   0.4863   0.5076
     0.5228   0.5950   0.6071   0.6443   0.6765   0.7105   0.7601   0.7837
     0.8440   0.8462   0.9262   0.9586   1.0068   1.0414   1.1161   1.1720
     1.4682

     the Fermi energy is    -0.7425 ev

!    total energy              =   -2205.53043995 Ry
     estimated scf accuracy    <       0.00000077 Ry
     smearing contrib. (-TS)   =      -0.00877365 Ry
     internal energy E=F+TS    =   -2205.52166630 Ry

     The total energy is F=E-TS. E is the sum of the following terms:
     one-electron contribution =  -18068.24676594 Ry
     hartree contribution      =    9021.32798541 Ry
     xc contribution           =    -385.40188986 Ry
     ewald contribution        =    7226.79900409 Ry

     convergence has been achieved in   9 iterations

     negative rho (up, down):  1.364E-04 0.000E+00

     Forces acting on atoms (cartesian axes, Ry/au):

     atom    1 type  1   force =     0.00392360   -0.01315802   -0.00162117
     atom    2 type  2   force =    -0.01136020    0.01457478    0.00163986
     atom    3 type  2   force =    -0.01168875    0.00940046   -0.00899606
     atom    4 type  1   force =     0.00334158    0.00104919   -0.00107936
     atom    5 type  2   force =    -0.00003464   -0.00581145   -0.00643901
     atom    6 type  2   force =     0.00467147    0.00605018    0.00318766
     atom    7 type  1   force =     0.00129331   -0.00439925    0.00062413
     atom    8 type  2   force =     0.00464660    0.00230988    0.01737088
     atom    9 type  2   force =     0.01113684    0.00295763    0.00627896
     atom   10 type  1   force =    -0.02719260    0.02376676   -0.03496033
     atom   11 type  2   force =     0.00661026   -0.00328114   -0.00799602
     atom   12 type  2   force =    -0.00454853    0.00097428    0.00051647
     atom   13 type  1   force =     0.00501877    0.00460326   -0.00349092
     atom   14 type  2   force =     0.00553415    0.00187009    0.00916373
     atom   15 type  2   force =    -0.00857931    0.00204352   -0.00657403
     atom   16 type  1   force =    -0.00045242    0.00167644   -0.00041747
     atom   17 type  2   force =     0.00493438    0.00099112    0.00251389
     atom   18 type  2   force =    -0.00448793   -0.00426805    0.01109156
     atom   19 type  1   force =     0.00682575   -0.00765105    0.00078174
     atom   20 type  2   force =     0.00278382   -0.00440687   -0.00170052
     atom   21 type  1   force =    -0.00395665    0.00507722    0.00085111
     atom   22 type  2   force =     0.00493961   -0.00434319   -0.00254914
     atom   23 type  2   force =     0.00246109   -0.00085227    0.00243125
     atom   24 type  1   force =    -0.00521824   -0.00201085   -0.01086131
     atom   25 type  2   force =     0.01534587    0.02278738    0.00381490
     atom   26 type  2   force =    -0.00628076    0.00063222   -0.00680329
     atom   27 type  1   force =    -0.00144615   -0.00059484    0.00734922
     atom   28 type  2   force =     0.00068742   -0.00411837   -0.00441167
     atom   29 type  2   force =     0.00211056    0.00021697   -0.00452851
     atom   30 type  1   force =    -0.00059492   -0.00158016   -0.01348717
     atom   31 type  2   force =    -0.00114845    0.00143039    0.01230475
     atom   32 type  2   force =    -0.00738822    0.00307732    0.00592294
     atom   33 type  1   force =     0.05033920    0.02431445   -0.03474129
     atom   34 type  2   force =    -0.05746905   -0.11320358    0.09953606
     atom   35 type  2   force =    -0.00605641    0.00663738    0.00173794
     atom   36 type  3   force =     0.02129892    0.03323814   -0.03645981
     The non-local contrib.  to forces
     atom    1 type  1   force =    -0.00322720    0.03508837   -0.01233129
     atom    2 type  2   force =    -0.00549964   -0.00639957   -0.26603022
     atom    3 type  2   force =    -0.01264611   -0.00788516    0.26751370
     atom    4 type  1   force =    -0.00527594    0.00570391    0.00103575
     atom    5 type  2   force =     0.00847476   -0.03564550   -0.25467951
     atom    6 type  2   force =    -0.00107361    0.00574481    0.26451365
     atom    7 type  1   force =    -0.02959429   -0.00974499   -0.01539487
     atom    8 type  2   force =     0.00706830    0.00765721   -0.23772465
     atom    9 type  2   force =     0.00719234   -0.01043066    0.27587990
     atom   10 type  1   force =     0.00114666   -0.00054454   -0.00003680
     atom   11 type  2   force =     0.01688073    0.00920616   -0.25234512
     atom   12 type  2   force =    -0.01168794   -0.01409956    0.25546276
     atom   13 type  1   force =     0.00386946    0.02727836   -0.00572006
     atom   14 type  2   force =     0.00955695   -0.00984954   -0.26293869
     atom   15 type  2   force =    -0.01124351   -0.00568004    0.26253092
     atom   16 type  1   force =     0.00178344    0.04625714   -0.01650536
     atom   17 type  2   force =     0.00052607   -0.03074248   -0.25009196
     atom   18 type  2   force =    -0.00436435   -0.00425456    0.27046674
     atom   19 type  1   force =     0.02867974   -0.01036474   -0.00999122
     atom   20 type  2   force =    -0.00117037   -0.01802882    0.26344303
     atom   21 type  1   force =     0.00450396    0.01732676    0.00505768
     atom   22 type  2   force =    -0.00789422    0.00468791   -0.25152389
     atom   23 type  2   force =     0.00751400   -0.01058410    0.26105876
     atom   24 type  1   force =     0.00278798    0.02540773   -0.01144967
     atom   25 type  2   force =     0.00950697    0.00714609   -0.25590682
     atom   26 type  2   force =     0.00065929   -0.01433861    0.26504693
     atom   27 type  1   force =     0.00162041    0.00814312    0.00692749
     atom   28 type  2   force =    -0.00344887   -0.02922925   -0.27186334
     atom   29 type  2   force =     0.00548153   -0.00211405    0.26384194
     atom   30 type  1   force =     0.00109515    0.00828610    0.01205883
     atom   31 type  2   force =    -0.01345779    0.00355089   -0.24909786
     atom   32 type  2   force =    -0.00239580   -0.01419416    0.27215327
     atom   33 type  1   force =    -0.00189579   -0.00145996   -0.00648819
     atom   34 type  2   force =    -0.07603882   -0.24052347    0.20753774
     atom   35 type  2   force =    -0.00081824   -0.01133049    0.27248417
     atom   36 type  3   force =     0.01110427    0.02164302   -0.03407832
     The ionic contribution  to forces
     atom    1 type  1   force =     0.07293778    0.71835016    5.81651092
     atom    2 type  2   force =    -0.56612623    0.45857652   39.43944041
     atom    3 type  2   force =    -0.15685059    0.09737265  -36.24791607
     atom    4 type  1   force =    -0.14545226    0.52921517    0.78431840
     atom    5 type  2   force =    -0.98985820    1.50341734   38.69443844
     atom    6 type  2   force =     0.29262600   -0.51990706  -37.92018752
     atom    7 type  1   force =    -2.76518598   -3.05901542    2.41285611
     atom    8 type  2   force =    -1.10534663   -0.13890835   37.41544444
     atom    9 type  2   force =     0.22528668   -0.14854835  -38.00322833
     atom   10 type  1   force =    -1.56566738    0.02417583    4.83080587
     atom   11 type  2   force =    -0.68439069   -1.64303302   39.17450165
     atom   12 type  2   force =     0.28372313    0.62474374  -37.94848589
     atom   13 type  1   force =     0.51680707    1.15252925    2.84073453
     atom   14 type  2   force =    -0.00530263    0.09379462   38.66930383
     atom   15 type  2   force =     0.17658381    0.02627566  -36.87440815
     atom   16 type  1   force =     0.02440340    3.88546899    0.57582660
     atom   17 type  2   force =     0.83630716    1.50956153   37.98449389
     atom   18 type  2   force =    -0.13933707   -0.56940455  -38.47569631
     atom   19 type  1   force =     2.81316872   -2.82967259    0.56658248
     atom   20 type  2   force =     0.20767841   -0.25312678  -38.48164934
     atom   21 type  1   force =     0.08605914    0.05074032    1.38307690
     atom   22 type  2   force =     0.58500989   -1.78918557   38.57918556
     atom   23 type  2   force =     0.04817568    0.57656882  -38.40778694
     atom   24 type  1   force =    -0.34379621    1.25565198    5.52815438
     atom   25 type  2   force =     0.62391933    0.42748644   39.33506995
     atom   26 type  2   force =    -0.25178891    0.17297003  -37.37262795
     atom   27 type  1   force =     0.21209587    0.44355719   -1.93076286
     atom   28 type  2   force =     0.05527607    0.92186732   38.25559582
     atom   29 type  2   force =    -0.23888635   -0.39375189  -37.31435410
     atom   30 type  1   force =    -0.28164499   -1.53821423   -0.63488217
     atom   31 type  2   force =     1.31651083   -0.15021686   37.36726193
     atom   32 type  2   force =    -0.35244121   -0.12651528  -38.60632955
     atom   33 type  1   force =     1.34168512   -0.21190116    1.24716034
     atom   34 type  2   force =     0.36009311   -1.01719714   36.97295001
     atom   35 type  2   force =    -0.25613736    0.52326602  -37.90499188
     atom   36 type  3   force =    -0.23013451   -0.60699130    8.24959462
     The local contribution  to forces
     atom    1 type  1   force =    -0.06589111   -0.76629117   -5.80515943
     atom    2 type  2   force =     0.56016531   -0.43765370  -39.19188074
     atom    3 type  2   force =     0.15722925   -0.08026248   35.99238774
     atom    4 type  1   force =     0.15405499   -0.53429019   -0.78596448
     atom    5 type  2   force =     0.98204902   -1.47569469  -38.46613371
     atom    6 type  2   force =    -0.28706453    0.52098990   37.67975832
     atom    7 type  1   force =     2.79593831    3.06408499   -2.39651505
     atom    8 type  2   force =     1.10336684    0.13363006  -37.17925639
     atom    9 type  2   force =    -0.22099598    0.16128006   37.75453886
     atom   10 type  1   force =     1.53747700    0.00049336   -4.86545813
     atom   11 type  2   force =     0.67491442    1.63144557  -38.94986731
     atom   12 type  2   force =    -0.27755533   -0.61073120   37.71397924
     atom   13 type  1   force =    -0.51556574   -1.17496804   -2.83789412
     atom   14 type  2   force =     0.00183139   -0.08200680  -38.41741443
     atom   15 type  2   force =    -0.17460520   -0.01885895   36.62599933
     atom   16 type  1   force =    -0.02667574   -3.93040919   -0.55918551
     atom   17 type  2   force =    -0.83197151   -1.47955204  -37.75168282
     atom   18 type  2   force =     0.13911640    0.56966488   38.23725776
     atom   19 type  1   force =    -2.83511007    2.83224878   -0.55545262
     atom   20 type  2   force =    -0.20395764    0.26602862   38.23755148
     atom   21 type  1   force =    -0.09469796   -0.06262913   -1.38680566
     atom   22 type  2   force =    -0.57259319    1.78086158  -38.34996268
     atom   23 type  2   force =    -0.05284182   -0.56773631   38.16985650
     atom   24 type  1   force =     0.33581781   -1.28283788   -5.52699438
     atom   25 type  2   force =    -0.61796336   -0.41135566  -39.09521510
     atom   26 type  2   force =     0.24515581   -0.15880282   37.12177675
     atom   27 type  1   force =    -0.21510688   -0.45259222    1.93170620
     atom   28 type  2   force =    -0.05137132   -0.89879925  -38.00857654
     atom   29 type  2   force =     0.23599056    0.39635205   37.06667505
     atom   30 type  1   force =     0.28015338    1.52817026    0.60936940
     atom   31 type  2   force =    -1.30495209    0.14818219  -37.12550666
     atom   32 type  2   force =     0.34746961    0.14302822   38.36100572
     atom   33 type  1   force =    -1.28943381    0.23785031   -1.27499923
     atom   34 type  2   force =    -0.34628799    1.13146469  -37.07551578
     atom   35 type  2   force =     0.25107645   -0.50639999   37.65537664
     atom   36 type  3   force =     0.24033137    0.61857038   -8.25185161
     The core correction contribution to forces
     atom    1 type  1   force =     0.00000000    0.00000000    0.00000000
     atom    2 type  2   force =     0.00003888    0.00031969    0.02049535
     atom    3 type  2   force =     0.00056257    0.00031974   -0.02091836
     atom    4 type  1   force =     0.00000000    0.00000000    0.00000000
     atom    5 type  2   force =    -0.00076739    0.00200624    0.02033764
     atom    6 type  2   force =     0.00014499   -0.00081401   -0.02084033
     atom    7 type  1   force =     0.00000000    0.00000000    0.00000000
     atom    8 type  2   force =    -0.00045857   -0.00031355    0.01931664
     atom    9 type  2   force =    -0.00026124    0.00054971   -0.02100503
     atom   10 type  1   force =     0.00000000    0.00000000    0.00000000
     atom   11 type  2   force =    -0.00097141   -0.00081716    0.02020071
     atom   12 type  2   force =     0.00095496    0.00112839   -0.02055091
     atom   13 type  1   force =     0.00000000    0.00000000    0.00000000
     atom   14 type  2   force =    -0.00056256    0.00008092    0.02063714
     atom   15 type  2   force =     0.00066440    0.00042116   -0.02063458
     atom   16 type  1   force =     0.00000000    0.00000000    0.00000000
     atom   17 type  2   force =     0.00013549    0.00165274    0.02020331
     atom   18 type  2   force =     0.00015624   -0.00031884   -0.02089172
     atom   19 type  1   force =     0.00000000    0.00000000    0.00000000
     atom   20 type  2   force =     0.00017585    0.00058366   -0.02108937
     atom   21 type  1   force =     0.00000000    0.00000000    0.00000000
     atom   22 type  2   force =     0.00045355   -0.00065859    0.02016096
     atom   23 type  2   force =    -0.00043482    0.00091363   -0.02070870
     atom   24 type  1   force =     0.00000000    0.00000000    0.00000000
     atom   25 type  2   force =    -0.00005426   -0.00034492    0.02026640
     atom   26 type  2   force =    -0.00028046    0.00088099   -0.02094046
     atom   27 type  1   force =     0.00000000    0.00000000    0.00000000
     atom   28 type  2   force =     0.00023277    0.00195499    0.02084061
     atom   29 type  2   force =    -0.00049855   -0.00030114   -0.02064631
     atom   30 type  1   force =     0.00000000    0.00000000    0.00000000
     atom   31 type  2   force =     0.00086350   -0.00024580    0.02003343
     atom   32 type  2   force =    -0.00004036    0.00073445   -0.02096037
     atom   33 type  1   force =     0.00000000    0.00000000    0.00000000
     atom   34 type  2   force =     0.00496272    0.01327459   -0.00531046
     atom   35 type  2   force =    -0.00011575    0.00106389   -0.02116437
     atom   36 type  3   force =     0.00000000    0.00000000    0.00000000
     The Hubbard contrib.    to forces
     atom    1 type  1   force =     0.00000000    0.00000000    0.00000000
     atom    2 type  2   force =     0.00000000    0.00000000    0.00000000
     atom    3 type  2   force =     0.00000000    0.00000000    0.00000000
     atom    4 type  1   force =     0.00000000    0.00000000    0.00000000
     atom    5 type  2   force =     0.00000000    0.00000000    0.00000000
     atom    6 type  2   force =     0.00000000    0.00000000    0.00000000
     atom    7 type  1   force =     0.00000000    0.00000000    0.00000000
     atom    8 type  2   force =     0.00000000    0.00000000    0.00000000
     atom    9 type  2   force =     0.00000000    0.00000000    0.00000000
     atom   10 type  1   force =     0.00000000    0.00000000    0.00000000
     atom   11 type  2   force =     0.00000000    0.00000000    0.00000000
     atom   12 type  2   force =     0.00000000    0.00000000    0.00000000
     atom   13 type  1   force =     0.00000000    0.00000000    0.00000000
     atom   14 type  2   force =     0.00000000    0.00000000    0.00000000
     atom   15 type  2   force =     0.00000000    0.00000000    0.00000000
     atom   16 type  1   force =     0.00000000    0.00000000    0.00000000
     atom   17 type  2   force =     0.00000000    0.00000000    0.00000000
     atom   18 type  2   force =     0.00000000    0.00000000    0.00000000
     atom   19 type  1   force =     0.00000000    0.00000000    0.00000000
     atom   20 type  2   force =     0.00000000    0.00000000    0.00000000
     atom   21 type  1   force =     0.00000000    0.00000000    0.00000000
     atom   22 type  2   force =     0.00000000    0.00000000    0.00000000
     atom   23 type  2   force =     0.00000000    0.00000000    0.00000000
     atom   24 type  1   force =     0.00000000    0.00000000    0.00000000
     atom   25 type  2   force =     0.00000000    0.00000000    0.00000000
     atom   26 type  2   force =     0.00000000    0.00000000    0.00000000
     atom   27 type  1   force =     0.00000000    0.00000000    0.00000000
     atom   28 type  2   force =     0.00000000    0.00000000    0.00000000
     atom   29 type  2   force =     0.00000000    0.00000000    0.00000000
     atom   30 type  1   force =     0.00000000    0.00000000    0.00000000
     atom   31 type  2   force =     0.00000000    0.00000000    0.00000000
     atom   32 type  2   force =     0.00000000    0.00000000    0.00000000
     atom   33 type  1   force =     0.00000000    0.00000000    0.00000000
     atom   34 type  2   force =     0.00000000    0.00000000    0.00000000
     atom   35 type  2   force =     0.00000000    0.00000000    0.00000000
     atom   36 type  3   force =     0.00000000    0.00000000    0.00000000
     The SCF correction term to forces
     atom    1 type  1   force =     0.00010349   -0.00030834   -0.00061436
     atom    2 type  2   force =     0.00006085   -0.00027112   -0.00035793
     atom    3 type  2   force =     0.00001551   -0.00014726   -0.00003607
     atom    4 type  1   force =     0.00001416    0.00041735   -0.00044201
     atom    5 type  2   force =     0.00006653    0.00010220   -0.00037488
     atom    6 type  2   force =     0.00003799    0.00003358   -0.00002944
     atom    7 type  1   force =     0.00013463    0.00027322   -0.00029505
     atom    8 type  2   force =     0.00001602    0.00024156   -0.00038216
     atom    9 type  2   force =    -0.00008559    0.00010393    0.00012056
     atom   10 type  1   force =    -0.00014951   -0.00036084   -0.00024427
     atom   11 type  2   force =     0.00017658   -0.00008564   -0.00045893
     atom   12 type  2   force =     0.00001602   -0.00007004    0.00013829
     atom   13 type  1   force =    -0.00009266   -0.00023926   -0.00058426
     atom   14 type  2   force =     0.00001036   -0.00015206   -0.00039711
     atom   15 type  2   force =     0.00002056   -0.00011727   -0.00003454
     atom   16 type  1   force =     0.00003584    0.00035654   -0.00052619
     atom   17 type  2   force =    -0.00006347    0.00006842   -0.00038152
     atom   18 type  2   force =    -0.00005978    0.00004206   -0.00001790
     atom   19 type  1   force =     0.00008673    0.00013454   -0.00032989
     atom   20 type  2   force =     0.00005694    0.00013350    0.00007069
     atom   21 type  1   force =     0.00017757   -0.00036369   -0.00045080
     atom   22 type  2   force =    -0.00003705   -0.00005148   -0.00038208
     atom   23 type  2   force =     0.00004742   -0.00001727    0.00003862
     atom   24 type  1   force =    -0.00002845   -0.00023564   -0.00054464
     atom   25 type  2   force =    -0.00006343   -0.00014752   -0.00037253
     atom   26 type  2   force =    -0.00002712   -0.00008033   -0.00003156
     atom   27 type  1   force =    -0.00005619    0.00029412   -0.00049460
     atom   28 type  2   force =    -0.00000187    0.00008486   -0.00038121
     atom   29 type  2   force =     0.00002273    0.00002905   -0.00001807
     atom   30 type  1   force =    -0.00019909    0.00017475   -0.00000622
     atom   31 type  2   force =    -0.00011353    0.00015702   -0.00035909
     atom   32 type  2   force =     0.00001890    0.00002112    0.00008088
     atom   33 type  1   force =    -0.00001695   -0.00017770   -0.00038720
     atom   34 type  2   force =    -0.00019870   -0.00022521   -0.00009844
     atom   35 type  2   force =    -0.00006214    0.00003500    0.00006040
     atom   36 type  3   force =    -0.00000284    0.00001309   -0.00009750

     Total force =     0.199531     Total SCF correction =     0.002356
     Energy error            =      4.9E-02 Ry
     Gradient error          =      1.1E-01 Ry/Bohr

     number of scf cycles    =   2
     number of bfgs steps    =   1

     energy             old  =   -2205.4818764110 Ry
     energy             new  =   -2205.5304399520 Ry

     CASE: energy            _new < energy            _old

     new trust radius        =       0.1102865967 bohr
     new conv_thr            =       0.0000001132 Ry


ATOMIC_POSITIONS (angstrom)
Mo            6.5832724984        1.7680882388        2.8257876044
S             8.1627480399        0.8286542077        4.4364296932
S             8.1815966376        0.8214480594        1.2721592721
Mo            8.1027233605        4.4941082068        2.7172820274
S             6.4987743889        3.7169347397        4.3401011899
S             6.5575915082        3.5204140169        1.1235519962
Mo            6.4918826787        7.2168481431        2.6674258295
S             8.0833088044        6.3412557953        4.2609302038
S             8.0948391805        6.3081400485        1.0920957259
Mo            8.1324280052        9.9149329049        2.8141524906
S             6.4998322239        8.9404086547        4.3752439717
S             6.6174135566        9.0505410438        1.1435345030
Mo            3.4270863029        1.7521514438        2.7720369519
S             4.9820650492        0.8185252241        4.3608529646
S             5.0473599772        0.8483382472        1.2186335848
Mo            4.9797987014        4.5144682138        2.6329230048
S             3.4335242842        3.6727319697        4.2816796743
S             3.4327455861        3.5429253090        1.0712821578
Mo            3.4598769324        7.2140164960        2.6283016764
S             4.9863008565        6.3215466652        1.0369562523
Mo            5.0080558709        9.9075809549        2.7468417221
S             3.4754248428        8.9407065626        4.3215443662
S             3.4064956524        9.0665745665        1.1024334823
Mo            0.2880566804        1.7435539105        2.8337044201
S             1.8677386846        0.8173245518        4.4042987200
S             1.8521133434        0.8526998467        1.2038638245
Mo            1.8559222696        4.4923513748        2.6682882918
S             0.2731809989        3.6517649184        4.3325466238
S             0.2336462305        3.5281719316        1.1682598361
Mo            0.2686116290        7.2158000416        2.6839855523
S             1.9035197892        6.3117973752        4.2375481019
S             1.8519110791        6.3140179558        1.0512759505
Mo            1.8906727651        9.9491083006        2.7497196944
S             0.3095209034        9.1186173992        4.2878980732
S             0.2698295055        9.0498812271        1.1604245239
H             9.4192381947        8.4147734205        5.5023288621



     Writing config-only to output data dir ./MoS2-V-O.save/
     NEW-OLD atomic charge density approx. for the potential

     negative rho (up, down):  1.445E-04 0.000E+00

     total cpu time spent up to now is      209.7 secs

     Self-consistent Calculation

     iteration #  1     ecut=    80.00 Ry     beta= 0.70
     Davidson diagonalization with overlap
     ethr =  1.00E-06,  avg # of iterations = 11.0

     negative rho (up, down):  5.587E-05 0.000E+00

     total cpu time spent up to now is      224.1 secs

     total energy              =   -2205.55190641 Ry
     estimated scf accuracy    <       0.00685583 Ry

     iteration #  2     ecut=    80.00 Ry     beta= 0.70
     Davidson diagonalization with overlap
     ethr =  2.23E-06,  avg # of iterations =  2.0

     negative rho (up, down):  5.314E-05 0.000E+00

     total cpu time spent up to now is      237.7 secs

     total energy              =   -2205.55227143 Ry
     estimated scf accuracy    <       0.00235718 Ry

     iteration #  3     ecut=    80.00 Ry     beta= 0.70
     Davidson diagonalization with overlap
     ethr =  7.68E-07,  avg # of iterations =  2.0

     negative rho (up, down):  4.324E-05 0.000E+00

     total cpu time spent up to now is      252.4 secs

     total energy              =   -2205.55238500 Ry
     estimated scf accuracy    <       0.00048688 Ry

     iteration #  4     ecut=    80.00 Ry     beta= 0.70
     Davidson diagonalization with overlap
     ethr =  1.59E-07,  avg # of iterations =  4.0

     negative rho (up, down):  4.113E-05 0.000E+00

     total cpu time spent up to now is      266.1 secs

     total energy              =   -2205.55242988 Ry
     estimated scf accuracy    <       0.00004336 Ry

     iteration #  5     ecut=    80.00 Ry     beta= 0.70
     Davidson diagonalization with overlap
     c_bands:  1 eigenvalues not converged
     ethr =  1.41E-08,  avg # of iterations = 20.0

     negative rho (up, down):  3.883E-05 0.000E+00

     total cpu time spent up to now is      279.5 secs

     total energy              =   -2205.55243939 Ry
     estimated scf accuracy    <       0.00001308 Ry

     iteration #  6     ecut=    80.00 Ry     beta= 0.70
     Davidson diagonalization with overlap
     ethr =  4.26E-09,  avg # of iterations =  3.0

     negative rho (up, down):  3.600E-05 0.000E+00

     total cpu time spent up to now is      293.4 secs

     total energy              =   -2205.55244096 Ry
     estimated scf accuracy    <       0.00000456 Ry

     iteration #  7     ecut=    80.00 Ry     beta= 0.70
     Davidson diagonalization with overlap
     ethr =  1.49E-09,  avg # of iterations =  3.0

     negative rho (up, down):  3.584E-05 0.000E+00

     total cpu time spent up to now is      304.8 secs

     total energy              =   -2205.55244175 Ry
     estimated scf accuracy    <       0.00000220 Ry

     iteration #  8     ecut=    80.00 Ry     beta= 0.70
     Davidson diagonalization with overlap
     ethr =  7.16E-10,  avg # of iterations =  5.0

     negative rho (up, down):  4.661E-05 0.000E+00

     total cpu time spent up to now is      316.0 secs

     total energy              =   -2205.55244203 Ry
     estimated scf accuracy    <       0.00000104 Ry

     iteration #  9     ecut=    80.00 Ry     beta= 0.70
     Davidson diagonalization with overlap
     ethr =  3.38E-10,  avg # of iterations =  3.0

     negative rho (up, down):  7.201E-05 0.000E+00

     total cpu time spent up to now is      326.0 secs

     total energy              =   -2205.55244213 Ry
     estimated scf accuracy    <       0.00000017 Ry

     iteration # 10     ecut=    80.00 Ry     beta= 0.70
     Davidson diagonalization with overlap
     ethr =  5.43E-11,  avg # of iterations =  6.0

     negative rho (up, down):  1.368E-04 0.000E+00

     total cpu time spent up to now is      328.4 secs

     End of self-consistent calculation

          k = 0.0000 0.0000 0.0000 (105382 PWs)   bands (ev):

   -62.8832 -62.8384 -62.8254 -62.8164 -62.7844 -62.7753 -62.7630 -62.7595
   -62.7446 -62.5948 -62.5742 -62.4929 -37.2068 -37.1655 -37.1329 -37.1050
   -37.0810 -37.0711 -37.0503 -37.0485 -37.0277 -37.0203 -37.0064 -36.9957
   -36.9748 -36.9687 -36.9627 -36.9514 -36.9442 -36.9426 -36.9271 -36.9219
   -36.9140 -36.8953 -36.8684 -36.8561 -36.8479 -36.8328 -36.8077 -36.7717
   -36.7595 -36.7545 -36.7386 -36.7269 -36.6743 -36.6486 -36.5495 -36.5243
   -16.3543 -15.6724 -15.0725 -15.0304 -14.9026 -14.7887 -14.6441 -14.4257
   -14.4164 -14.3613 -14.3332 -14.3003 -14.2696 -14.2088 -14.1375 -14.0745
   -14.0484 -14.0401 -13.9431 -13.9078 -13.7725 -13.7476 -13.7232  -9.0126
    -7.6218  -7.4446  -7.3529  -7.2893  -7.1891  -7.1489  -7.1288  -7.0835
    -6.7871  -6.7355  -6.6921  -6.6526  -6.6113  -6.5257  -6.4370  -6.3723
    -6.2967  -6.2236  -6.1666  -5.9577  -5.8816  -5.8410  -5.7641  -5.7501
    -5.7334  -5.6602  -5.6035  -5.5897  -5.5747  -5.5212  -5.4581  -5.3773
    -5.3613  -5.3045  -5.2150  -5.1039  -5.0786  -5.0038  -4.9542  -4.8963
    -4.8734  -4.7730  -4.5716  -4.5276  -4.3993  -4.3072  -4.2624  -4.2051
    -4.1388  -4.1235  -3.9777  -3.8076  -3.7262  -3.7238  -3.6843  -3.6576
    -3.6051  -3.5483  -3.5420  -3.4696  -3.4244  -3.4091  -3.3921  -3.3258
    -3.3020  -3.1732  -3.0852  -2.8847  -2.8218  -2.7856  -2.6954  -2.6807
    -2.6640  -2.6083  -2.5982  -2.5380  -2.4754  -2.1829  -1.9521  -1.9291
    -1.8671  -0.6828  -0.6081  -0.5470  -0.1329  -0.1034  -0.0539   0.0176
     0.0858   0.1181   0.2681   0.3030   0.3188   0.3814   0.4901   0.5052
     0.5454   0.6004   0.6183   0.6574   0.6841   0.7072   0.7581   0.7900
     0.8514   0.8674   0.9380   0.9652   1.0239   1.0537   1.1192   1.1763
     1.4841

     the Fermi energy is    -0.7212 ev

!    total energy              =   -2205.55244200 Ry
     estimated scf accuracy    <       0.00000009 Ry
     smearing contrib. (-TS)   =      -0.00913425 Ry
     internal energy E=F+TS    =   -2205.54330775 Ry

     The total energy is F=E-TS. E is the sum of the following terms:
     one-electron contribution =  -18063.20351309 Ry
     hartree contribution      =    9018.95110226 Ry
     xc contribution           =    -385.39748564 Ry
     ewald contribution        =    7224.10658872 Ry

     convergence has been achieved in  10 iterations

     negative rho (up, down):  1.368E-04 0.000E+00

     Forces acting on atoms (cartesian axes, Ry/au):

     atom    1 type  1   force =    -0.00034605   -0.00603790   -0.00271535
     atom    2 type  2   force =    -0.00849148    0.01039920   -0.00139709
     atom    3 type  2   force =    -0.01057857    0.00944146   -0.01303094
     atom    4 type  1   force =     0.00384826    0.00191972    0.00143591
     atom    5 type  2   force =     0.00059791   -0.00576448   -0.00605272
     atom    6 type  2   force =     0.00376406    0.00426394    0.00275850
     atom    7 type  1   force =     0.00338240   -0.00258298    0.00120231
     atom    8 type  2   force =     0.00363621   -0.00028214    0.01117897
     atom    9 type  2   force =     0.00917509    0.00201546    0.00339470
     atom   10 type  1   force =    -0.01186651    0.01329929   -0.01049403
     atom   11 type  2   force =     0.00397157   -0.00092484   -0.00867057
     atom   12 type  2   force =    -0.00666032    0.00040250   -0.00364115
     atom   13 type  1   force =     0.00352622    0.00498002   -0.00168530
     atom   14 type  2   force =     0.00443064    0.00148447    0.00693588
     atom   15 type  2   force =    -0.00677703    0.00188118   -0.00644499
     atom   16 type  1   force =    -0.00018194    0.00129627    0.00031307
     atom   17 type  2   force =     0.00474877    0.00114995    0.00269120
     atom   18 type  2   force =    -0.00363725   -0.00279655    0.00873935
     atom   19 type  1   force =     0.00369689   -0.00467352    0.00234711
     atom   20 type  2   force =     0.00296537   -0.00419376   -0.00256171
     atom   21 type  1   force =    -0.00170238    0.00210057    0.00254618
     atom   22 type  2   force =     0.00489614   -0.00278092   -0.00306100
     atom   23 type  2   force =     0.00588508   -0.00136302   -0.00203778
     atom   24 type  1   force =    -0.00326847   -0.00346378   -0.00533378
     atom   25 type  2   force =     0.01222264    0.01664374   -0.00124458
     atom   26 type  2   force =    -0.00268656    0.00315568   -0.00902202
     atom   27 type  1   force =    -0.00089888   -0.00035970    0.00666519
     atom   28 type  2   force =    -0.00005552   -0.00423958   -0.00402672
     atom   29 type  2   force =     0.00205277    0.00107304   -0.00423096
     atom   30 type  1   force =    -0.00134211   -0.00476506   -0.00273164
     atom   31 type  2   force =    -0.00094040    0.00118674    0.00772485
     atom   32 type  2   force =    -0.00552311    0.00161400    0.00424850
     atom   33 type  1   force =     0.01421661    0.00869835   -0.00358914
     atom   34 type  2   force =    -0.03379503   -0.07616488    0.04929546
     atom   35 type  2   force =    -0.00243769    0.00917691    0.00271302
     atom   36 type  3   force =     0.01417270    0.02421062   -0.02221873
     The non-local contrib.  to forces
     atom    1 type  1   force =    -0.00304433    0.03321219   -0.01249821
     atom    2 type  2   force =    -0.00363930   -0.00802378   -0.26512329
     atom    3 type  2   force =    -0.01138914   -0.00807887    0.26367593
     atom    4 type  1   force =    -0.00548785    0.00623887    0.00056080
     atom    5 type  2   force =     0.00920116   -0.03563166   -0.25507864
     atom    6 type  2   force =    -0.00141940    0.00398005    0.26478405
     atom    7 type  1   force =    -0.03117838   -0.01102119   -0.01614870
     atom    8 type  2   force =     0.00674949    0.00424280   -0.24157696
     atom    9 type  2   force =     0.00635888   -0.01083621    0.27454368
     atom   10 type  1   force =    -0.00246768    0.00197139   -0.00340618
     atom   11 type  2   force =     0.01481235    0.01002697   -0.25405351
     atom   12 type  2   force =    -0.01246145   -0.01350036    0.25482093
     atom   13 type  1   force =     0.00455973    0.02759563   -0.00624204
     atom   14 type  2   force =     0.00853355   -0.00994968   -0.26358427
     atom   15 type  2   force =    -0.00966255   -0.00620668    0.26198064
     atom   16 type  1   force =     0.00150673    0.04712997   -0.01774438
     atom   17 type  2   force =    -0.00025858   -0.03006529   -0.25042373
     atom   18 type  2   force =    -0.00417351   -0.00321376    0.26912909
     atom   19 type  1   force =     0.03084248   -0.01109583   -0.01046759
     atom   20 type  2   force =    -0.00081485   -0.01742055    0.26300508
     atom   21 type  1   force =     0.00313125    0.01895193    0.00364231
     atom   22 type  2   force =    -0.00544314    0.00449608   -0.25168037
     atom   23 type  2   force =     0.01002867   -0.01049135    0.25865872
[...]
     atom   27 type  1   force =     0.00570538    0.00761273    0.00141550
     atom   28 type  2   force =     0.00139668   -0.01514075   -0.27076414
     atom   29 type  2   force =    -0.00161462   -0.01200914    0.27017592
     atom   30 type  1   force =    -0.00034720   -0.00388376   -0.00844641
     atom   31 type  2   force =    -0.02164157    0.00476573   -0.25957242
     atom   32 type  2   force =     0.00047119   -0.01341872    0.26523299
     atom   33 type  1   force =     0.01968330    0.01238234   -0.01043528
     atom   34 type  2   force =    -0.00375458    0.00436210    0.27181590
     atom   35 type  2   force =    -0.00126027   -0.01454540    0.28419266
     atom   36 type  3   force =     0.00120081   -0.00226485   -0.06374390
     The ionic contribution  to forces
     atom    1 type  1   force =    -0.23110760    0.69792434    2.59307989
     atom    2 type  2   force =    -0.11824722    0.05804211   38.96425062
     atom    3 type  2   force =     0.20548113   -0.08822787  -37.63610637
     atom    4 type  1   force =    -0.43493001    0.13757157    0.16787704
     atom    5 type  2   force =    -0.84020024    1.28450348   38.43172489
     atom    6 type  2   force =     0.04919175   -0.30937237  -38.08399356
     atom    7 type  1   force =    -3.64252830   -1.49341582    0.45784693
     atom    8 type  2   force =    -1.40402654    0.22327087   38.40762311
     atom    9 type  2   force =     0.21989408    0.13607154  -38.52878255
     atom   10 type  1   force =     0.09915576   -0.73026996    2.30960910
     atom   11 type  2   force =    -0.66714966   -1.73067236   38.37667733
     atom   12 type  2   force =     0.08775067    0.17968974  -38.07431749
     atom   13 type  1   force =     0.22196341    0.61389183    3.15163292
     atom   14 type  2   force =     0.02935117   -0.16677187   38.73284430
     atom   15 type  2   force =    -0.05379863   -0.17754765  -37.32315867
     atom   16 type  1   force =     0.11109317    4.00993348    2.37932939
     atom   17 type  2   force =     0.89213144    1.27499103   38.61064357
     atom   18 type  2   force =    -0.10022284   -0.32624707  -37.98967612
     atom   19 type  1   force =     3.67034423   -1.34992301    1.83414714
     atom   20 type  2   force =    -0.05196156    0.16540224  -38.21114587
     atom   21 type  1   force =    -0.06122754   -0.87694907    2.01141917
     atom   22 type  2   force =     0.67395695   -1.69216769   38.53411609
     atom   23 type  2   force =    -0.16236098    0.12943673  -37.82502098
     atom   24 type  1   force =     0.00102797    0.04921134    2.45606985
     atom   25 type  2   force =     0.09276038    0.05927131   39.07862294
     atom   26 type  2   force =    -0.14879276   -0.13095052  -37.49320664
     atom   27 type  1   force =     0.37159398    0.13868519    1.02543627
     atom   28 type  2   force =    -0.05387189    0.49563501   38.23247957
     atom   29 type  2   force =     0.03770785   -0.25247124  -37.63401096
     atom   30 type  1   force =     0.06104305    0.38991189    1.89445394
     atom   31 type  2   force =     1.29488248    0.26796969   38.61720045
     atom   32 type  2   force =    -0.16311353    0.16109066  -38.30502744
     atom   33 type  1   force =    -0.04980629   -0.79330213    3.13679296
     atom   34 type  2   force =     0.02113901   -0.53311352   35.57437495
     atom   35 type  2   force =     0.06916285    0.20713463  -36.58913629
     atom   36 type  3   force =    -0.02628573   -0.02823656    8.71533052
     The local contribution  to forces
     atom    1 type  1   force =     0.23950234   -0.72632503   -2.58816637
     atom    2 type  2   force =     0.11678679   -0.04114989  -38.72913019
     atom    3 type  2   force =    -0.20139398    0.09720391   37.39035948
     atom    4 type  1   force =     0.43987896   -0.14565099   -0.16936615
     atom    5 type  2   force =     0.83690931   -1.26180967  -38.19581055
     atom    6 type  2   force =    -0.05436066    0.31279857   37.84212194
     atom    7 type  1   force =     3.68233401    1.49568902   -0.45558119
     atom    8 type  2   force =     1.38200079   -0.22793716  -38.16917927
     atom    9 type  2   force =    -0.21886403   -0.12464253   38.28477199
     atom   10 type  1   force =    -0.07876562    0.71811439   -2.29977636
     atom   11 type  2   force =     0.65719364    1.72195378  -38.14691497
     atom   12 type  2   force =    -0.08421981   -0.16579336   37.83314190
     atom   13 type  1   force =    -0.23120495   -0.64414199   -3.14710399
     atom   14 type  2   force =    -0.02880312    0.17753050  -38.48764321
     atom   15 type  2   force =     0.05307600    0.18575248   37.08084974
     atom   16 type  1   force =    -0.11200621   -4.06731083   -2.34953801
     atom   17 type  2   force =    -0.88842404   -1.25240066  -38.37468651
     atom   18 type  2   force =     0.10492537    0.33022339   37.74791195
     atom   19 type  1   force =    -3.71186222    1.35209403   -1.82934041
     atom   20 type  2   force =     0.05078934   -0.15665678   37.96610455
     atom   21 type  1   force =     0.06092931    0.85543750   -2.01201929
     atom   22 type  2   force =    -0.66332949    1.68462810  -38.30389519
     atom   23 type  2   force =     0.15756993   -0.11613254   37.58320356
     atom   24 type  1   force =    -0.00023375   -0.06946496   -2.45669035
     atom   25 type  2   force =    -0.09170731   -0.04269473  -38.84368725
     atom   26 type  2   force =     0.14529868    0.13978682   37.24719888
     atom   27 type  1   force =    -0.37733479   -0.14625786   -1.02714439
     atom   28 type  2   force =     0.05290526   -0.48091217  -37.98315817
     atom   29 type  2   force =    -0.03694768    0.26356174   37.38545466
     atom   30 type  1   force =    -0.06086276   -0.38670731   -1.88569468
     atom   31 type  2   force =    -1.27420479   -0.27280741  -38.37870121
     atom   32 type  2   force =     0.16316608   -0.14874348   38.06084484
     atom   33 type  1   force =     0.02915356    0.78030811   -3.12595542
     atom   34 type  2   force =    -0.01620875    0.53020809  -35.83737878
     atom   35 type  2   force =    -0.06802044   -0.19319804   36.32702761
     atom   36 type  3   force =     0.02548280    0.03023217   -8.65068664
     The core correction contribution to forces
     atom    1 type  1   force =     0.00000000    0.00000000    0.00000000
     atom    2 type  2   force =    -0.00023134    0.00112244    0.02019810
     atom    3 type  2   force =     0.00021920    0.00055282   -0.02098885
     atom    4 type  1   force =     0.00000000    0.00000000    0.00000000
     atom    5 type  2   force =    -0.00035237    0.00115407    0.02035959
     atom    6 type  2   force =    -0.00030326   -0.00015484   -0.02071135
     atom    7 type  1   force =     0.00000000    0.00000000    0.00000000
     atom    8 type  2   force =    -0.00155144   -0.00020000    0.02045711
     atom    9 type  2   force =     0.00034064    0.00064386   -0.02096244
     atom   10 type  1   force =     0.00000000    0.00000000    0.00000000
     atom   11 type  2   force =    -0.00065972   -0.00115678    0.01999032
     atom   12 type  2   force =     0.00024481    0.00079895   -0.02074521
     atom   13 type  1   force =     0.00000000    0.00000000    0.00000000
     atom   14 type  2   force =     0.00006322    0.00022847    0.02072324
     atom   15 type  2   force =    -0.00007463    0.00024518   -0.02071006
     atom   16 type  1   force =     0.00000000    0.00000000    0.00000000
     atom   17 type  2   force =     0.00048228    0.00115608    0.02038951
     atom   18 type  2   force =     0.00018659   -0.00015283   -0.02070252
     atom   19 type  1   force =     0.00000000    0.00000000    0.00000000
     atom   20 type  2   force =    -0.00015680    0.00046935   -0.02113758
     atom   21 type  1   force =     0.00000000    0.00000000    0.00000000
     atom   22 type  2   force =     0.00076614   -0.00099198    0.02004012
     atom   23 type  2   force =    -0.00038610    0.00066405   -0.02073290
     atom   24 type  1   force =     0.00000000    0.00000000    0.00000000
     atom   25 type  2   force =     0.00016078    0.00121931    0.02020818
     atom   26 type  2   force =    -0.00014893    0.00053727   -0.02099472
     atom   27 type  1   force =     0.00000000    0.00000000    0.00000000
     atom   28 type  2   force =    -0.00012308    0.00097930    0.02090353
     atom   29 type  2   force =     0.00011525    0.00048162   -0.02089157
     atom   30 type  1   force =     0.00000000    0.00000000    0.00000000
     atom   31 type  2   force =     0.00132850   -0.00019886    0.02048045
     atom   32 type  2   force =    -0.00021607    0.00066007   -0.02095548
     atom   33 type  1   force =     0.00000000    0.00000000    0.00000000
     atom   34 type  2   force =     0.00023406   -0.00056509   -0.01125044
     atom   35 type  2   force =     0.00010171    0.00082138   -0.02145373
     atom   36 type  3   force =     0.00000000    0.00000000    0.00000000
     The Hubbard contrib.    to forces
     atom    1 type  1   force =     0.00000000    0.00000000    0.00000000
     atom    2 type  2   force =     0.00000000    0.00000000    0.00000000
     atom    3 type  2   force =     0.00000000    0.00000000    0.00000000
     atom    4 type  1   force =     0.00000000    0.00000000    0.00000000
     atom    5 type  2   force =     0.00000000    0.00000000    0.00000000
     atom    6 type  2   force =     0.00000000    0.00000000    0.00000000
     atom    7 type  1   force =     0.00000000    0.00000000    0.00000000
     atom    8 type  2   force =     0.00000000    0.00000000    0.00000000
     atom    9 type  2   force =     0.00000000    0.00000000    0.00000000
     atom   10 type  1   force =     0.00000000    0.00000000    0.00000000
     atom   11 type  2   force =     0.00000000    0.00000000    0.00000000
     atom   12 type  2   force =     0.00000000    0.00000000    0.00000000
     atom   13 type  1   force =     0.00000000    0.00000000    0.00000000
     atom   14 type  2   force =     0.00000000    0.00000000    0.00000000
     atom   15 type  2   force =     0.00000000    0.00000000    0.00000000
     atom   16 type  1   force =     0.00000000    0.00000000    0.00000000
     atom   17 type  2   force =     0.00000000    0.00000000    0.00000000
     atom   18 type  2   force =     0.00000000    0.00000000    0.00000000
     atom   19 type  1   force =     0.00000000    0.00000000    0.00000000
     atom   20 type  2   force =     0.00000000    0.00000000    0.00000000
     atom   21 type  1   force =     0.00000000    0.00000000    0.00000000
     atom   22 type  2   force =     0.00000000    0.00000000    0.00000000
     atom   23 type  2   force =     0.00000000    0.00000000    0.00000000
     atom   24 type  1   force =     0.00000000    0.00000000    0.00000000
     atom   25 type  2   force =     0.00000000    0.00000000    0.00000000
     atom   26 type  2   force =     0.00000000    0.00000000    0.00000000
     atom   27 type  1   force =     0.00000000    0.00000000    0.00000000
     atom   28 type  2   force =     0.00000000    0.00000000    0.00000000
     atom   29 type  2   force =     0.00000000    0.00000000    0.00000000
     atom   30 type  1   force =     0.00000000    0.00000000    0.00000000
     atom   31 type  2   force =     0.00000000    0.00000000    0.00000000
     atom   32 type  2   force =     0.00000000    0.00000000    0.00000000
     atom   33 type  1   force =     0.00000000    0.00000000    0.00000000
     atom   34 type  2   force =     0.00000000    0.00000000    0.00000000
     atom   35 type  2   force =     0.00000000    0.00000000    0.00000000
     atom   36 type  3   force =     0.00000000    0.00000000    0.00000000
     The SCF correction term to forces
     atom    1 type  1   force =    -0.00001773    0.00003744   -0.00006742
     atom    2 type  2   force =     0.00001450    0.00000691   -0.00000232
     atom    3 type  2   force =     0.00000412    0.00000826   -0.00002264
     atom    4 type  1   force =     0.00006437    0.00003118   -0.00009613
     atom    5 type  2   force =     0.00000810   -0.00000038   -0.00002202
     atom    6 type  2   force =     0.00000839    0.00001116   -0.00002234
     atom    7 type  1   force =    -0.00000385    0.00003543   -0.00008126
     atom    8 type  2   force =     0.00001313    0.00000329   -0.00003903
     atom    9 type  2   force =     0.00000723    0.00000477   -0.00001644
     atom   10 type  1   force =     0.00000798   -0.00007500   -0.00005879
     atom   11 type  2   force =    -0.00002340   -0.00002155   -0.00003767
     atom   12 type  2   force =    -0.00001266   -0.00003195   -0.00000658
     atom   13 type  1   force =    -0.00001354    0.00006102   -0.00001506
     atom   14 type  2   force =    -0.00001425   -0.00000457   -0.00000426
     atom   15 type  2   force =     0.00000265    0.00000606   -0.00001821
     atom   16 type  1   force =    -0.00002283    0.00003543   -0.00007340
     atom   17 type  2   force =    -0.00001950   -0.00000077   -0.00001807
     atom   18 type  2   force =    -0.00001098    0.00000865   -0.00001116
     atom   19 type  1   force =    -0.00000886    0.00002005   -0.00002394
     atom   20 type  2   force =    -0.00000362    0.00002328   -0.00001480
     atom   21 type  1   force =    -0.00000229   -0.00010159   -0.00002875
     atom   22 type  2   force =    -0.00000007   -0.00002161   -0.00002025
     atom   23 type  2   force =     0.00001553   -0.00004040    0.00000667
     atom   24 type  1   force =     0.00001909    0.00005583   -0.00001884
     atom   25 type  2   force =     0.00000015    0.00000322    0.00000167
     atom   26 type  2   force =    -0.00000272    0.00001978   -0.00000590
     atom   27 type  1   force =    -0.00002154    0.00002979   -0.00005187
     atom   28 type  2   force =     0.00000837    0.00000998   -0.00003057
     atom   29 type  2   force =     0.00000261    0.00001732   -0.00000068
     atom   30 type  1   force =     0.00003211   -0.00001000   -0.00006119
     atom   31 type  2   force =    -0.00000272    0.00001061   -0.00003019
     atom   32 type  2   force =    -0.00000803    0.00000275    0.00000209
     atom   33 type  1   force =    -0.00000153   -0.00007319    0.00001177
     atom   34 type  2   force =     0.00002399   -0.00001227   -0.00003584
     atom   35 type  2   force =    -0.00000335   -0.00003978    0.00000641
     atom   36 type  3   force =     0.00000307   -0.00000118   -0.00000189

     Total force =     0.005930     Total SCF correction =     0.000315
     Energy error            =      9.3E-05 Ry
     Gradient error          =      2.5E-03 Ry/Bohr

     bfgs converged in  25 scf cycles and  24 bfgs steps
     (criteria: energy <  1.0E-04 Ry, force <  1.0E-02 Ry/Bohr)

     End of BFGS Geometry Optimization

     Final energy             =   -2205.5899330105 Ry

     File ./MoS2-V-O.bfgs deleted, as requested
Begin final coordinates

ATOMIC_POSITIONS (angstrom)
Mo            6.5535309621        1.7566919168        2.7625306003
S             8.1104012210        0.8498005231        4.3750700962
S             8.1253821910        0.8399714176        1.1709623819
Mo            8.1195477929        4.4748915318        2.7046381217
S             6.5194116981        3.6561949804        4.3124900990
S             6.5459369390        3.5540950502        1.1068698585
Mo            6.5626380482        7.1642066557        2.6327510928
S             8.0617729957        6.2688863261        4.3046372872
S             8.1640235143        6.2887775520        1.0777729662
Mo            8.0875266265        9.9510509805        2.7647524810
S             6.5170246886        8.9090077590        4.3161618417
S             6.5710862659        9.0405793762        1.1140958980
Mo            3.4268334620        1.7588581538        2.7737932248
S             4.9941575709        0.8116278654        4.3552038330
S             4.9859924057        0.8307914723        1.1825858263
Mo            4.9873051334        4.5301976194        2.6666223232
S             3.4670769879        3.6585629492        4.3261614262
S             3.4287722467        3.5522139130        1.1175160798
Mo            3.4187114589        7.1577577047        2.6585338051
S             4.9818615806        6.3080390308        1.0528361126
Mo            4.9892478714        9.8908778353        2.7454641298
S             3.4662959650        8.9173151338        4.3323900076
S             3.4005027803        9.0325430300        1.1313442029
Mo            0.2602120449        1.7213116899        2.7721994573
S             1.8628124684        0.8583566932        4.3860929185
S             1.8573712042        0.8385585815        1.1819870193
Mo            1.8606850485        4.4734330589        2.7213163235
S             0.2540359257        3.5836847790        4.3165040839
S             0.2683333359        3.5333177007        1.1482341849
Mo            0.2600160512        7.1478588539        2.7382755839
S             1.9059914045        6.2684918481        4.3234449233
S             1.8245264866        6.2854999287        1.0964447805
Mo            1.8896049330        9.9529672167        2.7805359572
S             0.2510031432        9.0130718765        4.2487377517
S             0.2662908348        9.0413867009        1.2141586683
H             9.6831837251        9.0603242611        5.6132074717
End final coordinates



     Writing all to output data dir ./MoS2-V-O.save/
 
     init_run     :      2.38s CPU      2.66s WALL (       1 calls)
     electrons    :   2331.12s CPU   2597.46s WALL (      25 calls)
     update_pot   :     34.13s CPU     36.06s WALL (      24 calls)
     forces       :     33.84s CPU     39.41s WALL (      25 calls)

     Called by init_run:
     wfcinit      :      0.38s CPU      0.43s WALL (       1 calls)
     potinit      :      1.32s CPU      1.44s WALL (       1 calls)
     hinit0       :      0.16s CPU      0.18s WALL (       1 calls)

     Called by electrons:
     c_bands      :    292.95s CPU    297.70s WALL (     224 calls)
     sum_band     :     66.13s CPU     86.66s WALL (     224 calls)
     v_of_rho     :     98.11s CPU    120.21s WALL (     238 calls)
     newd         :     31.84s CPU     50.51s WALL (     238 calls)
     mix_rho      :   1852.54s CPU   2053.37s WALL (     224 calls)

     Called by c_bands:
     init_us_2    :      4.76s CPU      5.16s WALL (     449 calls)
     init_us_2:cp :      4.76s CPU      5.15s WALL (     449 calls)
     regterg      :    276.29s CPU    280.61s WALL (     224 calls)

     Called by *egterg:
     rdiaghg      :     21.45s CPU     21.67s WALL (    1234 calls)
     h_psi        :    150.63s CPU    152.10s WALL (    1270 calls)
     s_psi        :     18.31s CPU     18.37s WALL (    1270 calls)
     g_psi        :      1.66s CPU      1.67s WALL (    1045 calls)

     Called by h_psi:
     h_psi:calbec :     22.14s CPU     22.26s WALL (    1270 calls)
     vloc_psi     :    106.85s CPU    108.06s WALL (    1270 calls)
     add_vuspsi   :     18.36s CPU     18.49s WALL (    1270 calls)

     General routines
     calbec       :     31.38s CPU     31.53s WALL (    1594 calls)
     fft          :     62.77s CPU     73.76s WALL (   15978 calls)
     ffts         :    834.86s CPU   1028.85s WALL (  451904 calls)
     fftw         :     91.79s CPU     92.69s WALL (  134068 calls)
     interpolate  :      1.72s CPU      2.02s WALL (     238 calls)
 
     Parallel routines
 
     PWSCF        :  40m 5.91s CPU  44m43.46s WALL

 
   This run was terminated on:   9:20:50   4Nov2023            

=------------------------------------------------------------------------------=
   JOB DONE.
=------------------------------------------------------------------------------=
