
     Program PWSCF v.7.2 starts on  3Nov2023 at 20:53:15 

     This program is part of the open-source Quantum ESPRESSO suite
     for quantum simulation of materials; please cite
         "P. Giannozzi et al., J. Phys.:Condens. Matter 21 395502 (2009);
         "P. Giannozzi et al., J. Phys.:Condens. Matter 29 465901 (2017);
         "P. Giannozzi et al., J. Chem. Phys. 152 154105 (2020);
          URL http://www.quantum-espresso.org", 
     in publications or presentations arising from this work. More details at
     http://www.quantum-espresso.org/quote

     Parallel version (MPI & OpenMP), running on     432 processor cores
     Number of MPI processes:                48
     Threads/MPI process:                     9

     MPI processes distributed on     3 nodes
     173111 MiB available memory on the printing compute node when the environment starts
 
     Waiting for input...
     Reading input from standard input
Warning: card &CELL ignored
Warning: card CELL_DYNAMICS = 'BFGS', ignored
Warning: card CELL_DOFREE = '2DXY' ignored
Warning: card / ignored

     Current dimensions of program PWSCF are:
     Max number of different atomic species (ntypx) = 10
     Max number of k-points (npk) =  40000
     Max angular momentum in pseudopotentials (lmaxx) =  4

     IMPORTANT: XC functional enforced from input :
     Exchange-correlation= RVV10
                           (   1   4  13   4  26   0   0)
     Any further DFT definition will be discarded
     Please, verify this is what you really want


     gamma-point specific algorithms are used
     signal trapping enabled: kill the code with -SIGUSR1 to stop cleanly the simulation 
 
     R & G space division:  proc/nbgrp/npool/nimage =      48
     Subspace diagonalization in iterative solution of the eigenvalue problem:
     one sub-group per band group will be used
     scalapack distributed-memory algorithm (size of sub-group:  2*  2 procs)

 
     Parallelization info
     --------------------
     sticks:   dense  smooth     PW     G-vecs:    dense   smooth      PW
     Min         243     194     47                49060    35090    4376
     Max         246     196     50                49086    35128    4410
     Sum       11735    9389   2349              2355467  1685513  210763
 
     Using Slab Decomposition
 


     bravais-lattice index     =            0
     lattice parameter (alat)  =      17.8707  a.u.
     unit-cell volume          =   17436.2743 (a.u.)^3
     number of atoms/cell      =           36
     number of atomic types    =            3
     number of electrons       =       307.00
     number of Kohn-Sham states=          185
     kinetic-energy cutoff     =      80.0000  Ry
     charge density cutoff     =     400.0000  Ry
     scf convergence threshold =      1.0E-06
     mixing beta               =       0.7000
     number of iterations used =            8  local-TF  mixing
     energy convergence thresh.=      1.0E-04
     force convergence thresh. =      1.0E-02
     Exchange-correlation= RVV10
                           (   1   4  13   4  26   0   0)
     nstep                     =          200


     celldm(1)=  17.870686  celldm(2)=   0.000000  celldm(3)=   0.000000
     celldm(4)=   0.000000  celldm(5)=   0.000000  celldm(6)=   0.000000

     crystal axes: (cart. coord. in units of alat)
               a(1) = (   1.000000   0.000000   0.000000 )  
               a(2) = (   0.000000   1.155671   0.000000 )  
               a(3) = (   0.000000   0.000000   2.643601 )  

     reciprocal axes: (cart. coord. in units 2 pi/alat)
               b(1) = (  1.000000  0.000000  0.000000 )  
               b(2) = (  0.000000  0.865298  0.000000 )  
               b(3) = (  0.000000  0.000000  0.378272 )  


     PseudoPot. # 1 for Mo read from file:
     ../pseudo/Mo_ONCV_PBE-1.0.oncvpsp.upf
     MD5 check sum: 1b5d28e075c9ccadda658a603575cd1f
     Pseudo is Norm-conserving, Zval = 14.0
     Generated using ONCVPSP code by D. R. Hamann
     Using radial grid of 1526 points,  6 beta functions with: 
                l(1) =   0
                l(2) =   0
                l(3) =   1
                l(4) =   1
                l(5) =   2
                l(6) =   2

     PseudoPot. # 2 for S  read from file:
     ../pseudo/s_pbe_v1.4.uspp.F.UPF
     MD5 check sum: 88d86576ff6df21479756cfb9bdac1df
     Pseudo is Ultrasoft + core correction, Zval =  6.0
     Generated by new atomic code, or converted to UPF format
     Using radial grid of  907 points,  6 beta functions with: 
                l(1) =   0
                l(2) =   0
                l(3) =   1
                l(4) =   1
                l(5) =   2
                l(6) =   2
     Q(r) pseudized with  8 coefficients,  rinner =    1.300   1.300   1.300
                                                       1.300   1.300

     PseudoPot. # 3 for H  read from file:
     ../pseudo/H_ONCV_PBE-1.0.oncvpsp.upf
     MD5 check sum: 1790becc920ee074925cf490c71280fe
     Pseudo is Norm-conserving, Zval =  1.0
     Generated using ONCVPSP code by D. R. Hamann
     Using radial grid of 1166 points,  2 beta functions with: 
                l(1) =   0
                l(2) =   0

     atomic species   valence    mass     pseudopotential
        Mo            14.00    95.94000     Mo( 1.00)
        S              6.00    32.06500     S ( 1.00)
        H              1.00     1.00794     H ( 1.00)

     No symmetry found



   Cartesian axes

     site n.     atom                  positions (alat units)
         1           Mo  tau(   1) = (   0.6952221   0.1890506   0.2985846  )
         2           S   tau(   2) = (   0.8646417   0.0856217   0.4689279  )
         3           S   tau(   3) = (   0.8663890   0.0857843   0.1351291  )
         4           Mo  tau(   4) = (   0.8560186   0.4753274   0.2873942  )
         5           S   tau(   5) = (   0.6873294   0.3936244   0.4596353  )
         6           S   tau(   6) = (   0.6929804   0.3713468   0.1185692  )
         7           Mo  tau(   7) = (   0.6862796   0.7633098   0.2825370  )
         8           S   tau(   8) = (   0.8545980   0.6708292   0.4486168  )
         9           S   tau(   9) = (   0.8545123   0.6666874   0.1146125  )
        10           Mo  tau(  10) = (   0.8629403   1.0471007   0.3006803  )
        11           S   tau(  11) = (   0.6868280   0.9456650   0.4634891  )
        12           S   tau(  12) = (   0.6998113   0.9568511   0.1205389  )
        13           Mo  tau(  13) = (   0.3618216   0.1847309   0.2935964  )
        14           S   tau(  14) = (   0.5260962   0.0863870   0.4600448  )
        15           S   tau(  15) = (   0.5348379   0.0894875   0.1297123  )
        16           Mo  tau(  16) = (   0.5265817   0.4772436   0.2784130  )
        17           S   tau(  17) = (   0.3624753   0.3882513   0.4525556  )
        18           S   tau(  18) = (   0.3635411   0.3752055   0.1119148  )
        19           Mo  tau(  19) = (   0.3652268   0.7630864   0.2781795  )
        20           S   tau(  20) = (   0.5269494   0.6690381   0.1096838  )
        21           Mo  tau(  21) = (   0.5300192   1.0470394   0.2900995  )
        22           S   tau(  22) = (   0.3670346   0.9457522   0.4574073  )
        23           S   tau(  23) = (   0.3604225   0.9585725   0.1159032  )
        24           Mo  tau(  24) = (   0.0313099   0.1847895   0.3013130  )
        25           S   tau(  25) = (   0.1956761   0.0838230   0.4650863  )
        26           S   tau(  26) = (   0.1967693   0.0903508   0.1278874  )
        27           Mo  tau(  27) = (   0.1967578   0.4753919   0.2813011  )
        28           S   tau(  28) = (   0.0287851   0.3864324   0.4586755  )
        29           S   tau(  29) = (   0.0244514   0.3729871   0.1239344  )
        30           Mo  tau(  30) = (   0.0286728   0.7631204   0.2856894  )
        31           S   tau(  31) = (   0.2011512   0.6675435   0.4465001  )
        32           S   tau(  32) = (   0.1969214   0.6672839   0.1104564  )
        33           Mo  tau(  33) = (   0.1950294   1.0511147   0.2932237  )
        34           S   tau(  34) = (   0.0312912   0.9612169   0.4667423  )
        35           S   tau(  35) = (   0.0292670   0.9563028   0.1216485  )
        36           H   tau(  36) = (   0.2222222   0.1284079   0.5650415  )

     number of k points=     1  Gaussian smearing, width (Ry)=  0.0100
                       cart. coord. in units 2pi/alat
        k(    1) = (   0.0000000   0.0000000   0.0000000), wk =   2.0000000

     Dense  grid:  1177734 G-vectors     FFT dimensions: ( 120, 135, 320)

     Smooth grid:   842757 G-vectors     FFT dimensions: ( 108, 120, 270)

     Estimated max dynamical RAM per process >     146.59 MB

     Estimated total dynamical RAM >       6.87 GB

     Initial potential from superposition of free atoms

     starting charge     306.9873, renormalised to     307.0000

     negative rho (up, down):  1.411E-04 0.000E+00


---------------------------------------------------------------------------------
Carrying out rVV10 run using the following parameters:
Nqs =      20    Nr_points =    1024   r_max =   100.000
b_value =  6.30000    beta =  0.00901
     q_mesh =  0.00010000  0.00030000  0.00058939  0.00100810
               0.00161396  0.00249058  0.00375900  0.00559430
               0.00824984  0.01209221  0.01765183  0.02569619
               0.03733578  0.05417739  0.07854596  0.11380545
               0.16482331  0.23864234  0.34545298  0.50000000

Gradients computed in Reciprocal space

---------------------------------------------------------------------------------


     Starting wfcs are  213 randomized atomic wfcs

     total cpu time spent up to now is       55.6 secs

     Self-consistent Calculation

     iteration #  1     ecut=    80.00 Ry     beta= 0.70
     Davidson diagonalization with overlap
     ethr =  1.00E-02,  avg # of iterations =  2.0

     Threshold (ethr) on eigenvalues was too large:
     Diagonalizing with lowered threshold

     Davidson diagonalization with overlap
     ethr =  3.93E-04,  avg # of iterations =  4.0

     negative rho (up, down):  2.516E-08 0.000E+00

     total cpu time spent up to now is     1172.3 secs

     total energy              =   -2205.50569727 Ry
     estimated scf accuracy    <       1.49156990 Ry

     iteration #  2     ecut=    80.00 Ry     beta= 0.70
     Davidson diagonalization with overlap
     ethr =  4.86E-04,  avg # of iterations =  1.0

     total cpu time spent up to now is     1263.5 secs

     total energy              =   -2205.32843031 Ry
     estimated scf accuracy    <       0.61032755 Ry

     iteration #  3     ecut=    80.00 Ry     beta= 0.70
     Davidson diagonalization with overlap
     ethr =  1.99E-04,  avg # of iterations =  2.0

     total cpu time spent up to now is     1312.8 secs

     total energy              =   -2205.42058130 Ry
     estimated scf accuracy    <       0.07454115 Ry

     iteration #  4     ecut=    80.00 Ry     beta= 0.70
     Davidson diagonalization with overlap
     ethr =  2.43E-05,  avg # of iterations = 18.0

     total cpu time spent up to now is     1376.7 secs

     total energy              =   -2205.42504667 Ry
     estimated scf accuracy    <       0.03591902 Ry

     iteration #  5     ecut=    80.00 Ry     beta= 0.70
     Davidson diagonalization with overlap
     ethr =  1.17E-05,  avg # of iterations =  2.0

     total cpu time spent up to now is     1429.3 secs

     total energy              =   -2205.42394824 Ry
     estimated scf accuracy    <       0.02021224 Ry

     iteration #  6     ecut=    80.00 Ry     beta= 0.70
     Davidson diagonalization with overlap
     ethr =  6.58E-06,  avg # of iterations =  2.0

     total cpu time spent up to now is     1491.5 secs

     total energy              =   -2205.42338849 Ry
     estimated scf accuracy    <       0.01507725 Ry

     iteration #  7     ecut=    80.00 Ry     beta= 0.70
     Davidson diagonalization with overlap
     ethr =  4.91E-06,  avg # of iterations =  1.0

     total cpu time spent up to now is     1562.6 secs

     total energy              =   -2205.42149202 Ry
     estimated scf accuracy    <       0.01006357 Ry

     iteration #  8     ecut=    80.00 Ry     beta= 0.70
     Davidson diagonalization with overlap
     ethr =  3.28E-06,  avg # of iterations =  2.0

     negative rho (up, down):  6.248E-03 0.000E+00

     total cpu time spent up to now is     1782.5 secs

     total energy              =   -2205.42071192 Ry
     estimated scf accuracy    <       0.00520828 Ry

     iteration #  9     ecut=    80.00 Ry     beta= 0.70
     Davidson diagonalization with overlap
     ethr =  1.70E-06,  avg # of iterations =  2.0

     negative rho (up, down):  2.813E-02 0.000E+00

     total cpu time spent up to now is     2018.2 secs

     total energy              =   -2205.42029355 Ry
     estimated scf accuracy    <       0.00321818 Ry

     iteration # 10     ecut=    80.00 Ry     beta= 0.70
     Davidson diagonalization with overlap
     ethr =  1.05E-06,  avg # of iterations =  2.0

     negative rho (up, down):  3.201E-02 0.000E+00

     total cpu time spent up to now is     2266.4 secs

     total energy              =   -2205.42032189 Ry
     estimated scf accuracy    <       0.00133670 Ry

     iteration # 11     ecut=    80.00 Ry     beta= 0.70
     Davidson diagonalization with overlap
     ethr =  4.35E-07,  avg # of iterations =  2.0

     negative rho (up, down):  1.910E-02 0.000E+00

     total cpu time spent up to now is     2662.9 secs

     total energy              =   -2205.42035616 Ry
     estimated scf accuracy    <       0.00048374 Ry

     iteration # 12     ecut=    80.00 Ry     beta= 0.70
     Davidson diagonalization with overlap
     ethr =  1.58E-07,  avg # of iterations =  2.0

     negative rho (up, down):  7.391E-03 0.000E+00

     total cpu time spent up to now is     3059.9 secs

     total energy              =   -2205.42038877 Ry
     estimated scf accuracy    <       0.00018729 Ry

     iteration # 13     ecut=    80.00 Ry     beta= 0.70
     Davidson diagonalization with overlap
     ethr =  6.10E-08,  avg # of iterations =  5.0

     negative rho (up, down):  1.198E-03 0.000E+00

     total cpu time spent up to now is     3572.8 secs

     total energy              =   -2205.42041645 Ry
     estimated scf accuracy    <       0.00002392 Ry

     iteration # 14     ecut=    80.00 Ry     beta= 0.70
     Davidson diagonalization with overlap
     c_bands:  2 eigenvalues not converged
     ethr =  7.79E-09,  avg # of iterations = 20.0

     negative rho (up, down):  8.914E-04 0.000E+00

     total cpu time spent up to now is     4586.6 secs

     total energy              =   -2205.42042640 Ry
     estimated scf accuracy    <       0.00000844 Ry

     iteration # 15     ecut=    80.00 Ry     beta= 0.70
     Davidson diagonalization with overlap
     ethr =  2.75E-09,  avg # of iterations = 19.0

     negative rho (up, down):  4.268E-04 0.000E+00

     total cpu time spent up to now is     5423.6 secs

     total energy              =   -2205.42043320 Ry
     estimated scf accuracy    <       0.00000360 Ry

     iteration # 16     ecut=    80.00 Ry     beta= 0.70
     Davidson diagonalization with overlap
     ethr =  1.17E-09,  avg # of iterations =  2.0

     negative rho (up, down):  4.640E-04 0.000E+00

     total cpu time spent up to now is     6062.2 secs

     total energy              =   -2205.42043384 Ry
     estimated scf accuracy    <       0.00000156 Ry

     iteration # 17     ecut=    80.00 Ry     beta= 0.70
     Davidson diagonalization with overlap
     ethr =  5.08E-10,  avg # of iterations =  3.0

     negative rho (up, down):  1.371E-04 0.000E+00

     total cpu time spent up to now is     6123.1 secs

     End of self-consistent calculation

          k = 0.0000 0.0000 0.0000 (105382 PWs)   bands (ev):

   -62.8922 -62.8707 -62.8022 -62.7877 -62.7813 -62.7705 -62.7593 -62.7490
   -62.7105 -62.5219 -62.5027 -62.4654 -37.2168 -37.1314 -37.1256 -37.1151
   -37.0796 -37.0710 -37.0538 -37.0292 -37.0065 -36.9939 -36.9839 -36.9761
   -36.9674 -36.9592 -36.9497 -36.9447 -36.9345 -36.9337 -36.9218 -36.9180
   -36.8899 -36.8695 -36.8471 -36.8424 -36.8236 -36.8002 -36.7759 -36.7543
   -36.7122 -36.6899 -36.6804 -36.6586 -36.6459 -36.6104 -36.4903 -36.4801
   -17.6292 -15.7821 -15.0939 -15.0020 -14.8451 -14.7771 -14.6632 -14.4098
   -14.3731 -14.3422 -14.2996 -14.2788 -14.2632 -14.1907 -14.1031 -14.0520
   -14.0209 -14.0109 -13.9290 -13.8776 -13.7313 -13.7191 -13.6965 -10.1757
    -7.6505  -7.4373  -7.3625  -7.2185  -7.1759  -7.1389  -7.0889  -7.0153
    -6.7852  -6.7242  -6.6907  -6.6241  -6.5556  -6.4639  -6.4159  -6.3943
    -6.3447  -6.2061  -6.1696  -5.8914  -5.8794  -5.8248  -5.7326  -5.7286
    -5.6904  -5.6346  -5.5941  -5.5610  -5.5204  -5.4627  -5.4530  -5.4304
    -5.3691  -5.2723  -5.1983  -5.1150  -5.0326  -4.9485  -4.8902  -4.8705
    -4.8512  -4.7350  -4.5985  -4.5447  -4.4152  -4.2954  -4.2004  -4.1515
    -4.0795  -4.0033  -3.9503  -3.8193  -3.7443  -3.7268  -3.7013  -3.6254
    -3.6074  -3.5007  -3.4912  -3.4577  -3.4232  -3.3725  -3.3563  -3.3024
    -3.2847  -3.1391  -3.0701  -2.8810  -2.8151  -2.7527  -2.6996  -2.6722
    -2.6408  -2.5862  -2.5727  -2.5117  -2.4263  -2.1672  -1.9490  -1.9044
    -1.7936  -0.6086  -0.6054  -0.3023  -0.1269  -0.0849  -0.0358   0.0037
     0.0681   0.1998   0.2559   0.2927   0.3243   0.3433   0.3963   0.5498
     0.5893   0.6328   0.6499   0.6751   0.7130   0.7551   0.7857   0.8209
     0.8621   0.8945   0.9175   0.9733   1.0167   1.0460   1.1188   1.3924
     1.4207

     the Fermi energy is    -0.6719 ev

!    total energy              =   -2205.42043476 Ry
     estimated scf accuracy    <       0.00000038 Ry
     smearing contrib. (-TS)   =      -0.00898980 Ry
     internal energy E=F+TS    =   -2205.41144496 Ry

     The total energy is F=E-TS. E is the sum of the following terms:
     one-electron contribution =  -18051.76243910 Ry
     hartree contribution      =    9013.37688751 Ry
     xc contribution           =    -385.56681406 Ry
     ewald contribution        =    7218.54092069 Ry

     convergence has been achieved in  17 iterations

     negative rho (up, down):  1.371E-04 0.000E+00

     Forces acting on atoms (cartesian axes, Ry/au):

     atom    1 type  1   force =     0.01305515   -0.02171950    0.00775842
     atom    2 type  2   force =    -0.02010899    0.01538377    0.00046791
     atom    3 type  2   force =    -0.01213687    0.00837294   -0.00359693
     atom    4 type  1   force =     0.00804034   -0.00312963    0.00148712
     atom    5 type  2   force =    -0.00064776   -0.00482881   -0.00587448
     atom    6 type  2   force =     0.00404167    0.01084546    0.00048412
     atom    7 type  1   force =     0.00596116   -0.00602543   -0.00870373
     atom    8 type  2   force =    -0.00041271   -0.00468277    0.01772734
     atom    9 type  2   force =     0.01420211    0.00429139    0.01044661
     atom   10 type  1   force =    -0.00994928    0.01120081   -0.02625435
     atom   11 type  2   force =     0.00523777   -0.00270773   -0.00448582
     atom   12 type  2   force =    -0.00133741    0.00154539    0.00618776
     atom   13 type  1   force =     0.01706505    0.01700256   -0.01746287
     atom   14 type  2   force =     0.01081771    0.00004382    0.00924278
     atom   15 type  2   force =    -0.01296957    0.00252065   -0.00846582
     atom   16 type  1   force =     0.00099873    0.00157514    0.00260537
     atom   17 type  2   force =     0.00535777    0.00258432    0.00432469
     atom   18 type  2   force =    -0.00577729   -0.00757113    0.01427510
     atom   19 type  1   force =     0.00522637   -0.00088456   -0.00402737
     atom   20 type  2   force =     0.00291605   -0.00490027   -0.00001685
     atom   21 type  1   force =    -0.00929462    0.00418223   -0.00336476
     atom   22 type  2   force =     0.00137418   -0.01019833   -0.00079027
     atom   23 type  2   force =    -0.00446589    0.00389896    0.01075653
     atom   24 type  1   force =    -0.01775419    0.01327386   -0.01747820
     atom   25 type  2   force =    -0.12849550   -0.19649564   -0.54689736
     atom   26 type  2   force =    -0.01074918   -0.00125841   -0.00360385
     atom   27 type  1   force =    -0.00705702   -0.00755018    0.00647169
     atom   28 type  2   force =     0.00025536    0.00204492   -0.00652596
     atom   29 type  2   force =     0.00326669   -0.00153040   -0.00335680
     atom   30 type  1   force =    -0.00239530    0.01332376   -0.00456156
     atom   31 type  2   force =     0.00117648   -0.00155914    0.01745536
     atom   32 type  2   force =    -0.01089818    0.00470572    0.00773702
     atom   33 type  1   force =     0.02453566   -0.02930147   -0.01095762
     atom   34 type  2   force =    -0.00300970   -0.05075714   -0.01143542
     atom   35 type  2   force =    -0.00601290    0.00758234    0.01563619
     atom   36 type  3   force =     0.13994411    0.23072249    0.55479601
     The non-local contrib.  to forces
     atom    1 type  1   force =    -0.00171179    0.03999970   -0.00875754
     atom    2 type  2   force =    -0.00663312    0.00786024   -0.26301673
     atom    3 type  2   force =    -0.01513262   -0.00010398    0.27128058
     atom    4 type  1   force =    -0.00762279    0.01518261    0.00430719
     atom    5 type  2   force =     0.00643382   -0.03461376   -0.25507323
     atom    6 type  2   force =     0.00037939    0.00994903    0.26205688
     atom    7 type  1   force =    -0.03478194   -0.00824274   -0.01139970
     atom    8 type  2   force =     0.00626093   -0.00419921   -0.25371953
     atom    9 type  2   force =     0.01167911   -0.01010047    0.27440587
     atom   10 type  1   force =    -0.00165231   -0.00680134   -0.00029738
     atom   11 type  2   force =     0.01622566    0.00745313   -0.25706407
     atom   12 type  2   force =    -0.01120307   -0.01243376    0.26226471
     atom   13 type  1   force =     0.00830214    0.02233114   -0.00879558
     atom   14 type  2   force =     0.00491387   -0.00137944   -0.24998842
     atom   15 type  2   force =    -0.01359538   -0.00197619    0.26069903
     atom   16 type  1   force =     0.00199035    0.05221887   -0.01869618
     atom   17 type  2   force =    -0.00135210   -0.03283860   -0.24020539
     atom   18 type  2   force =    -0.00552255   -0.00927018    0.27307611
     atom   19 type  1   force =     0.03086690   -0.01597819   -0.01457233
     atom   20 type  2   force =    -0.00057544   -0.02140091    0.26307540
     atom   21 type  1   force =     0.00684290    0.01430525    0.00487331
     atom   22 type  2   force =    -0.00835379    0.00696894   -0.25556973
     atom   23 type  2   force =    -0.00337003   -0.01256102    0.27062537
     atom   24 type  1   force =    -0.00136466    0.01803420   -0.01996376
     atom   25 type  2   force =    -0.02879331   -0.06915280   -0.25473164
     atom   26 type  2   force =    -0.00170264   -0.01356340    0.27286386
     atom   27 type  1   force =     0.00342190    0.01838436    0.00891475
     atom   28 type  2   force =    -0.00032949   -0.03378564   -0.26715935
     atom   29 type  2   force =     0.00500037   -0.00358820    0.26652613
     atom   30 type  1   force =    -0.00534917    0.01088174    0.00647740
     atom   31 type  2   force =    -0.00788907   -0.00050818   -0.25057762
     atom   32 type  2   force =    -0.00695581   -0.01356961    0.27236213
     atom   33 type  1   force =    -0.00392489   -0.00311523   -0.02211350
     atom   34 type  2   force =    -0.00049049   -0.04130741   -0.26814842
     atom   35 type  2   force =     0.00400648   -0.01123119    0.27453463
     atom   36 type  3   force =    -0.03253874   -0.05545336   -0.11795998
     The ionic contribution  to forces
     atom    1 type  1   force =     0.42511544    0.26463671    5.60541762
     atom    2 type  2   force =    -0.84462785    0.37317548   39.23299648
     atom    3 type  2   force =    -0.19588206    0.00745221  -36.12413538
     atom    4 type  1   force =     0.02347922    0.69528260    0.63716805
     atom    5 type  2   force =    -0.94715429    1.56217129   38.74042856
     atom    6 type  2   force =     0.34992439   -0.47718246  -38.03407301
     atom    7 type  1   force =    -2.60497840   -2.80097035    2.58477480
     atom    8 type  2   force =    -1.00646549    0.04285463   37.39459901
     atom    9 type  2   force =     0.33379510   -0.02962624  -37.99333610
     atom   10 type  1   force =    -1.22109187   -0.45249341    5.58363358
     atom   11 type  2   force =    -0.54859649   -1.66444155   39.13915820
     atom   12 type  2   force =     0.44519950    0.67059896  -37.85324988
     atom   13 type  1   force =     0.84128245    1.13747207    2.18364138
     atom   14 type  2   force =     0.33304221   -0.05261293   38.42757685
     atom   15 type  2   force =     0.19577854   -0.07215335  -36.85268464
     atom   16 type  1   force =     0.06474655    4.08051055    0.43139035
     atom   17 type  2   force =     0.95891862    1.78250703   37.82815832
     atom   18 type  2   force =    -0.13959543   -0.60306148  -38.61280124
     atom   19 type  1   force =     2.75914554   -2.49183808    0.62989962
     atom   20 type  2   force =     0.23921852   -0.19068168  -38.47040719
     atom   21 type  1   force =     0.19071558   -0.10852313    1.05077771
     atom   22 type  2   force =     0.53720037   -1.90148739   38.38702009
     atom   23 type  2   force =    -0.07026755    0.62596325  -38.31804542
     atom   24 type  1   force =    -0.94607819    1.26325772    5.31938945
     atom   25 type  2   force =    -0.03681311   -0.88730856   36.66942178
     atom   26 type  2   force =    -0.29721553    0.04997387  -37.45712897
     atom   27 type  1   force =     0.00544106    0.65725359   -2.41041842
     atom   28 type  2   force =    -0.10619302    1.22968028   38.13257193
     atom   29 type  2   force =    -0.29298848   -0.38665920  -37.30778867
     atom   30 type  1   force =    -0.39025013   -0.94506285   -0.04938860
     atom   31 type  2   force =     1.22182841   -0.02429372   37.32067372
     atom   32 type  2   force =    -0.48262757    0.00324979  -38.63732418
     atom   33 type  1   force =     0.74917510   -1.24198618    1.67955610
     atom   34 type  2   force =     0.13993867   -1.61455082   39.31718649
     atom   35 type  2   force =    -0.32051078    0.44078935  -37.83749915
     atom   36 type  3   force =     0.63739098    1.05810398    9.66284078
     The local contribution  to forces
     atom    1 type  1   force =    -0.41033167   -0.32650680   -5.58826221
     atom    2 type  2   force =     0.83131864   -0.36526858  -38.98953070
     atom    3 type  2   force =     0.19822724    0.00108992   35.87054327
     atom    4 type  1   force =    -0.00780135   -0.71349095   -0.63934682
     atom    5 type  2   force =     0.94079074   -1.53441282  -38.51130928
     atom    6 type  2   force =    -0.34628385    0.47901840   37.79356594
     atom    7 type  1   force =     2.64575070    2.80331508   -2.58140847
     atom    8 type  2   force =     1.00001499   -0.04381660  -37.14329215
     atom    9 type  2   force =    -0.33090911    0.04343195   37.75059227
     atom   10 type  1   force =     1.21268438    0.47044261   -5.60898211
     atom   11 type  2   force =     0.53839639    1.65497558  -38.90686667
     atom   12 type  2   force =    -0.43638558   -0.65772319   37.61832326
     atom   13 type  1   force =    -0.83261322   -1.14295647   -2.19151457
     atom   14 type  2   force =    -0.32723625    0.05441824  -38.18793885
     atom   15 type  2   force =    -0.19590537    0.07644252   36.60440873
     atom   16 type  1   force =    -0.06566297   -4.13102010   -0.40940795
     atom   17 type  2   force =    -0.95264442   -1.74921461  -37.60282846
     atom   18 type  2   force =     0.13906285    0.60478221   38.37523571
     atom   19 type  1   force =    -2.78456286    2.50698522   -0.61866075
     atom   20 type  2   force =    -0.23576675    0.20648476   38.22867673
     atom   21 type  1   force =    -0.20672238    0.09833688   -1.05834214
     atom   22 type  2   force =    -0.52783789    1.88528683  -38.15214404
     atom   23 type  2   force =     0.06921257   -0.61044287   38.07942916
     atom   24 type  1   force =     0.92979125   -1.26811948   -5.31609934
     atom   25 type  2   force =    -0.06385127    0.75814308  -36.97877973
     atom   26 type  2   force =     0.28836330   -0.03843500   37.20238986
     atom   27 type  1   force =    -0.01600807   -0.68327797    2.40868787
     atom   28 type  2   force =     0.10685210   -1.19637987  -37.89208897
     atom   29 type  2   force =     0.29173901    0.38891521   37.05894709
     atom   30 type  1   force =     0.39299063    0.94753949    0.03900782
     atom   31 type  2   force =    -1.21330716    0.02309792  -37.07267954
     atom   32 type  2   force =     0.47849519    0.01419587   38.39389031
     atom   33 type  1   force =    -0.72072712    1.21599712   -1.66761175
     atom   34 type  2   force =    -0.14270490    1.60405684  -39.08098925
     atom   35 type  2   force =     0.31087423   -0.42288558   37.60015797
     atom   36 type  3   force =    -0.46491187   -0.77193947   -8.99003414
     The core correction contribution to forces
     atom    1 type  1   force =     0.00000000    0.00000000    0.00000000
     atom    2 type  2   force =    -0.00012976   -0.00041643    0.02027062
     atom    3 type  2   force =     0.00063969   -0.00012233   -0.02097759
     atom    4 type  1   force =     0.00000000    0.00000000    0.00000000
     atom    5 type  2   force =    -0.00067101    0.00201716    0.02037501
     atom    6 type  2   force =     0.00008086   -0.00096063   -0.02080239
     atom    7 type  1   force =     0.00000000    0.00000000    0.00000000
     atom    8 type  2   force =    -0.00031131    0.00051933    0.02032242
     atom    9 type  2   force =    -0.00043281    0.00063131   -0.02085030
     atom   10 type  1   force =     0.00000000    0.00000000    0.00000000
     atom   11 type  2   force =    -0.00078701   -0.00075103    0.02042588
     atom   12 type  2   force =     0.00106090    0.00105259   -0.02075317
     atom   13 type  1   force =     0.00000000    0.00000000    0.00000000
     atom   14 type  2   force =     0.00004245   -0.00041267    0.01985634
     atom   15 type  2   force =     0.00074796    0.00016167   -0.02058174
     atom   16 type  1   force =     0.00000000    0.00000000    0.00000000
     atom   17 type  2   force =     0.00036792    0.00204081    0.01951937
     atom   18 type  2   force =     0.00023459   -0.00008977   -0.02096832
     atom   19 type  1   force =     0.00000000    0.00000000    0.00000000
     atom   20 type  2   force =     0.00016123    0.00078314   -0.02104372
     atom   21 type  1   force =     0.00000000    0.00000000    0.00000000
     atom   22 type  2   force =     0.00039368   -0.00088873    0.02020189
     atom   23 type  2   force =     0.00000685    0.00100161   -0.02099257
     atom   24 type  1   force =     0.00000000    0.00000000    0.00000000
     atom   25 type  2   force =     0.00096386    0.00182701    0.01748199
     atom   26 type  2   force =    -0.00017715    0.00075559   -0.02141700
     atom   27 type  1   force =     0.00000000    0.00000000    0.00000000
     atom   28 type  2   force =    -0.00005010    0.00247584    0.02042750
     atom   29 type  2   force =    -0.00048928   -0.00020759   -0.02074522
     atom   30 type  1   force =     0.00000000    0.00000000    0.00000000
     atom   31 type  2   force =     0.00052115    0.00011673    0.02033337
     atom   32 type  2   force =     0.00013761    0.00080221   -0.02094369
     atom   33 type  1   force =     0.00000000    0.00000000    0.00000000
     atom   34 type  2   force =     0.00022597    0.00109994    0.02077915
     atom   35 type  2   force =    -0.00044755    0.00093511   -0.02126527
     atom   36 type  3   force =     0.00000000    0.00000000    0.00000000
     The Hubbard contrib.    to forces
     atom    1 type  1   force =     0.00000000    0.00000000    0.00000000
     atom    2 type  2   force =     0.00000000    0.00000000    0.00000000
     atom    3 type  2   force =     0.00000000    0.00000000    0.00000000
     atom    4 type  1   force =     0.00000000    0.00000000    0.00000000
     atom    5 type  2   force =     0.00000000    0.00000000    0.00000000
     atom    6 type  2   force =     0.00000000    0.00000000    0.00000000
     atom    7 type  1   force =     0.00000000    0.00000000    0.00000000
     atom    8 type  2   force =     0.00000000    0.00000000    0.00000000
     atom    9 type  2   force =     0.00000000    0.00000000    0.00000000
     atom   10 type  1   force =     0.00000000    0.00000000    0.00000000
     atom   11 type  2   force =     0.00000000    0.00000000    0.00000000
     atom   12 type  2   force =     0.00000000    0.00000000    0.00000000
     atom   13 type  1   force =     0.00000000    0.00000000    0.00000000
     atom   14 type  2   force =     0.00000000    0.00000000    0.00000000
     atom   15 type  2   force =     0.00000000    0.00000000    0.00000000
     atom   16 type  1   force =     0.00000000    0.00000000    0.00000000
     atom   17 type  2   force =     0.00000000    0.00000000    0.00000000
     atom   18 type  2   force =     0.00000000    0.00000000    0.00000000
     atom   19 type  1   force =     0.00000000    0.00000000    0.00000000
     atom   20 type  2   force =     0.00000000    0.00000000    0.00000000
     atom   21 type  1   force =     0.00000000    0.00000000    0.00000000
     atom   22 type  2   force =     0.00000000    0.00000000    0.00000000
     atom   23 type  2   force =     0.00000000    0.00000000    0.00000000
     atom   24 type  1   force =     0.00000000    0.00000000    0.00000000
     atom   25 type  2   force =     0.00000000    0.00000000    0.00000000
     atom   26 type  2   force =     0.00000000    0.00000000    0.00000000
     atom   27 type  1   force =     0.00000000    0.00000000    0.00000000
     atom   28 type  2   force =     0.00000000    0.00000000    0.00000000
     atom   29 type  2   force =     0.00000000    0.00000000    0.00000000
     atom   30 type  1   force =     0.00000000    0.00000000    0.00000000
     atom   31 type  2   force =     0.00000000    0.00000000    0.00000000
     atom   32 type  2   force =     0.00000000    0.00000000    0.00000000
     atom   33 type  1   force =     0.00000000    0.00000000    0.00000000
     atom   34 type  2   force =     0.00000000    0.00000000    0.00000000
     atom   35 type  2   force =     0.00000000    0.00000000    0.00000000
     atom   36 type  3   force =     0.00000000    0.00000000    0.00000000
     The SCF correction term to forces
     atom    1 type  1   force =    -0.00001659    0.00014697   -0.00061425
     atom    2 type  2   force =    -0.00003665    0.00002913   -0.00022654
     atom    3 type  2   force =     0.00001113    0.00005319   -0.00028260
     atom    4 type  1   force =    -0.00001450   -0.00010782   -0.00061609
     atom    5 type  2   force =    -0.00004677    0.00000539   -0.00027034
     atom    6 type  2   force =    -0.00005887    0.00001720   -0.00023810
     atom    7 type  1   force =    -0.00002895   -0.00013134   -0.00064515
     atom    8 type  2   force =     0.00008841   -0.00004484   -0.00015720
     atom    9 type  2   force =     0.00007006   -0.00004909   -0.00033992
     atom   10 type  1   force =     0.00011077    0.00004902   -0.00058323
     atom   11 type  2   force =    -0.00000054    0.00005223   -0.00011396
     atom   12 type  2   force =    -0.00000892    0.00004685   -0.00037195
     atom   13 type  1   force =     0.00009393    0.00015190   -0.00076889
     atom   14 type  2   force =     0.00005567    0.00002669   -0.00023793
     atom   15 type  2   force =     0.00000492    0.00004208   -0.00028199
     atom   16 type  1   force =    -0.00007495   -0.00013810   -0.00065564
     atom   17 type  2   force =     0.00006799    0.00008577   -0.00029394
     atom   18 type  2   force =     0.00004349    0.00006417   -0.00024196
     atom   19 type  1   force =    -0.00022297   -0.00005744   -0.00066870
     atom   20 type  2   force =    -0.00012126   -0.00008952   -0.00029287
     atom   21 type  1   force =    -0.00013049    0.00005930   -0.00064842
     atom   22 type  2   force =    -0.00002795   -0.00008189   -0.00027327
     atom   23 type  2   force =    -0.00004748   -0.00006593   -0.00023479
     atom   24 type  1   force =    -0.00010234    0.00009749   -0.00077934
     atom   25 type  2   force =    -0.00000142   -0.00000829   -0.00026455
     atom   26 type  2   force =    -0.00001691    0.00000662   -0.00028639
     atom   27 type  1   force =     0.00008832    0.00008592   -0.00068731
     atom   28 type  2   force =    -0.00002388    0.00005039   -0.00025185
     atom   29 type  2   force =     0.00000530    0.00000545   -0.00027092
     atom   30 type  1   force =     0.00021362   -0.00003855   -0.00063297
     atom   31 type  2   force =     0.00002339    0.00002420   -0.00026936
     atom   32 type  2   force =     0.00005266    0.00002353   -0.00022234
     atom   33 type  1   force =     0.00001281   -0.00020110   -0.00076325
     atom   34 type  2   force =     0.00002129   -0.00005962   -0.00023817
     atom   35 type  2   force =     0.00006496   -0.00002927   -0.00026678
     atom   36 type  3   force =     0.00000398    0.00000742   -0.00002544

     Total force =     0.864372     Total SCF correction =     0.002736

     BFGS Geometry Optimization
     Energy error            =      0.0E+00 Ry
     Gradient error          =      5.5E-01 Ry/Bohr

     number of scf cycles    =   1
     number of bfgs steps    =   0

     energy             new  =   -2205.4204347591 Ry

     new trust radius        =       0.5000000000 bohr
     new conv_thr            =       0.0000010000 Ry


ATOMIC_POSITIONS (angstrom)
Mo            6.5801473973        1.7784913454        2.8269703998
S             8.1680851576        0.8163016944        4.4347390264
S             8.1880279214        0.8148326651        1.2763408042
Mo            8.0986108418        4.4937147336        2.7184561768
S             6.4996314516        3.7203405453        4.3441412488
S             6.5550831579        3.5163888683        1.1214878521
Mo            6.4925382699        7.2158531457        2.6681516980
S             8.0815507291        6.3418626844        4.2500643251
S             8.0870085333        6.3065427721        1.0883432578
Mo            8.1563520803        9.9069841258        2.8322020069
S             6.4974139289        8.9417655436        4.3811816900
S             6.6173736233        9.0493739886        1.1425610584
Mo            3.4289783871        1.7542477745        2.7689818252
S             4.9798049056        0.8169600017        4.3544970623
S             5.0522714694        0.8473431439        1.2230277085
Mo            4.9801850102        4.5138535368        2.6340019190
S             3.4301394578        3.6727080279        4.2815643189
S             3.4354428636        3.5449816533        1.0644738718
Mo            3.4561031821        7.2159451761        2.6289496362
S             4.9844848043        6.3248306959        1.0372465036
Mo            5.0082777158        9.9033936940        2.7419579100
S             3.4715474631        8.9393774916        4.3252523861
S             3.4065138724        9.0666621388        1.1006814748
Mo            0.2884762133        1.7532023179        2.8419487981
S             1.7953540869        0.7084225272        4.1636604658
S             1.8561900111        0.8538862212        1.2078552647
Mo            1.8576647493        4.4924286987        2.6629729063
S             0.2723233666        3.6552758348        4.3347852975
S             0.2326321991        3.5265928799        1.1705782470
Mo            0.2701248739        7.2223602830        2.6997401030
S             1.9027428086        6.3121301656        4.2299302359
S             1.8575642919        6.3123619619        1.0478774731
Mo            1.8548693190        9.9275725748        2.7682468368
S             0.2946221222        9.0682295090        4.4089651332
S             0.2741926346        9.0467775680        1.1571067045
H             2.1615203341        1.3132726438        5.5813982451



     Writing config-only to output data dir ./MoS2-V-O.save/
     NEW-OLD atomic charge density approx. for the potential

     negative rho (up, down):  1.506E-04 0.000E+00

     total cpu time spent up to now is     6245.9 secs

     Self-consistent Calculation

     iteration #  1     ecut=    80.00 Ry     beta= 0.70
     Davidson diagonalization with overlap
     c_bands:  1 eigenvalues not converged
     ethr =  1.00E-06,  avg # of iterations = 20.0

     negative rho (up, down):  1.183E-03 0.000E+00

     total cpu time spent up to now is     7115.8 secs

     total energy              =   -2205.50580731 Ry
     estimated scf accuracy    <       0.07689493 Ry

     iteration #  2     ecut=    80.00 Ry     beta= 0.70
     Davidson diagonalization with overlap
     ethr =  2.50E-05,  avg # of iterations =  3.0

     negative rho (up, down):  2.590E-03 0.000E+00

     total cpu time spent up to now is     8147.2 secs

     total energy              =   -2205.50855888 Ry
     estimated scf accuracy    <       0.01064653 Ry

     iteration #  3     ecut=    80.00 Ry     beta= 0.70
     Davidson diagonalization with overlap
     ethr =  3.47E-06,  avg # of iterations = 10.0

     negative rho (up, down):  3.574E-03 0.000E+00

     total cpu time spent up to now is     9493.9 secs

     total energy              =   -2205.50946830 Ry
     estimated scf accuracy    <       0.00322975 Ry

     iteration #  4     ecut=    80.00 Ry     beta= 0.70
     Davidson diagonalization with overlap
     ethr =  1.05E-06,  avg # of iterations =  2.0

     negative rho (up, down):  4.034E-03 0.000E+00

     total cpu time spent up to now is    10411.2 secs

     total energy              =   -2205.50965506 Ry
     estimated scf accuracy    <       0.00042439 Ry

     iteration #  5     ecut=    80.00 Ry     beta= 0.70
     Davidson diagonalization with overlap
     ethr =  1.38E-07,  avg # of iterations =  3.0

     negative rho (up, down):  4.079E-03 0.000E+00

     total cpu time spent up to now is    11521.0 secs

     total energy              =   -2205.50968262 Ry
     estimated scf accuracy    <       0.00014968 Ry

     iteration #  6     ecut=    80.00 Ry     beta= 0.70
     Davidson diagonalization with overlap
     ethr =  4.88E-08,  avg # of iterations =  6.0

     negative rho (up, down):  3.666E-03 0.000E+00

     total cpu time spent up to now is    12331.4 secs

     total energy              =   -2205.50969042 Ry
     estimated scf accuracy    <       0.00003731 Ry

     iteration #  7     ecut=    80.00 Ry     beta= 0.70
     Davidson diagonalization with overlap
     ethr =  1.22E-08,  avg # of iterations =  5.0

     negative rho (up, down):  3.013E-03 0.000E+00

     total cpu time spent up to now is    13150.5 secs

     total energy              =   -2205.50969101 Ry
     estimated scf accuracy    <       0.00001276 Ry

     iteration #  8     ecut=    80.00 Ry     beta= 0.70
     Davidson diagonalization with overlap
     ethr =  4.16E-09,  avg # of iterations =  2.0

     negative rho (up, down):  1.794E-03 0.000E+00

     total cpu time spent up to now is    13936.1 secs

     total energy              =   -2205.50968243 Ry
     estimated scf accuracy    <       0.00000597 Ry

     iteration #  9     ecut=    80.00 Ry     beta= 0.70
     Davidson diagonalization with overlap
     ethr =  1.94E-09,  avg # of iterations =  5.0

     negative rho (up, down):  1.097E-03 0.000E+00

     total cpu time spent up to now is    14563.4 secs

     total energy              =   -2205.50967879 Ry
     estimated scf accuracy    <       0.00000146 Ry

     iteration # 10     ecut=    80.00 Ry     beta= 0.70
     Davidson diagonalization with overlap
     ethr =  4.75E-10,  avg # of iterations =  5.0

     negative rho (up, down):  1.357E-04 0.000E+00

     total cpu time spent up to now is    14634.6 secs

     End of self-consistent calculation

          k = 0.0000 0.0000 0.0000 (105382 PWs)   bands (ev):

   -62.8652 -62.8519 -62.8384 -62.8193 -62.8157 -62.8072 -62.8017 -62.7685
   -62.7670 -62.6333 -62.5823 -62.5675 -37.2682 -37.1594 -37.1465 -37.1239
   -37.1099 -37.0936 -37.0711 -37.0690 -37.0364 -37.0289 -37.0271 -37.0058
   -37.0010 -36.9951 -36.9864 -36.9805 -36.9769 -36.9740 -36.9690 -36.9368
   -36.9275 -36.9258 -36.8834 -36.8746 -36.8643 -36.8410 -36.8324 -36.8167
   -36.8003 -36.7872 -36.7582 -36.7464 -36.7419 -36.7064 -36.5882 -36.5672
   -16.3952 -15.6471 -15.1445 -15.0339 -14.8880 -14.8004 -14.6764 -14.4489
   -14.4202 -14.3889 -14.3406 -14.3301 -14.3010 -14.2380 -14.1393 -14.1021
   -14.0672 -14.0610 -13.9681 -13.9175 -13.7921 -13.7685 -13.7491  -8.7422
    -7.7897  -7.6119  -7.4297  -7.2974  -7.2315  -7.1971  -7.1347  -6.9843
    -6.8554  -6.7694  -6.7520  -6.6872  -6.5607  -6.5003  -6.4544  -6.3980
    -6.3715  -6.2512  -6.2147  -5.9718  -5.9277  -5.8620  -5.8277  -5.7910
    -5.7341  -5.6801  -5.6460  -5.6445  -5.5710  -5.5388  -5.5110  -5.4965
    -5.4266  -5.3165  -5.2494  -5.1302  -5.0587  -4.9923  -4.9244  -4.9189
    -4.8991  -4.7882  -4.6260  -4.5047  -4.4486  -4.4097  -4.2509  -4.2026
    -4.1361  -4.0339  -3.9832  -3.8511  -3.7876  -3.7530  -3.7428  -3.6855
    -3.6501  -3.5744  -3.5411  -3.4790  -3.4561  -3.4267  -3.4091  -3.3680
    -3.3320  -3.1889  -3.0896  -2.9278  -2.8639  -2.8062  -2.7403  -2.7261
    -2.6926  -2.6464  -2.5972  -2.5743  -2.4927  -2.2196  -2.0023  -1.9673
    -1.8705  -0.7245  -0.6773  -0.4712  -0.1805  -0.1180  -0.0520  -0.0012
     0.0448   0.1547   0.2167   0.2860   0.2996   0.3223   0.4365   0.5043
     0.5390   0.5847   0.5959   0.6255   0.6710   0.7118   0.7551   0.7948
     0.8070   0.8591   0.8697   0.9428   0.9835   1.0321   1.0701   1.3373
     1.4094

     the Fermi energy is    -0.7679 ev

!    total energy              =   -2205.50967661 Ry
     estimated scf accuracy    <       0.00000057 Ry
     smearing contrib. (-TS)   =      -0.00876363 Ry
     internal energy E=F+TS    =   -2205.50091298 Ry

     The total energy is F=E-TS. E is the sum of the following terms:
     one-electron contribution =  -18077.22845546 Ry
     hartree contribution      =    9025.64977340 Ry
     xc contribution           =    -385.43611840 Ry
     ewald contribution        =    7231.51388747 Ry

     convergence has been achieved in  10 iterations

     negative rho (up, down):  1.357E-04 0.000E+00

     Forces acting on atoms (cartesian axes, Ry/au):

     atom    1 type  1   force =     0.00454400   -0.01300282   -0.00140262
     atom    2 type  2   force =    -0.01421269    0.01118353    0.00372481
     atom    3 type  2   force =    -0.01325174    0.00719230   -0.00783666
     atom    4 type  1   force =     0.00534706    0.00391290   -0.00048719
     atom    5 type  2   force =     0.00006317   -0.00573402   -0.00484674
     atom    6 type  2   force =     0.00362706    0.00653068    0.00133915
     atom    7 type  1   force =     0.00800520   -0.00590832   -0.00528360
     atom    8 type  2   force =     0.00080510   -0.00362626    0.01484506
     atom    9 type  2   force =     0.01222958    0.00352311    0.00780199
     atom   10 type  1   force =    -0.00890167    0.00795049   -0.01575499
     atom   11 type  2   force =     0.00477341   -0.00180911   -0.00681301
     atom   12 type  2   force =    -0.00255497    0.00099339    0.00283099
     atom   13 type  1   force =     0.01587763    0.00777035   -0.02874335
     atom   14 type  2   force =     0.00343458    0.00095637    0.01157339
     atom   15 type  2   force =    -0.00769309    0.00280814   -0.00754059
     atom   16 type  1   force =    -0.00134782    0.00451904    0.00292803
     atom   17 type  2   force =     0.00257110   -0.00482767    0.00709105
     atom   18 type  2   force =    -0.00427625   -0.00278140    0.00933080
     atom   19 type  1   force =     0.00383192   -0.00711051    0.00008005
     atom   20 type  2   force =     0.00327570   -0.00446418   -0.00154948
     atom   21 type  1   force =    -0.00138503    0.00345223   -0.00081430
     atom   22 type  2   force =     0.00251456   -0.00876980    0.00184792
     atom   23 type  2   force =     0.00150245    0.00050114    0.00249095
     atom   24 type  1   force =    -0.04657370    0.01831293   -0.04972556
     atom   25 type  2   force =     0.06663500    0.13263359    0.18188544
     atom   26 type  2   force =    -0.00694036    0.00061905   -0.01963986
     atom   27 type  1   force =    -0.00162323   -0.00092771    0.00610754
     atom   28 type  2   force =     0.00224275   -0.00406563   -0.00072246
     atom   29 type  2   force =     0.00232496    0.00310772   -0.00677056
     atom   30 type  1   force =    -0.00372425    0.00420047    0.00103286
     atom   31 type  2   force =     0.00051797   -0.00044230    0.01158546
     atom   32 type  2   force =    -0.00865679    0.00383335    0.00731260
     atom   33 type  1   force =     0.01302041   -0.08155795   -0.05894266
     atom   34 type  2   force =    -0.00568243   -0.04235697   -0.00972508
     atom   35 type  2   force =    -0.00906221    0.00567724    0.00693600
     atom   36 type  3   force =    -0.02125736   -0.04229338   -0.05414537
     The non-local contrib.  to forces
     atom    1 type  1   force =    -0.00128448    0.03452108   -0.01209746
     atom    2 type  2   force =    -0.00255890    0.00409138   -0.26645580
     atom    3 type  2   force =    -0.01330523   -0.00312462    0.26652710
     atom    4 type  1   force =    -0.00426165    0.01339689    0.00453978
     atom    5 type  2   force =     0.00776688   -0.03493937   -0.25448063
     atom    6 type  2   force =    -0.00028753    0.00832037    0.26404055
     atom    7 type  1   force =    -0.03121245   -0.00509379   -0.01263798
     atom    8 type  2   force =     0.00701432   -0.00138507   -0.25658208
     atom    9 type  2   force =     0.00894588   -0.00904296    0.27377101
     atom   10 type  1   force =    -0.00292425   -0.00459872   -0.00097043
     atom   11 type  2   force =     0.01574940    0.00714763   -0.25826644
     atom   12 type  2   force =    -0.01167580   -0.01296776    0.26242916
     atom   13 type  1   force =     0.00515509    0.02305510    0.00178654
     atom   14 type  2   force =     0.00457470   -0.00533117   -0.25559313
     atom   15 type  2   force =    -0.01118459   -0.00473656    0.26108486
     atom   16 type  1   force =    -0.00004139    0.04742538   -0.02363169
     atom   17 type  2   force =    -0.00648354   -0.03261647   -0.23532363
     atom   18 type  2   force =    -0.00648684   -0.00448957    0.26985653
     atom   19 type  1   force =     0.02878507   -0.01118138   -0.02067692
     atom   20 type  2   force =    -0.00093022   -0.02083972    0.26342993
     atom   21 type  1   force =     0.00541201    0.01836272    0.00565415
     atom   22 type  2   force =    -0.00873593    0.00710854   -0.25656735
     atom   23 type  2   force =     0.00372924   -0.01536130    0.26394063
     atom   24 type  1   force =     0.00305879    0.01807166   -0.01360078
     atom   25 type  2   force =     0.12216105    0.15449160    0.29830634
     atom   26 type  2   force =     0.00245034   -0.01237772    0.26884451
     atom   27 type  1   force =     0.00159715    0.01314343    0.00832036
     atom   28 type  2   force =    -0.00000067   -0.03348465   -0.26481585
     atom   29 type  2   force =     0.00735097    0.00150789    0.26129311
     atom   30 type  1   force =    -0.00374013    0.01233431    0.00766551
     atom   31 type  2   force =    -0.00774408    0.00088463   -0.25601602
     atom   32 type  2   force =    -0.00441782   -0.01362259    0.27446552
     atom   33 type  1   force =    -0.00457647    0.01352697   -0.00718452
     atom   34 type  2   force =     0.00176555   -0.03205613   -0.27426466
     atom   35 type  2   force =    -0.00071056   -0.01103778    0.26813146
     atom   36 type  3   force =    -0.00842746   -0.01458734   -0.03035856
     The ionic contribution  to forces
     atom    1 type  1   force =     0.14785067    0.51014235    5.87040028
     atom    2 type  2   force =    -0.69232165    0.29770669   39.47688622
     atom    3 type  2   force =    -0.23560671    0.02835833  -36.24306170
     atom    4 type  1   force =    -0.10078176    0.79929018    0.81214321
     atom    5 type  2   force =    -0.97329460    1.55803023   38.75466430
     atom    6 type  2   force =     0.30897076   -0.48494324  -37.96218517
     atom    7 type  1   force =    -2.63117861   -2.80736324    2.56349491
     atom    8 type  2   force =    -1.02518197    0.03519495   37.51387304
     atom    9 type  2   force =     0.31020651   -0.07505460  -37.94714338
     atom   10 type  1   force =    -1.23821906   -0.54558996    5.41310561
     atom   11 type  2   force =    -0.54509128   -1.65666945   39.16427294
     atom   12 type  2   force =     0.38045380    0.61478378  -37.83268371
     atom   13 type  1   force =     1.17020203    1.44673668    2.43890964
     atom   14 type  2   force =     0.10349862   -0.01446624   38.63552918
     atom   15 type  2   force =     0.27171727   -0.03775410  -36.89201299
     atom   16 type  1   force =     0.07735089    4.06747264    0.62304043
     atom   17 type  2   force =     0.87994848    1.63415097   37.98602836
     atom   18 type  2   force =    -0.11281487   -0.48064391  -38.56346386
     atom   19 type  1   force =     2.80850388   -2.76200262    0.66462038
     atom   20 type  2   force =     0.22564426   -0.21744959  -38.47011570
     atom   21 type  1   force =     0.36062947   -0.13609073    1.26372035
     atom   22 type  2   force =     0.61072009   -1.87065001   38.62342480
     atom   23 type  2   force =     0.02696497    0.53286759  -38.39279817
     atom   24 type  1   force =    -1.39296604    1.85912577    5.15203185
     atom   25 type  2   force =     0.65956195    0.29563501   36.25274912
     atom   26 type  2   force =    -0.26273145    0.09049274  -37.61420119
     atom   27 type  1   force =     0.12768765    0.79820678   -2.04605913
     atom   28 type  2   force =    -0.00632904    1.11337095   38.30756276
     atom   29 type  2   force =    -0.28945027   -0.28272693  -37.37812077
     atom   30 type  1   force =    -0.41110366   -1.23359742    0.01845252
     atom   31 type  2   force =     1.23491516   -0.07080292   37.41715531
     atom   32 type  2   force =    -0.44317484   -0.06498336  -38.56894290
     atom   33 type  1   force =     0.72202096   -2.24455599    1.13120563
     atom   34 type  2   force =     0.04885530   -1.48245967   39.43659003
     atom   35 type  2   force =    -0.34696280    0.40400645  -37.84119521
     atom   36 type  3   force =     0.23150589    0.38223190    8.23212302
     The local contribution  to forces
     atom    1 type  1   force =    -0.14192182   -0.55795664   -5.85992624
     atom    2 type  2   force =     0.68083413   -0.29037133  -39.22722842
     atom    3 type  2   force =     0.23507680   -0.01819395   35.98937490
     atom    4 type  1   force =     0.11059009   -0.80844858   -0.81742018
     atom    5 type  2   force =     0.96634644   -1.53072648  -38.52524646
     atom    6 type  2   force =    -0.30515371    0.48416040   37.72005653
     atom    7 type  1   force =     2.67085555    2.80666623   -2.55645605
     atom    8 type  2   force =     1.01931185   -0.03770324  -37.26274701
     atom    9 type  2   force =    -0.30663761    0.08719648   37.70186996
     atom   10 type  1   force =     1.23216366    0.55790584   -5.42833375
     atom   11 type  2   force =     0.53492991    1.64831561  -38.93320221
     atom   12 type  2   force =    -0.37227995   -0.60196455   37.59373637
     atom   13 type  1   force =    -1.15956980   -1.46212199   -2.46966113
     atom   14 type  2   force =    -0.10446096    0.02084932  -38.38855285
     atom   15 type  2   force =    -0.26887964    0.04488863   36.64379327
     atom   16 type  1   force =    -0.07859167   -4.11034629   -0.59683169
     atom   17 type  2   force =    -0.87143323   -1.60821607  -37.76297569
     atom   18 type  2   force =     0.11475334    0.48265613   38.32359846
     atom   19 type  1   force =    -2.83350696    2.76620614   -0.64435164
     atom   20 type  2   force =    -0.22148290    0.23311268   38.22592917
     atom   21 type  1   force =    -0.36724607    0.12125324   -1.27047565
     atom   22 type  2   force =    -0.59986603    1.85564466  -38.38525078
     atom   23 type  2   force =    -0.02885444   -0.51813409   38.15188332
     atom   24 type  1   force =     1.34345286   -1.85895873   -5.18833985
     atom   25 type  2   force =    -0.70885634   -0.30872476  -36.36061468
     atom   26 type  2   force =     0.25370286   -0.07814935   37.34648227
     atom   27 type  1   force =    -0.13116077   -0.81241766    2.04352041
     atom   28 type  2   force =     0.00856834   -1.08620616  -38.06393443
     atom   29 type  2   force =     0.28503079    0.28480110   37.13041625
     atom   30 type  1   force =     0.41074310    1.22553344   -0.02537767
     atom   31 type  2   force =    -1.22729652    0.06943986  -37.16987470
     atom   32 type  2   force =     0.43882813    0.08171243   38.32253131
     atom   33 type  1   force =    -0.70455197    2.14952458   -1.18315798
     atom   34 type  2   force =    -0.05647282    1.47121383  -39.19301420
     atom   35 type  2   force =     0.33867073   -0.38836080   37.60082957
     atom   36 type  3   force =    -0.24433575   -0.40993981   -8.25588556
     The core correction contribution to forces
     atom    1 type  1   force =     0.00000000    0.00000000    0.00000000
     atom    2 type  2   force =    -0.00021295   -0.00030875    0.02051918
     atom    3 type  2   force =     0.00057309    0.00005846   -0.02085095
     atom    4 type  1   force =     0.00000000    0.00000000    0.00000000
     atom    5 type  2   force =    -0.00072876    0.00198721    0.02035779
     atom    6 type  2   force =     0.00011960   -0.00094154   -0.02084220
     atom    7 type  1   force =     0.00000000    0.00000000    0.00000000
     atom    8 type  2   force =    -0.00033061    0.00037558    0.02041010
     atom    9 type  2   force =    -0.00028063    0.00053234   -0.02087087
     atom   10 type  1   force =     0.00000000    0.00000000    0.00000000
     atom   11 type  2   force =    -0.00073863   -0.00070657    0.02046358
     atom   12 type  2   force =     0.00102815    0.00107967   -0.02079655
     atom   13 type  1   force =     0.00000000    0.00000000    0.00000000
     atom   14 type  2   force =    -0.00010180   -0.00019050    0.02019109
     atom   15 type  2   force =     0.00067553    0.00032100   -0.02060040
     atom   16 type  1   force =     0.00000000    0.00000000    0.00000000
     atom   17 type  2   force =     0.00052861    0.00190233    0.01940534
     atom   18 type  2   force =     0.00024223   -0.00028113   -0.02089474
     atom   19 type  1   force =     0.00000000    0.00000000    0.00000000
     atom   20 type  2   force =     0.00016873    0.00073796   -0.02108627
     atom   21 type  1   force =     0.00000000    0.00000000    0.00000000
     atom   22 type  2   force =     0.00044536   -0.00087704    0.02036884
     atom   23 type  2   force =    -0.00029289    0.00113919   -0.02081795
     atom   24 type  1   force =     0.00000000    0.00000000    0.00000000
     atom   25 type  2   force =    -0.00628619   -0.00877886   -0.00862603
     atom   26 type  2   force =    -0.00038316    0.00066577   -0.02100466
     atom   27 type  1   force =     0.00000000    0.00000000    0.00000000
     atom   28 type  2   force =    -0.00000956    0.00237138    0.02047629
     atom   29 type  2   force =    -0.00058982   -0.00043182   -0.02056554
     atom   30 type  1   force =     0.00000000    0.00000000    0.00000000
     atom   31 type  2   force =     0.00048094    0.00005279    0.02051931
     atom   32 type  2   force =    -0.00000541    0.00074018   -0.02104179
     atom   33 type  1   force =     0.00000000    0.00000000    0.00000000
     atom   34 type  2   force =     0.00006730    0.00079169    0.02104057
     atom   35 type  2   force =    -0.00019221    0.00097502   -0.02103773
     atom   36 type  3   force =     0.00000000    0.00000000    0.00000000
     The Hubbard contrib.    to forces
     atom    1 type  1   force =     0.00000000    0.00000000    0.00000000
     atom    2 type  2   force =     0.00000000    0.00000000    0.00000000
     atom    3 type  2   force =     0.00000000    0.00000000    0.00000000
     atom    4 type  1   force =     0.00000000    0.00000000    0.00000000
     atom    5 type  2   force =     0.00000000    0.00000000    0.00000000
     atom    6 type  2   force =     0.00000000    0.00000000    0.00000000
     atom    7 type  1   force =     0.00000000    0.00000000    0.00000000
     atom    8 type  2   force =     0.00000000    0.00000000    0.00000000
     atom    9 type  2   force =     0.00000000    0.00000000    0.00000000
     atom   10 type  1   force =     0.00000000    0.00000000    0.00000000
     atom   11 type  2   force =     0.00000000    0.00000000    0.00000000
     atom   12 type  2   force =     0.00000000    0.00000000    0.00000000
     atom   13 type  1   force =     0.00000000    0.00000000    0.00000000
     atom   14 type  2   force =     0.00000000    0.00000000    0.00000000
     atom   15 type  2   force =     0.00000000    0.00000000    0.00000000
     atom   16 type  1   force =     0.00000000    0.00000000    0.00000000
     atom   17 type  2   force =     0.00000000    0.00000000    0.00000000
     atom   18 type  2   force =     0.00000000    0.00000000    0.00000000
     atom   19 type  1   force =     0.00000000    0.00000000    0.00000000
     atom   20 type  2   force =     0.00000000    0.00000000    0.00000000
     atom   21 type  1   force =     0.00000000    0.00000000    0.00000000
     atom   22 type  2   force =     0.00000000    0.00000000    0.00000000
     atom   23 type  2   force =     0.00000000    0.00000000    0.00000000
     atom   24 type  1   force =     0.00000000    0.00000000    0.00000000
     atom   25 type  2   force =     0.00000000    0.00000000    0.00000000
     atom   26 type  2   force =     0.00000000    0.00000000    0.00000000
     atom   27 type  1   force =     0.00000000    0.00000000    0.00000000
     atom   28 type  2   force =     0.00000000    0.00000000    0.00000000
     atom   29 type  2   force =     0.00000000    0.00000000    0.00000000
     atom   30 type  1   force =     0.00000000    0.00000000    0.00000000
     atom   31 type  2   force =     0.00000000    0.00000000    0.00000000
     atom   32 type  2   force =     0.00000000    0.00000000    0.00000000
     atom   33 type  1   force =     0.00000000    0.00000000    0.00000000
     atom   34 type  2   force =     0.00000000    0.00000000    0.00000000
     atom   35 type  2   force =     0.00000000    0.00000000    0.00000000
     atom   36 type  3   force =     0.00000000    0.00000000    0.00000000
     The SCF correction term to forces
     atom    1 type  1   force =    -0.00009895    0.00028741    0.00022817
     atom    2 type  2   force =     0.00004809    0.00006256    0.00001100
     atom    3 type  2   force =     0.00001172    0.00009110    0.00018136
     atom    4 type  1   force =    -0.00019821   -0.00032857    0.00025738
     atom    5 type  2   force =    -0.00002538   -0.00008859   -0.00013436
     atom    6 type  2   force =    -0.00002065   -0.00006829    0.00027683
     atom    7 type  1   force =    -0.00045788   -0.00012051    0.00032288
     atom    8 type  2   force =    -0.00000708   -0.00011146   -0.00010162
     atom    9 type  2   force =    -0.00000316   -0.00011113    0.00018265
     atom   10 type  1   force =     0.00007939    0.00023035    0.00045096
     atom   11 type  2   force =    -0.00007458    0.00010070   -0.00007350
     atom   12 type  2   force =    -0.00007975    0.00005927    0.00015311
     atom   13 type  1   force =     0.00009171    0.00009757    0.00022899
     atom   14 type  2   force =    -0.00007458    0.00009198    0.00000648
     atom   15 type  2   force =    -0.00002024    0.00008620    0.00020204
     atom   16 type  1   force =    -0.00006424   -0.00003566    0.00035835
     atom   17 type  2   force =     0.00001219   -0.00005142   -0.00003595
     atom   18 type  2   force =     0.00003130   -0.00002590    0.00024178
     atom   19 type  1   force =     0.00005134   -0.00013563    0.00049561
     atom   20 type  2   force =    -0.00012275   -0.00002849    0.00030075
     atom   21 type  1   force =    -0.00017902   -0.00007598    0.00029424
     atom   22 type  2   force =    -0.00004752    0.00000108   -0.00012021
     atom   23 type  2   force =    -0.00004303   -0.00001324    0.00029050
     atom   24 type  1   force =    -0.00011789    0.00007125    0.00019060
     atom   25 type  2   force =     0.00005595    0.00000762    0.00007805
     atom   26 type  2   force =     0.00002246   -0.00001537    0.00024660
     atom   27 type  1   force =     0.00025415    0.00013675    0.00033328
     atom   28 type  2   force =     0.00001509   -0.00012013   -0.00000385
     atom   29 type  2   force =    -0.00001530   -0.00004551    0.00021377
     atom   30 type  1   force =     0.00037786   -0.00007284    0.00029987
     atom   31 type  2   force =     0.00016389   -0.00001963   -0.00019107
     atom   32 type  2   force =     0.00011456   -0.00001629    0.00030784
     atom   33 type  1   force =     0.00012931   -0.00005650    0.00020160
     atom   34 type  2   force =     0.00010365    0.00015032   -0.00006945
     atom   35 type  2   force =     0.00013405    0.00009138    0.00021530
     atom   36 type  3   force =     0.00000137   -0.00000111   -0.00001690

     Total force =     0.287045     Total SCF correction =     0.001768
     Energy error            =      8.9E-02 Ry
     Gradient error          =      1.8E-01 Ry/Bohr

     number of scf cycles    =   2
     number of bfgs steps    =   1

     energy             old  =   -2205.4204347591 Ry
     energy             new  =   -2205.5096766135 Ry

     CASE: energy            _new < energy            _old

     new trust radius        =       0.1496998377 bohr
     new conv_thr            =       0.0000001819 Ry


ATOMIC_POSITIONS (angstrom)
Mo            6.5826423706        1.7719791961        2.8266731256
S             8.1611127396        0.8217704500        4.4363737012
S             8.1817921716        0.8182887097        1.2727968003
Mo            8.1012530372        4.4952866953        2.7183044757
S             6.4996328723        3.7176593007        4.3418029818
S             6.5568187809        3.5196570689        1.1220882252
Mo            6.4962502237        7.2130482838        2.6655104186
S             8.0818834446        6.3401016925        4.2572155408
S             8.0928836887        6.3082433171        1.0921469825
Mo            8.1520912409        9.9108825263        2.8243139973
S             6.4996948430        8.9408720962        4.3780461137
S             6.6162115713        9.0498669357        1.1440374153
Mo            3.4365509897        1.7583007502        2.7558118310
S             4.9817288343        0.8173766527        4.3598886149
S             5.0484137836        0.8486624902        1.2194168409
Mo            4.9796403576        4.5158771827        2.6353766744
S             3.4314697747        3.6707173408        4.2848140530
S             3.4333559858        3.5434713166        1.0690943994
Mo            3.4579752004        7.2128249960        2.6288228119
S             4.9860228466        6.3226974684        1.0365736265
Mo            5.0073040233        9.9050591106        2.7414696790
S             3.4726934592        8.9351638715        4.3260223525
S             3.4069865275        9.0670359442        1.1021935828
Mo            0.2675593296        1.7616793303        2.8196756377
S             1.8191074786        0.7580798783        4.2206286552
S             1.8527479439        0.8541043014        1.1991904958
Mo            1.8566774763        4.4917233757        2.6658820936
S             0.2733065630        3.6535941031        4.3342101035
S             0.2337718558        3.5278796884        1.1675063743
Mo            0.2684131303        7.2247169985        2.7000052002
S             1.9030147095        6.3118757447        4.2356564556
S             1.8533716234        6.3142137175        1.0513601978
Mo            1.8615020640        9.8910155454        2.7422366531
S             0.2920362304        9.0478180826        4.4042874646
S             0.2700200499        9.0495446345        1.1607429139
H             2.1579120126        1.3041798362        5.5801633819



     Writing config-only to output data dir ./MoS2-V-O.save/
     NEW-OLD atomic charge density approx. for the potential

     negative rho (up, down):  1.491E-04 0.000E+00

     total cpu time spent up to now is    14690.3 secs

     Self-consistent Calculation

     iteration #  1     ecut=    80.00 Ry     beta= 0.70
     Davidson diagonalization with overlap
     c_bands:  2 eigenvalues not converged
     ethr =  1.00E-06,  avg # of iterations = 20.0

     negative rho (up, down):  3.413E-05 0.000E+00

     total cpu time spent up to now is    15610.2 secs

     total energy              =   -2205.55037224 Ry
     estimated scf accuracy    <       0.01409077 Ry

     iteration #  2     ecut=    80.00 Ry     beta= 0.70
     Davidson diagonalization with overlap
     ethr =  4.59E-06,  avg # of iterations =  2.0

     negative rho (up, down):  2.848E-05 0.000E+00

     total cpu time spent up to now is    16941.1 secs

     total energy              =   -2205.55106148 Ry
     estimated scf accuracy    <       0.00229603 Ry

     iteration #  3     ecut=    80.00 Ry     beta= 0.70
     Davidson diagonalization with overlap
     ethr =  7.48E-07,  avg # of iterations =  2.0

     negative rho (up, down):  2.376E-05 0.000E+00

     total cpu time spent up to now is    18305.4 secs

     total energy              =   -2205.55114281 Ry
     estimated scf accuracy    <       0.00085424 Ry

     iteration #  4     ecut=    80.00 Ry     beta= 0.70
     Davidson diagonalization with overlap
     ethr =  2.78E-07,  avg # of iterations =  5.0

     negative rho (up, down):  2.301E-05 0.000E+00

     total cpu time spent up to now is    19588.4 secs

     total energy              =   -2205.55121392 Ry
     estimated scf accuracy    <       0.00013681 Ry

     iteration #  5     ecut=    80.00 Ry     beta= 0.70
     Davidson diagonalization with overlap
     ethr =  4.46E-08,  avg # of iterations =  4.0

     negative rho (up, down):  2.206E-05 0.000E+00

     total cpu time spent up to now is    20270.5 secs

     total energy              =   -2205.55123274 Ry
     estimated scf accuracy    <       0.00002522 Ry

     iteration #  6     ecut=    80.00 Ry     beta= 0.70
     Davidson diagonalization with overlap
     ethr =  8.22E-09,  avg # of iterations = 11.0

     negative rho (up, down):  2.031E-05 0.000E+00

     total cpu time spent up to now is    21110.3 secs

     total energy              =   -2205.55123989 Ry
     estimated scf accuracy    <       0.00000842 Ry

     iteration #  7     ecut=    80.00 Ry     beta= 0.70
     Davidson diagonalization with overlap
     ethr =  2.74E-09,  avg # of iterations =  3.0

     negative rho (up, down):  1.842E-05 0.000E+00

     total cpu time spent up to now is    21787.5 secs

     total energy              =   -2205.55124271 Ry
     estimated scf accuracy    <       0.00000284 Ry

     iteration #  8     ecut=    80.00 Ry     beta= 0.70
     Davidson diagonalization with overlap
     ethr =  9.26E-10,  avg # of iterations =  4.0

     negative rho (up, down):  2.041E-05 0.000E+00

     total cpu time spent up to now is    22291.5 secs

     total energy              =   -2205.55124439 Ry
     estimated scf accuracy    <       0.00000116 Ry

     iteration #  9     ecut=    80.00 Ry     beta= 0.70
     Davidson diagonalization with overlap
     ethr =  3.78E-10,  avg # of iterations =  3.0

     negative rho (up, down):  5.736E-05 0.000E+00

     total cpu time spent up to now is    22910.6 secs

     total energy              =   -2205.55124476 Ry
     estimated scf accuracy    <       0.00000036 Ry

     iteration # 10     ecut=    80.00 Ry     beta= 0.70
     Davidson diagonalization with overlap
     ethr =  1.16E-10,  avg # of iterations =  4.0

     negative rho (up, down):  1.362E-04 0.000E+00

     total cpu time spent up to now is    22959.6 secs

     End of self-consistent calculation

          k = 0.0000 0.0000 0.0000 (105382 PWs)   bands (ev):

   -62.8663 -62.8564 -62.8163 -62.8003 -62.7928 -62.7897 -62.7862 -62.7694
   -62.7356 -62.5936 -62.5502 -62.5402 -37.2104 -37.1406 -37.1274 -37.1157
   -37.0971 -37.0766 -37.0634 -37.0518 -37.0249 -37.0097 -37.0062 -36.9888
   -36.9819 -36.9775 -36.9699 -36.9642 -36.9601 -36.9558 -36.9545 -36.9352
   -36.9125 -36.8992 -36.8675 -36.8517 -36.8455 -36.8145 -36.8058 -36.8001
   -36.7709 -36.7503 -36.7283 -36.7189 -36.7079 -36.6816 -36.5602 -36.5343
   -16.3687 -15.6482 -15.1353 -15.0187 -14.8752 -14.7849 -14.6533 -14.4368
   -14.3906 -14.3740 -14.3323 -14.3199 -14.2871 -14.2208 -14.1227 -14.0979
   -14.0483 -14.0412 -13.9564 -13.8970 -13.7706 -13.7618 -13.7269  -8.9040
    -7.6928  -7.4913  -7.3998  -7.2681  -7.2166  -7.1796  -7.1284  -6.9961
    -6.8147  -6.7599  -6.7299  -6.6576  -6.5567  -6.4759  -6.4325  -6.3862
    -6.3678  -6.2487  -6.1916  -5.9323  -5.8963  -5.8538  -5.7807  -5.7732
    -5.7263  -5.6605  -5.6313  -5.6154  -5.5662  -5.5074  -5.4989  -5.4654
    -5.3991  -5.2840  -5.2052  -5.1207  -5.0451  -4.9626  -4.9184  -4.9047
    -4.9014  -4.7710  -4.6071  -4.5052  -4.4387  -4.3588  -4.2445  -4.1865
    -4.1445  -4.0336  -3.9802  -3.8399  -3.7900  -3.7440  -3.7316  -3.6586
    -3.6330  -3.5685  -3.5180  -3.4700  -3.4443  -3.4213  -3.3815  -3.3413
    -3.3175  -3.1720  -3.0830  -2.8887  -2.8440  -2.7537  -2.7176  -2.6961
    -2.6738  -2.6388  -2.6078  -2.5548  -2.4662  -2.1981  -1.9726  -1.9475
    -1.8541  -0.6987  -0.6522  -0.4111  -0.1595  -0.0948  -0.0253   0.0294
     0.0339   0.1782   0.2539   0.2653   0.3314   0.3403   0.4364   0.5313
     0.5835   0.5998   0.6321   0.6431   0.6876   0.7203   0.7670   0.7918
     0.8218   0.8929   0.9056   0.9549   0.9948   1.0525   1.0840   1.3637
     1.4349

     the Fermi energy is    -0.7423 ev

!    total energy              =   -2205.55124467 Ry
     estimated scf accuracy    <       0.00000007 Ry
     smearing contrib. (-TS)   =      -0.00874533 Ry
     internal energy E=F+TS    =   -2205.54249934 Ry

     The total energy is F=E-TS. E is the sum of the following terms:
     one-electron contribution =  -18068.49234508 Ry
     hartree contribution      =    9021.53460821 Ry
     xc contribution           =    -385.40749807 Ry
     ewald contribution        =    7226.82273561 Ry

     convergence has been achieved in  10 iterations

     negative rho (up, down):  1.362E-04 0.000E+00

     Forces acting on atoms (cartesian axes, Ry/au):

     atom    1 type  1   force =    -0.00114845   -0.00852477   -0.00103694
     atom    2 type  2   force =    -0.00997954    0.00848601   -0.00146301
     atom    3 type  2   force =    -0.01535439    0.00503579   -0.01481340
     atom    4 type  1   force =     0.00498553    0.00243147    0.00170415
     atom    5 type  2   force =     0.00110330   -0.00533826   -0.00503323
     atom    6 type  2   force =     0.00299089    0.00590821    0.00193925
     atom    7 type  1   force =     0.00722245   -0.00552404   -0.00213778
     atom    8 type  2   force =     0.00034651   -0.00352954    0.01114341
     atom    9 type  2   force =     0.01117457    0.00291508    0.00538992
     atom   10 type  1   force =    -0.00261687    0.00740657   -0.00437936
     atom   11 type  2   force =     0.00426420   -0.00125543   -0.00813622
     atom   12 type  2   force =    -0.00362736    0.00069212    0.00000685
     atom   13 type  1   force =     0.01044579    0.00855932   -0.01200655
     atom   14 type  2   force =     0.00241582    0.00130666    0.00489980
     atom   15 type  2   force =    -0.00418525    0.00131227   -0.00911125
     atom   16 type  1   force =    -0.00100499    0.00314277    0.00324142
     atom   17 type  2   force =     0.00347891   -0.00360562    0.00372926
     atom   18 type  2   force =    -0.00288715   -0.00045355    0.00547929
     atom   19 type  1   force =     0.00412886   -0.00795735    0.00043264
     atom   20 type  2   force =     0.00316268   -0.00409367   -0.00204733
     atom   21 type  1   force =    -0.00380514    0.00215541    0.00276306
     atom   22 type  2   force =     0.00236578   -0.00849064   -0.00151780
     atom   23 type  2   force =     0.00533652   -0.00517944   -0.00422051
     atom   24 type  1   force =    -0.01752287    0.00724538   -0.01510944
     atom   25 type  2   force =     0.04504902    0.07796645    0.10694507
     atom   26 type  2   force =    -0.00666167   -0.00448804   -0.01054393
     atom   27 type  1   force =    -0.00171126   -0.00179680    0.00649654
     atom   28 type  2   force =    -0.00066663   -0.00304542   -0.00403588
     atom   29 type  2   force =     0.00076399    0.00614922   -0.00981891
     atom   30 type  1   force =    -0.00457179   -0.00122393    0.00382975
     atom   31 type  2   force =     0.00050761   -0.00085310    0.00834277
     atom   32 type  2   force =    -0.00718498    0.00289388    0.00611682
     atom   33 type  1   force =     0.00494495   -0.01587620   -0.00499686
     atom   34 type  2   force =    -0.00309007   -0.03180892   -0.01522043
     atom   35 type  2   force =    -0.00965433    0.00218136   -0.00056086
     atom   36 type  3   force =    -0.01901466   -0.03274322   -0.04627034
     The non-local contrib.  to forces
     atom    1 type  1   force =    -0.00005300    0.03310085   -0.01251521
     atom    2 type  2   force =    -0.00232626    0.00240059   -0.26518038
     atom    3 type  2   force =    -0.01444801   -0.00507420    0.26056093
     atom    4 type  1   force =    -0.00390074    0.01518195    0.00349078
     atom    5 type  2   force =     0.00785672   -0.03504748   -0.25485334
     atom    6 type  2   force =    -0.00062006    0.00637610    0.26524983
     atom    7 type  1   force =    -0.03153136   -0.00455558   -0.01248993
     atom    8 type  2   force =     0.00735570   -0.00245711   -0.25852862
     atom    9 type  2   force =     0.00782460   -0.00977768    0.27241436
     atom   10 type  1   force =    -0.00262752   -0.00405627   -0.00288677
     atom   11 type  2   force =     0.01434213    0.00774111   -0.25892132
     atom   12 type  2   force =    -0.01209914   -0.01314254    0.26045485
     atom   13 type  1   force =     0.00965448    0.02465925   -0.00044056
     atom   14 type  2   force =     0.00347437   -0.00375989   -0.25647664
     atom   15 type  2   force =    -0.00805128   -0.00599879    0.25891644
     atom   16 type  1   force =     0.00079102    0.04946663   -0.02448312
     atom   17 type  2   force =    -0.00504418   -0.03062519   -0.23710256
     atom   18 type  2   force =    -0.00548547   -0.00344789    0.26790273
[...]
     atom   27 type  1   force =     0.00317562    0.01357050    0.00297181
     atom   28 type  2   force =     0.00317980   -0.02438314   -0.26115056
     atom   29 type  2   force =    -0.00222958   -0.01036814    0.26728146
     atom   30 type  1   force =    -0.00685305    0.01261519    0.00461145
     atom   31 type  2   force =    -0.00735869   -0.00132786   -0.26521718
     atom   32 type  2   force =     0.00171909   -0.01875347    0.26650739
     atom   33 type  1   force =    -0.00082598   -0.01812313   -0.01567055
     atom   34 type  2   force =     0.00929298   -0.00126115   -0.26419302
     atom   35 type  2   force =     0.00085288   -0.01355408    0.26737666
     atom   36 type  3   force =     0.00087270   -0.00757267   -0.06223255
     The ionic contribution  to forces
     atom    1 type  1   force =    -0.09630793    0.60803225    2.33455579
     atom    2 type  2   force =    -0.21540830   -0.10874500   38.88753817
     atom    3 type  2   force =     0.19969543   -0.18441371  -37.64381057
     atom    4 type  1   force =    -0.62206518    0.73173446    0.27050751
     atom    5 type  2   force =    -0.80940213    1.36212968   38.21749088
     atom    6 type  2   force =     0.11342082   -0.24649219  -38.01284040
     atom    7 type  1   force =    -2.95294946   -2.23698266    0.67357404
     atom    8 type  2   force =    -1.41506465    0.12052713   38.11816492
     atom    9 type  2   force =     0.29838885   -0.01624825  -38.18647002
     atom   10 type  1   force =    -0.13396707   -0.31645155    2.46414153
     atom   11 type  2   force =    -0.50044018   -1.51822985   38.50131118
     atom   12 type  2   force =     0.09999062    0.40798157  -38.17098156
     atom   13 type  1   force =    -0.24592763   -0.09385940    2.60918531
     atom   14 type  2   force =     0.00916095   -0.27144420   38.61199993
     atom   15 type  2   force =    -0.20527444   -0.29572501  -37.56308471
     atom   16 type  1   force =     0.78846189    3.91343511    1.61814225
     atom   17 type  2   force =     0.88445647    1.31291885   38.76116256
     atom   18 type  2   force =    -0.32133271   -0.37648225  -38.31775807
     atom   19 type  1   force =     2.93231965   -1.45871437    3.62510499
     atom   20 type  2   force =     0.00655759    0.06878743  -38.54017749
     atom   21 type  1   force =    -0.50038672   -0.40395567    1.22033647
     atom   22 type  2   force =     0.62139530   -1.38541253   38.64345368
     atom   23 type  2   force =    -0.20492013    0.35429408  -37.56885106
     atom   24 type  1   force =     0.42799656   -0.23149754    2.12163630
     atom   25 type  2   force =     0.16819934   -0.34893616   35.96359745
     atom   26 type  2   force =    -0.02638020   -0.27752658  -36.65023743
     atom   27 type  1   force =     0.07537252    0.46289491    0.84817029
     atom   28 type  2   force =    -0.10521492    0.62601127   38.35410045
     atom   29 type  2   force =     0.11024050   -0.16417201  -37.85820916
     atom   30 type  1   force =     0.16359928   -0.60484487    1.96499672
     atom   31 type  2   force =     1.05239075    0.27795422   38.36892005
     atom   32 type  2   force =    -0.24609558    0.16425773  -37.75112887
     atom   33 type  1   force =     0.60475908    0.05384308    3.89691996
     atom   34 type  2   force =    -0.09256574   -0.42155389   38.92512699
     atom   35 type  2   force =     0.13075281    0.34521446  -37.45113228
     atom   36 type  3   force =     0.00654460    0.15167145    8.71454420
     The local contribution  to forces
     atom    1 type  1   force =     0.09712268   -0.63589687   -2.32791137
     atom    2 type  2   force =     0.20890614    0.11295973  -38.65083825
     atom    3 type  2   force =    -0.19584795    0.19152873   37.39856432
     atom    4 type  1   force =     0.62525454   -0.74928705   -0.27389143
     atom    5 type  2   force =     0.80347232   -1.33879490  -37.98397763
     atom    6 type  2   force =    -0.11394284    0.25127075   37.76819043
     atom    7 type  1   force =     2.98213601    2.24306292   -0.66939010
     atom    8 type  2   force =     1.40168552   -0.11914609  -37.87503265
     atom    9 type  2   force =    -0.29380401    0.02673069   37.94103159
     atom   10 type  1   force =     0.13744442    0.31552526   -2.46591958
     atom   11 type  2   force =     0.49386328    1.50944054  -38.26602956
     atom   12 type  2   force =    -0.09627519   -0.39778768   37.92958634
     atom   13 type  1   force =     0.23061550    0.06481861   -2.59974542
     atom   14 type  2   force =    -0.00203528    0.27459733  -38.37588540
     atom   15 type  2   force =     0.20358936    0.30073409   37.32262489
     atom   16 type  1   force =    -0.79856730   -3.97187300   -1.59222417
     atom   17 type  2   force =    -0.87774883   -1.28291131  -38.53428560
     atom   18 type  2   force =     0.32375296    0.38255535   38.07718721
     atom   19 type  1   force =    -2.97578451    1.46786903   -3.60139092
     atom   20 type  2   force =    -0.00808415   -0.05576895   38.29958782
     atom   21 type  1   force =     0.49530625    0.38992185   -1.22271341
     atom   22 type  2   force =    -0.61214121    1.37844685  -38.40939032
     atom   23 type  2   force =     0.19780391   -0.33969758   37.32334393
     atom   24 type  1   force =    -0.41213406    0.20653553   -2.11165366
     atom   25 type  2   force =    -0.16325318    0.30987069  -36.21738135
     atom   26 type  2   force =     0.02356855    0.28624052   36.38548533
     atom   27 type  1   force =    -0.07854827   -0.47624462   -0.85180790
     atom   28 type  2   force =     0.10264657   -0.60257404  -38.11358705
     atom   29 type  2   force =    -0.10902934    0.17398247   37.61161028
     atom   30 type  1   force =    -0.15605860    0.59187435   -1.96953559
     atom   31 type  2   force =    -1.04510910   -0.27724017  -38.12505153
     atom   32 type  2   force =     0.24400231   -0.14632378   37.50503431
     atom   33 type  1   force =    -0.60386264   -0.03573968   -3.88149219
     atom   34 type  2   force =     0.08456915    0.42291517  -38.68228974
     atom   35 type  2   force =    -0.13149456   -0.33178416   37.20453421
     atom   36 type  3   force =    -0.00763066   -0.14486241   -8.65157141
     The core correction contribution to forces
     atom    1 type  1   force =     0.00000000    0.00000000    0.00000000
     atom    2 type  2   force =    -0.00067860    0.00007170    0.02028847
     atom    3 type  2   force =     0.00014207    0.00028153   -0.02096645
     atom    4 type  1   force =     0.00000000    0.00000000    0.00000000
     atom    5 type  2   force =    -0.00050841    0.00130890    0.02020128
     atom    6 type  2   force =    -0.00013130   -0.00008971   -0.02073694
     atom    7 type  1   force =     0.00000000    0.00000000    0.00000000
     atom    8 type  2   force =    -0.00102509    0.00030517    0.02069678
     atom    9 type  2   force =     0.00040320    0.00054231   -0.02088776
     atom   10 type  1   force =     0.00000000    0.00000000    0.00000000
     atom   11 type  2   force =    -0.00017558   -0.00092701    0.02032748
     atom   12 type  2   force =     0.00040605    0.00077173   -0.02075540
     atom   13 type  1   force =     0.00000000    0.00000000    0.00000000
     atom   14 type  2   force =     0.00066628   -0.00030043    0.02024698
     atom   15 type  2   force =    -0.00008550    0.00013981   -0.02068630
     atom   16 type  1   force =     0.00000000    0.00000000    0.00000000
     atom   17 type  2   force =     0.00067102    0.00187348    0.01988621
     atom   18 type  2   force =    -0.00011902   -0.00001697   -0.02080421
     atom   19 type  1   force =     0.00000000    0.00000000    0.00000000
     atom   20 type  2   force =    -0.00008477    0.00058145   -0.02104481
     atom   21 type  1   force =     0.00000000    0.00000000    0.00000000
     atom   22 type  2   force =     0.00066177   -0.00084533    0.02014213
     atom   23 type  2   force =    -0.00048966    0.00072702   -0.02086823
     atom   24 type  1   force =     0.00000000    0.00000000    0.00000000
     atom   25 type  2   force =     0.00036657   -0.00263546   -0.01078910
     atom   26 type  2   force =    -0.00006242    0.00029629   -0.02157610
     atom   27 type  1   force =     0.00000000    0.00000000    0.00000000
     atom   28 type  2   force =    -0.00032036    0.00176941    0.02044881
     atom   29 type  2   force =     0.00013541    0.00044968   -0.02089931
     atom   30 type  1   force =     0.00000000    0.00000000    0.00000000
     atom   31 type  2   force =     0.00032417    0.00039591    0.02066779
     atom   32 type  2   force =    -0.00030482    0.00101127   -0.02077831
     atom   33 type  1   force =     0.00000000    0.00000000    0.00000000
     atom   34 type  2   force =    -0.00076699   -0.00030905    0.02067492
     atom   35 type  2   force =    -0.00007439    0.00082604   -0.02102747
     atom   36 type  3   force =     0.00000000    0.00000000    0.00000000
     The Hubbard contrib.    to forces
     atom    1 type  1   force =     0.00000000    0.00000000    0.00000000
     atom    2 type  2   force =     0.00000000    0.00000000    0.00000000
     atom    3 type  2   force =     0.00000000    0.00000000    0.00000000
     atom    4 type  1   force =     0.00000000    0.00000000    0.00000000
     atom    5 type  2   force =     0.00000000    0.00000000    0.00000000
     atom    6 type  2   force =     0.00000000    0.00000000    0.00000000
     atom    7 type  1   force =     0.00000000    0.00000000    0.00000000
     atom    8 type  2   force =     0.00000000    0.00000000    0.00000000
     atom    9 type  2   force =     0.00000000    0.00000000    0.00000000
     atom   10 type  1   force =     0.00000000    0.00000000    0.00000000
     atom   11 type  2   force =     0.00000000    0.00000000    0.00000000
     atom   12 type  2   force =     0.00000000    0.00000000    0.00000000
     atom   13 type  1   force =     0.00000000    0.00000000    0.00000000
     atom   14 type  2   force =     0.00000000    0.00000000    0.00000000
     atom   15 type  2   force =     0.00000000    0.00000000    0.00000000
     atom   16 type  1   force =     0.00000000    0.00000000    0.00000000
     atom   17 type  2   force =     0.00000000    0.00000000    0.00000000
     atom   18 type  2   force =     0.00000000    0.00000000    0.00000000
     atom   19 type  1   force =     0.00000000    0.00000000    0.00000000
     atom   20 type  2   force =     0.00000000    0.00000000    0.00000000
     atom   21 type  1   force =     0.00000000    0.00000000    0.00000000
     atom   22 type  2   force =     0.00000000    0.00000000    0.00000000
     atom   23 type  2   force =     0.00000000    0.00000000    0.00000000
     atom   24 type  1   force =     0.00000000    0.00000000    0.00000000
     atom   25 type  2   force =     0.00000000    0.00000000    0.00000000
     atom   26 type  2   force =     0.00000000    0.00000000    0.00000000
     atom   27 type  1   force =     0.00000000    0.00000000    0.00000000
     atom   28 type  2   force =     0.00000000    0.00000000    0.00000000
     atom   29 type  2   force =     0.00000000    0.00000000    0.00000000
     atom   30 type  1   force =     0.00000000    0.00000000    0.00000000
     atom   31 type  2   force =     0.00000000    0.00000000    0.00000000
     atom   32 type  2   force =     0.00000000    0.00000000    0.00000000
     atom   33 type  1   force =     0.00000000    0.00000000    0.00000000
     atom   34 type  2   force =     0.00000000    0.00000000    0.00000000
     atom   35 type  2   force =     0.00000000    0.00000000    0.00000000
     atom   36 type  3   force =     0.00000000    0.00000000    0.00000000
     The SCF correction term to forces
     atom    1 type  1   force =     0.00002600   -0.00001737   -0.00001363
     atom    2 type  2   force =     0.00000829   -0.00001087   -0.00000675
     atom    3 type  2   force =    -0.00000124   -0.00000885   -0.00000326
     atom    4 type  1   force =     0.00000870    0.00003263    0.00000309
     atom    5 type  2   force =     0.00000754    0.00001425    0.00000141
     atom    6 type  2   force =     0.00000789    0.00000876   -0.00001165
     atom    7 type  1   force =     0.00001657   -0.00000812   -0.00000540
     atom    8 type  2   force =     0.00001383    0.00000501   -0.00000224
     atom    9 type  2   force =     0.00000456    0.00000376    0.00000134
     atom   10 type  1   force =     0.00002386   -0.00001694   -0.00001079
     atom   11 type  2   force =     0.00000950   -0.00000461    0.00000241
     atom   12 type  2   force =     0.00000463    0.00000246   -0.00001105
     atom   13 type  1   force =    -0.00001283   -0.00001015   -0.00001312
     atom   14 type  2   force =    -0.00000078   -0.00001071   -0.00000461
     atom   15 type  2   force =     0.00000325   -0.00001192   -0.00001081
     atom   16 type  1   force =    -0.00000697    0.00004136   -0.00000405
     atom   17 type  2   force =    -0.00000822    0.00001813    0.00000443
     atom   18 type  2   force =    -0.00000654    0.00000930   -0.00000988
     atom   19 type  1   force =    -0.00004060    0.00000309    0.00000611
     atom   20 type  2   force =    -0.00000979    0.00000535    0.00000037
     atom   21 type  1   force =    -0.00001871   -0.00001640   -0.00002104
     atom   22 type  2   force =    -0.00001802   -0.00002114   -0.00001054
     atom   23 type  2   force =    -0.00000812   -0.00001259    0.00001189
     atom   24 type  1   force =    -0.00000684   -0.00000090   -0.00001107
     atom   25 type  2   force =    -0.00000303   -0.00000678    0.00000434
     atom   26 type  2   force =    -0.00000307   -0.00000959   -0.00000396
     atom   27 type  1   force =    -0.00000459    0.00005253   -0.00000229
     atom   28 type  2   force =     0.00000033    0.00001281   -0.00000217
     atom   29 type  2   force =    -0.00000155    0.00000700   -0.00000098
     atom   30 type  1   force =     0.00003187    0.00000077    0.00001078
     atom   31 type  2   force =     0.00000242    0.00001605   -0.00000821
     atom   32 type  2   force =     0.00000495    0.00001372    0.00001934
     atom   33 type  1   force =    -0.00000433   -0.00005179   -0.00000808
     atom   34 type  2   force =     0.00000827   -0.00001282   -0.00000414
     atom   35 type  2   force =     0.00000044   -0.00000675    0.00000723
     atom   36 type  3   force =    -0.00000067   -0.00000131   -0.00000064

     Total force =     0.005281     Total SCF correction =     0.000145
     Energy error            =      6.3E-05 Ry
     Gradient error          =      1.9E-03 Ry/Bohr

     bfgs converged in  25 scf cycles and  24 bfgs steps
     (criteria: energy <  1.0E-04 Ry, force <  1.0E-02 Ry/Bohr)

     End of BFGS Geometry Optimization

     Final energy             =   -2205.5910236771 Ry

     File ./MoS2-V-O.bfgs deleted, as requested
Begin final coordinates

ATOMIC_POSITIONS (angstrom)
Mo            6.5720589024        1.7679051857        2.7555069805
S             8.1309024798        0.8588983237        4.3681538319
S             8.1501053607        0.8589018377        1.1679202286
Mo            8.1297585759        4.5046886081        2.7043259184
S             6.5243483063        3.6795861253        4.2991905178
S             6.5640672160        3.5745754129        1.1062376692
Mo            6.5434178502        7.2226190027        2.6318845689
S             8.0674719157        6.3186809339        4.2884813008
S             8.1582128626        6.3266015269        1.0890376145
Mo            8.1518291392        9.9514746612        2.7600311888
S             6.5401721336        8.9595603820        4.3192236901
S             6.5993589337        9.0682351117        1.1087524719
Mo            3.4702222813        1.7976894157        2.7683551925
S             5.0219724740        0.8286213913        4.3448693541
S             5.0055619055        0.8531136864        1.1661530762
Mo            4.9774488767        4.5388255991        2.6521572222
S             3.4739694955        3.6922291726        4.3350345133
S             3.4328684412        3.5685157982        1.1034278922
Mo            3.4841337765        7.1572259342        2.6877014256
S             5.0022213871        6.3198467378        1.0412800480
Mo            5.0073553742        9.9181891265        2.7317331991
S             3.5007778420        8.9183025886        4.3438053632
S             3.4080472485        9.0183605885        1.1454445771
Mo            0.2459262624        1.7750279864        2.7704848801
S             1.8730996190        0.8717773953        4.2836359414
S             1.8659774843        0.8416348518        1.2150679871
Mo            1.8646132821        4.4861513377        2.7198591831
S             0.2519841587        3.6302431631        4.3228808312
S             0.2705849250        3.5682423842        1.1381301705
Mo            0.2640319313        7.2162177297        2.7361409612
S             1.9005107688        6.2973212968        4.3142969515
S             1.8554109809        6.3171353187        1.1231568576
Mo            1.8680431467        9.8956384519        2.7916022442
S             0.2565536803        9.0100776552        4.3671004182
S             0.2870014535        9.0494582415        1.1755446718
H             1.8538287626        1.0336956697        5.6437309290
End final coordinates



     Writing all to output data dir ./MoS2-V-O.save/
 
     init_run     :     41.53s CPU     37.01s WALL (       1 calls)
     electrons    : 802767.56s CPU 187298.96s WALL (      25 calls)
     update_pot   :    559.84s CPU    493.82s WALL (      24 calls)
     forces       :    652.49s CPU    440.62s WALL (      25 calls)

     Called by init_run:
     wfcinit      :     10.46s CPU      9.90s WALL (       1 calls)
     potinit      :     23.72s CPU     21.97s WALL (       1 calls)
     hinit0       :      5.12s CPU      3.30s WALL (       1 calls)

     Called by electrons:
     c_bands      :   6417.74s CPU   5301.36s WALL (     223 calls)
     sum_band     :   4429.12s CPU   1314.33s WALL (     223 calls)
     v_of_rho     :   4070.13s CPU   3932.29s WALL (     230 calls)
     newd         :   1386.71s CPU    831.01s WALL (     230 calls)
     mix_rho      : 786390.21s CPU 175877.37s WALL (     223 calls)

     Called by c_bands:
     init_us_2    :     13.88s CPU      6.35s WALL (     447 calls)
     init_us_2:cp :     13.87s CPU      6.35s WALL (     447 calls)
     regterg      :   6323.94s CPU   5259.40s WALL (     223 calls)

     Called by *egterg:
     rdiaghg      :    583.39s CPU    265.33s WALL (    1173 calls)
     h_psi        :   4360.04s CPU   4152.30s WALL (    1216 calls)
     s_psi        :     58.94s CPU     22.87s WALL (    1216 calls)
     g_psi        :     35.16s CPU     16.89s WALL (     992 calls)

     Called by h_psi:
     h_psi:calbec :    250.48s CPU    207.76s WALL (    1216 calls)
     vloc_psi     :   4072.78s CPU   3921.96s WALL (    1216 calls)
     add_vuspsi   :     15.32s CPU     14.51s WALL (    1216 calls)

     General routines
     calbec       :    536.91s CPU    320.18s WALL (    1539 calls)
     fft          :   4948.83s CPU   4718.50s WALL (   15497 calls)
     ffts         : 118141.11s CPU  25947.18s WALL (  439551 calls)
     fftw         :   6037.10s CPU   4409.48s WALL (  133655 calls)
     interpolate  :    178.82s CPU    126.16s WALL (     230 calls)
 
     Parallel routines
 
     PWSCF        :   9d 7h24m CPU   2d 4h23m WALL

 
   This run was terminated on:   0:16:41   6Nov2023            

=------------------------------------------------------------------------------=
   JOB DONE.
=------------------------------------------------------------------------------=
