
     Program PWSCF v.7.2 starts on  4Nov2023 at  4:29:35 

     This program is part of the open-source Quantum ESPRESSO suite
     for quantum simulation of materials; please cite
         "P. Giannozzi et al., J. Phys.:Condens. Matter 21 395502 (2009);
         "P. Giannozzi et al., J. Phys.:Condens. Matter 29 465901 (2017);
         "P. Giannozzi et al., J. Chem. Phys. 152 154105 (2020);
          URL http://www.quantum-espresso.org", 
     in publications or presentations arising from this work. More details at
     http://www.quantum-espresso.org/quote

     Parallel version (MPI & OpenMP), running on      48 processor cores
     Number of MPI processes:                48
     Threads/MPI process:                     1

     MPI processes distributed on     1 nodes
     64463 MiB available memory on the printing compute node when the environment starts
 
     Waiting for input...
     Reading input from standard input
Warning: card &CELL ignored
Warning: card CELL_DYNAMICS = 'BFGS', ignored
Warning: card CELL_DOFREE = '2DXY' ignored
Warning: card / ignored

     Current dimensions of program PWSCF are:
     Max number of different atomic species (ntypx) = 10
     Max number of k-points (npk) =  40000
     Max angular momentum in pseudopotentials (lmaxx) =  4

     IMPORTANT: XC functional enforced from input :
     Exchange-correlation= RVV10
                           (   1   4  13   4  26   0   0)
     Any further DFT definition will be discarded
     Please, verify this is what you really want


     gamma-point specific algorithms are used
     signal trapping enabled: kill the code with -SIGUSR1 to stop cleanly the simulation 
 
     R & G space division:  proc/nbgrp/npool/nimage =      48
     Subspace diagonalization in iterative solution of the eigenvalue problem:
     one sub-group per band group will be used
     scalapack distributed-memory algorithm (size of sub-group:  2*  2 procs)

 
     Parallelization info
     --------------------
     sticks:   dense  smooth     PW     G-vecs:    dense   smooth      PW
     Min         243     194     47                49060    35090    4376
     Max         246     196     50                49086    35128    4410
     Sum       11735    9389   2349              2355467  1685513  210763
 
     Using Slab Decomposition
 


     bravais-lattice index     =            0
     lattice parameter (alat)  =      17.8707  a.u.
     unit-cell volume          =   17436.2743 (a.u.)^3
     number of atoms/cell      =           36
     number of atomic types    =            3
     number of electrons       =       307.00
     number of Kohn-Sham states=          185
     kinetic-energy cutoff     =      80.0000  Ry
     charge density cutoff     =     400.0000  Ry
     scf convergence threshold =      1.0E-06
     mixing beta               =       0.7000
     number of iterations used =            8  local-TF  mixing
     energy convergence thresh.=      1.0E-04
     force convergence thresh. =      1.0E-02
     Exchange-correlation= RVV10
                           (   1   4  13   4  26   0   0)
     nstep                     =          200


     celldm(1)=  17.870686  celldm(2)=   0.000000  celldm(3)=   0.000000
     celldm(4)=   0.000000  celldm(5)=   0.000000  celldm(6)=   0.000000

     crystal axes: (cart. coord. in units of alat)
               a(1) = (   1.000000   0.000000   0.000000 )  
               a(2) = (   0.000000   1.155671   0.000000 )  
               a(3) = (   0.000000   0.000000   2.643601 )  

     reciprocal axes: (cart. coord. in units 2 pi/alat)
               b(1) = (  1.000000  0.000000  0.000000 )  
               b(2) = (  0.000000  0.865298  0.000000 )  
               b(3) = (  0.000000  0.000000  0.378272 )  


     PseudoPot. # 1 for Mo read from file:
     ../pseudo/Mo_ONCV_PBE-1.0.oncvpsp.upf
     MD5 check sum: 1b5d28e075c9ccadda658a603575cd1f
     Pseudo is Norm-conserving, Zval = 14.0
     Generated using ONCVPSP code by D. R. Hamann
     Using radial grid of 1526 points,  6 beta functions with: 
                l(1) =   0
                l(2) =   0
                l(3) =   1
                l(4) =   1
                l(5) =   2
                l(6) =   2

     PseudoPot. # 2 for S  read from file:
     ../pseudo/s_pbe_v1.4.uspp.F.UPF
     MD5 check sum: 88d86576ff6df21479756cfb9bdac1df
     Pseudo is Ultrasoft + core correction, Zval =  6.0
     Generated by new atomic code, or converted to UPF format
     Using radial grid of  907 points,  6 beta functions with: 
                l(1) =   0
                l(2) =   0
                l(3) =   1
                l(4) =   1
                l(5) =   2
                l(6) =   2
     Q(r) pseudized with  8 coefficients,  rinner =    1.300   1.300   1.300
                                                       1.300   1.300

     PseudoPot. # 3 for H  read from file:
     ../pseudo/H_ONCV_PBE-1.0.oncvpsp.upf
     MD5 check sum: 1790becc920ee074925cf490c71280fe
     Pseudo is Norm-conserving, Zval =  1.0
     Generated using ONCVPSP code by D. R. Hamann
     Using radial grid of 1166 points,  2 beta functions with: 
                l(1) =   0
                l(2) =   0

     atomic species   valence    mass     pseudopotential
        Mo            14.00    95.94000     Mo( 1.00)
        S              6.00    32.06500     S ( 1.00)
        H              1.00     1.00794     H ( 1.00)

     No symmetry found



   Cartesian axes

     site n.     atom                  positions (alat units)
         1           Mo  tau(   1) = (   0.6952221   0.1890506   0.2985846  )
         2           S   tau(   2) = (   0.8646417   0.0856217   0.4689279  )
         3           S   tau(   3) = (   0.8663890   0.0857843   0.1351291  )
         4           Mo  tau(   4) = (   0.8560186   0.4753274   0.2873942  )
         5           S   tau(   5) = (   0.6873294   0.3936244   0.4596353  )
         6           S   tau(   6) = (   0.6929804   0.3713468   0.1185692  )
         7           Mo  tau(   7) = (   0.6862796   0.7633098   0.2825370  )
         8           S   tau(   8) = (   0.8545980   0.6708292   0.4486168  )
         9           S   tau(   9) = (   0.8545123   0.6666874   0.1146125  )
        10           Mo  tau(  10) = (   0.8629403   1.0471007   0.3006803  )
        11           S   tau(  11) = (   0.6868280   0.9456650   0.4634891  )
        12           S   tau(  12) = (   0.6998113   0.9568511   0.1205389  )
        13           Mo  tau(  13) = (   0.3618216   0.1847309   0.2935964  )
        14           S   tau(  14) = (   0.5260962   0.0863870   0.4600448  )
        15           S   tau(  15) = (   0.5348379   0.0894875   0.1297123  )
        16           Mo  tau(  16) = (   0.5265817   0.4772436   0.2784130  )
        17           S   tau(  17) = (   0.3624753   0.3882513   0.4525556  )
        18           S   tau(  18) = (   0.3635411   0.3752055   0.1119148  )
        19           Mo  tau(  19) = (   0.3652268   0.7630864   0.2781795  )
        20           S   tau(  20) = (   0.5269494   0.6690381   0.1096838  )
        21           Mo  tau(  21) = (   0.5300192   1.0470394   0.2900995  )
        22           S   tau(  22) = (   0.3670346   0.9457522   0.4574073  )
        23           S   tau(  23) = (   0.3604225   0.9585725   0.1159032  )
        24           Mo  tau(  24) = (   0.0313099   0.1847895   0.3013130  )
        25           S   tau(  25) = (   0.1956761   0.0838230   0.4650863  )
        26           S   tau(  26) = (   0.1967693   0.0903508   0.1278874  )
        27           Mo  tau(  27) = (   0.1967578   0.4753919   0.2813011  )
        28           S   tau(  28) = (   0.0287851   0.3864324   0.4586755  )
        29           S   tau(  29) = (   0.0244514   0.3729871   0.1239344  )
        30           Mo  tau(  30) = (   0.0286728   0.7631204   0.2856894  )
        31           S   tau(  31) = (   0.2011512   0.6675435   0.4465001  )
        32           S   tau(  32) = (   0.1969214   0.6672839   0.1104564  )
        33           Mo  tau(  33) = (   0.1950294   1.0511147   0.2932237  )
        34           S   tau(  34) = (   0.0312912   0.9612169   0.4667423  )
        35           S   tau(  35) = (   0.0292670   0.9563028   0.1216485  )
        36           H   tau(  36) = (   0.5555556   0.6420393   0.5656742  )

     number of k points=     1  Gaussian smearing, width (Ry)=  0.0100
                       cart. coord. in units 2pi/alat
        k(    1) = (   0.0000000   0.0000000   0.0000000), wk =   2.0000000

     Dense  grid:  1177734 G-vectors     FFT dimensions: ( 120, 135, 320)

     Smooth grid:   842757 G-vectors     FFT dimensions: ( 108, 120, 270)

     Estimated max dynamical RAM per process >     146.59 MB

     Estimated total dynamical RAM >       6.87 GB

     Initial potential from superposition of free atoms

     starting charge     306.9873, renormalised to     307.0000

     negative rho (up, down):  1.405E-04 0.000E+00


---------------------------------------------------------------------------------
Carrying out rVV10 run using the following parameters:
Nqs =      20    Nr_points =    1024   r_max =   100.000
b_value =  6.30000    beta =  0.00901
     q_mesh =  0.00010000  0.00030000  0.00058939  0.00100810
               0.00161396  0.00249058  0.00375900  0.00559430
               0.00824984  0.01209221  0.01765183  0.02569619
               0.03733578  0.05417739  0.07854596  0.11380545
               0.16482331  0.23864234  0.34545298  0.50000000

Gradients computed in Reciprocal space

---------------------------------------------------------------------------------


     Starting wfcs are  213 randomized atomic wfcs

     total cpu time spent up to now is        2.8 secs

     Self-consistent Calculation

     iteration #  1     ecut=    80.00 Ry     beta= 0.70
     Davidson diagonalization with overlap
     ethr =  1.00E-02,  avg # of iterations =  2.0

     Threshold (ethr) on eigenvalues was too large:
     Diagonalizing with lowered threshold

     Davidson diagonalization with overlap
     ethr =  3.13E-04,  avg # of iterations =  4.0

     negative rho (up, down):  1.592E-08 0.000E+00

     total cpu time spent up to now is       20.5 secs

     total energy              =   -2205.56408678 Ry
     estimated scf accuracy    <       1.26825431 Ry

     iteration #  2     ecut=    80.00 Ry     beta= 0.70
     Davidson diagonalization with overlap
     ethr =  4.13E-04,  avg # of iterations =  1.0

     total cpu time spent up to now is       22.9 secs

     total energy              =   -2205.40893308 Ry
     estimated scf accuracy    <       0.52781749 Ry

     iteration #  3     ecut=    80.00 Ry     beta= 0.70
     Davidson diagonalization with overlap
     ethr =  1.72E-04,  avg # of iterations =  2.0

     total cpu time spent up to now is       25.6 secs

     total energy              =   -2205.47195108 Ry
     estimated scf accuracy    <       0.32073513 Ry

     iteration #  4     ecut=    80.00 Ry     beta= 0.70
     Davidson diagonalization with overlap
     ethr =  1.04E-04,  avg # of iterations =  2.0

     total cpu time spent up to now is       27.9 secs

     total energy              =   -2205.49130827 Ry
     estimated scf accuracy    <       0.03834583 Ry

     iteration #  5     ecut=    80.00 Ry     beta= 0.70
     Davidson diagonalization with overlap
     c_bands:  1 eigenvalues not converged
     ethr =  1.25E-05,  avg # of iterations = 20.0

     total cpu time spent up to now is       31.2 secs

     total energy              =   -2205.49116200 Ry
     estimated scf accuracy    <       0.01923800 Ry

     iteration #  6     ecut=    80.00 Ry     beta= 0.70
     Davidson diagonalization with overlap
     ethr =  6.27E-06,  avg # of iterations =  9.0

     total cpu time spent up to now is       34.0 secs

     total energy              =   -2205.49109635 Ry
     estimated scf accuracy    <       0.01702290 Ry

     iteration #  7     ecut=    80.00 Ry     beta= 0.70
     Davidson diagonalization with overlap
     ethr =  5.54E-06,  avg # of iterations =  2.0

     total cpu time spent up to now is       36.4 secs

     total energy              =   -2205.49019528 Ry
     estimated scf accuracy    <       0.01044020 Ry

     iteration #  8     ecut=    80.00 Ry     beta= 0.70
     Davidson diagonalization with overlap
     ethr =  3.40E-06,  avg # of iterations =  1.0

     negative rho (up, down):  7.963E-03 0.000E+00

     total cpu time spent up to now is       41.1 secs

     total energy              =   -2205.48805957 Ry
     estimated scf accuracy    <       0.00637237 Ry

     iteration #  9     ecut=    80.00 Ry     beta= 0.70
     Davidson diagonalization with overlap
     ethr =  2.08E-06,  avg # of iterations =  2.0

     negative rho (up, down):  1.355E-02 0.000E+00

     total cpu time spent up to now is       46.0 secs

     total energy              =   -2205.48867128 Ry
     estimated scf accuracy    <       0.00364974 Ry

     iteration # 10     ecut=    80.00 Ry     beta= 0.70
     Davidson diagonalization with overlap
     ethr =  1.19E-06,  avg # of iterations =  1.0

     negative rho (up, down):  1.966E-02 0.000E+00

     total cpu time spent up to now is       51.6 secs

     total energy              =   -2205.48843017 Ry
     estimated scf accuracy    <       0.00174284 Ry

     iteration # 11     ecut=    80.00 Ry     beta= 0.70
     Davidson diagonalization with overlap
     ethr =  5.68E-07,  avg # of iterations =  2.0

     negative rho (up, down):  2.294E-02 0.000E+00

     total cpu time spent up to now is       56.9 secs

     total energy              =   -2205.48868155 Ry
     estimated scf accuracy    <       0.00083586 Ry

     iteration # 12     ecut=    80.00 Ry     beta= 0.70
     Davidson diagonalization with overlap
     ethr =  2.72E-07,  avg # of iterations =  2.0

     negative rho (up, down):  1.113E-02 0.000E+00

     total cpu time spent up to now is       62.3 secs

     total energy              =   -2205.48886257 Ry
     estimated scf accuracy    <       0.00014797 Ry

     iteration # 13     ecut=    80.00 Ry     beta= 0.70
     Davidson diagonalization with overlap
     ethr =  4.82E-08,  avg # of iterations =  5.0

     negative rho (up, down):  2.821E-03 0.000E+00

     total cpu time spent up to now is       70.3 secs

     total energy              =   -2205.48893076 Ry
     estimated scf accuracy    <       0.00003125 Ry

     iteration # 14     ecut=    80.00 Ry     beta= 0.70
     Davidson diagonalization with overlap
     ethr =  1.02E-08,  avg # of iterations =  6.0

     negative rho (up, down):  1.495E-03 0.000E+00

     total cpu time spent up to now is       79.5 secs

     total energy              =   -2205.48893905 Ry
     estimated scf accuracy    <       0.00000831 Ry

     iteration # 15     ecut=    80.00 Ry     beta= 0.70
     Davidson diagonalization with overlap
     ethr =  2.71E-09,  avg # of iterations =  5.0

     negative rho (up, down):  4.440E-04 0.000E+00

     total cpu time spent up to now is       88.8 secs

     total energy              =   -2205.48893740 Ry
     estimated scf accuracy    <       0.00000177 Ry

     iteration # 16     ecut=    80.00 Ry     beta= 0.70
     Davidson diagonalization with overlap
     ethr =  5.77E-10,  avg # of iterations =  5.0

     negative rho (up, down):  1.364E-04 0.000E+00

     total cpu time spent up to now is       91.1 secs

     End of self-consistent calculation

          k = 0.0000 0.0000 0.0000 (105382 PWs)   bands (ev):

   -62.9817 -62.9649 -62.9612 -62.9604 -62.9466 -62.9316 -62.9136 -62.9124
   -62.9081 -62.8923 -62.8762 -62.8370 -37.3319 -37.2812 -37.2436 -37.2340
   -37.2220 -37.2041 -37.1897 -37.1747 -37.1661 -37.1580 -37.1525 -37.1388
   -37.1359 -37.1279 -37.1182 -37.1141 -37.1090 -37.0987 -37.0934 -37.0888
   -37.0846 -37.0791 -37.0724 -37.0381 -37.0278 -37.0162 -37.0097 -37.0049
   -36.9980 -36.9907 -36.9695 -36.9528 -36.9353 -36.9074 -36.8938 -36.8198
   -16.0512 -15.2683 -15.2067 -15.0482 -14.9861 -14.8738 -14.5858 -14.5491
   -14.5303 -14.4922 -14.4605 -14.4119 -14.4067 -14.3542 -14.2126 -14.2037
   -14.1866 -14.1731 -14.1002 -13.9514 -13.9418 -13.9090 -13.8594  -7.7329
    -7.5669  -7.3815  -7.3594  -7.3334  -7.2821  -7.2697  -7.2052  -6.9119
    -6.9008  -6.8482  -6.8185  -6.7577  -6.5887  -6.5647  -6.5122  -6.4782
    -6.3526  -6.3124  -6.0572  -5.9928  -5.9749  -5.9339  -5.8970  -5.8349
    -5.8115  -5.7909  -5.7425  -5.7349  -5.6893  -5.6123  -5.5983  -5.5255
    -5.4882  -5.4446  -5.2421  -5.1967  -5.1219  -5.0842  -5.0610  -5.0037
    -4.9845  -4.9071  -4.7281  -4.5991  -4.4155  -4.3955  -4.3569  -4.3088
    -4.2592  -4.1170  -4.0636  -3.9181  -3.8777  -3.8367  -3.8017  -3.7575
    -3.7044  -3.6379  -3.6039  -3.5756  -3.5489  -3.5405  -3.5181  -3.4623
    -3.4367  -3.2671  -3.1821  -3.0350  -2.9525  -2.8985  -2.8469  -2.8191
    -2.7866  -2.7408  -2.7212  -2.7146  -2.6583  -2.6042  -2.2072  -2.0746
    -2.0583  -1.1036  -0.9285  -0.7973  -0.2669  -0.2247  -0.1908  -0.1335
    -0.0402   0.0458   0.0706   0.1440   0.1588   0.1947   0.2369   0.3200
     0.3749   0.4408   0.4499   0.4771   0.5057   0.5821   0.6371   0.6600
     0.6916   0.7086   0.7362   0.7808   0.8455   0.8803   0.9209   0.9659
     1.3400

     the Fermi energy is    -1.1108 ev

!    total energy              =   -2205.48893805 Ry
     estimated scf accuracy    <       0.00000099 Ry
     smearing contrib. (-TS)   =      -0.00659208 Ry
     internal energy E=F+TS    =   -2205.48234597 Ry

     The total energy is F=E-TS. E is the sum of the following terms:
     one-electron contribution =  -18040.38487436 Ry
     hartree contribution      =    9006.07412447 Ry
     xc contribution           =    -385.09812074 Ry
     ewald contribution        =    7213.92652466 Ry

     convergence has been achieved in  16 iterations

     negative rho (up, down):  1.364E-04 0.000E+00

     Forces acting on atoms (cartesian axes, Ry/au):

     atom    1 type  1   force =     0.01372886   -0.02582227    0.00551606
     atom    2 type  2   force =    -0.01465221    0.01694224    0.00001048
     atom    3 type  2   force =    -0.01112160    0.00905211   -0.00221218
     atom    4 type  1   force =     0.00188045    0.00159877    0.00147386
     atom    5 type  2   force =     0.00122757   -0.01300093   -0.00788106
     atom    6 type  2   force =     0.00092839    0.01133858   -0.00044638
     atom    7 type  1   force =     0.00166493   -0.01001739    0.00841595
     atom    8 type  2   force =     0.00514897   -0.00177063    0.01553076
     atom    9 type  2   force =     0.01256267    0.00561474    0.01093906
     atom   10 type  1   force =    -0.01244639    0.00820572   -0.02654725
     atom   11 type  2   force =     0.00764356    0.00207451   -0.00793519
     atom   12 type  2   force =    -0.00109004   -0.00067663    0.00582248
     atom   13 type  1   force =     0.00540225    0.00537224   -0.00578641
     atom   14 type  2   force =     0.00845007    0.00057347    0.01235094
     atom   15 type  2   force =    -0.01240102    0.00461413   -0.01010221
     atom   16 type  1   force =     0.00229665    0.01230329    0.02786389
     atom   17 type  2   force =     0.00482968   -0.00387213    0.00004947
     atom   18 type  2   force =    -0.00269335   -0.00582741    0.01338161
     atom   19 type  1   force =     0.00037878    0.00050967   -0.01008364
     atom   20 type  2   force =     0.00261351   -0.00428756    0.00091332
     atom   21 type  1   force =    -0.00528899    0.00273705    0.00066680
     atom   22 type  2   force =    -0.00402842   -0.00067524   -0.00310109
     atom   23 type  2   force =    -0.00144332    0.00122043    0.01062934
     atom   24 type  1   force =    -0.01066998   -0.00265340   -0.02231581
     atom   25 type  2   force =     0.01643059    0.01838811    0.00676108
     atom   26 type  2   force =    -0.01110033   -0.00056498   -0.00321026
     atom   27 type  1   force =     0.00045621   -0.00211701    0.00723781
     atom   28 type  2   force =     0.00071824   -0.00068282   -0.00509118
     atom   29 type  2   force =     0.00310261   -0.00016171   -0.00288373
     atom   30 type  1   force =    -0.00260349    0.00654372   -0.00514877
     atom   31 type  2   force =    -0.00083609    0.00201281    0.01541226
     atom   32 type  2   force =    -0.00967765    0.00706090    0.00843082
     atom   33 type  1   force =     0.01378969   -0.00668745   -0.01008545
     atom   34 type  2   force =     0.00296429   -0.04250607   -0.00890266
     atom   35 type  2   force =    -0.00803176    0.00835409    0.01472355
     atom   36 type  3   force =     0.00186668   -0.00319295   -0.03439627
     The non-local contrib.  to forces
     atom    1 type  1   force =     0.00082572    0.03150289   -0.00699931
     atom    2 type  2   force =    -0.01193325    0.00130961   -0.27397461
     atom    3 type  2   force =    -0.01354151   -0.00156993    0.26879649
     atom    4 type  1   force =    -0.00073490    0.00563951    0.00349086
     atom    5 type  2   force =     0.00288657   -0.03110860   -0.26459585
     atom    6 type  2   force =    -0.00463412    0.01198648    0.26307244
     atom    7 type  1   force =    -0.01091950   -0.00080334   -0.02294168
     atom    8 type  2   force =     0.00212187   -0.00109458   -0.26118764
     atom    9 type  2   force =     0.00702435   -0.00790720    0.27789760
     atom   10 type  1   force =     0.00486865    0.00596142   -0.00088898
     atom   11 type  2   force =     0.01292799    0.01105133   -0.26516012
     atom   12 type  2   force =    -0.01163468   -0.01807154    0.26424099
     atom   13 type  1   force =    -0.00393956    0.01825851   -0.00670736
     atom   14 type  2   force =     0.01101853   -0.01081548   -0.26471590
     atom   15 type  2   force =    -0.01381207   -0.00623429    0.26037039
     atom   16 type  1   force =    -0.00200911    0.01030592   -0.04066988
     atom   17 type  2   force =    -0.00348723   -0.02924691   -0.25597098
     atom   18 type  2   force =     0.00061309   -0.00273914    0.27551167
     atom   19 type  1   force =     0.01163929   -0.00553645   -0.01048048
     atom   20 type  2   force =     0.00036973   -0.02273401    0.26289931
     atom   21 type  1   force =     0.00216703    0.02554555    0.00784970
     atom   22 type  2   force =    -0.00816535    0.00756233   -0.26129327
     atom   23 type  2   force =     0.00529368   -0.01621702    0.26900600
     atom   24 type  1   force =     0.00628026    0.01210234   -0.01128353
     atom   25 type  2   force =     0.01061869    0.00509566   -0.26209591
     atom   26 type  2   force =    -0.00234854   -0.01249964    0.26226702
     atom   27 type  1   force =    -0.00327007    0.00872015    0.00842521
     atom   28 type  2   force =    -0.00470439   -0.02105710   -0.27282506
     atom   29 type  2   force =     0.00705749    0.00343463    0.26237807
     atom   30 type  1   force =     0.00100116    0.01705267    0.00577964
     atom   31 type  2   force =    -0.01218795    0.00184680   -0.25431543
     atom   32 type  2   force =    -0.00373278   -0.00870834    0.27387744
     atom   33 type  1   force =    -0.00575432    0.01008854    0.00677921
     atom   34 type  2   force =     0.00043780   -0.03720228   -0.27289790
     atom   35 type  2   force =    -0.00258688   -0.01293151    0.27073549
     atom   36 type  3   force =     0.00048853   -0.00053618   -0.00403470
     The ionic contribution  to forces
     atom    1 type  1   force =     0.44074875    0.10069581    5.65088374
     atom    2 type  2   force =    -0.63564731    0.39470394   39.28628467
     atom    3 type  2   force =    -0.15285039    0.01181706  -36.07702163
     atom    4 type  1   force =     0.29135136    0.43350847    0.49466089
     atom    5 type  2   force =    -0.80355853    1.17802478   38.62940304
     atom    6 type  2   force =     0.36550294   -0.54522051  -38.06859566
     atom    7 type  1   force =    -2.35294363   -2.51290152    2.03312120
     atom    8 type  2   force =    -0.70990734    0.06161842   37.28423901
     atom    9 type  2   force =     0.37776501   -0.03007352  -38.05157163
     atom   10 type  1   force =    -1.02675420   -0.20282742    5.64232908
     atom   11 type  2   force =    -0.46093099   -1.36328791   39.07467758
     atom   12 type  2   force =     0.46030290    0.73577187  -37.88445801
     atom   13 type  1   force =     0.42010727    0.87740777    2.81956280
     atom   14 type  2   force =     0.05370546   -0.02482179   38.51397245
     atom   15 type  2   force =     0.15617215   -0.07007276  -36.80720555
     atom   16 type  1   force =    -0.08245569    3.59144556   -0.07214123
     atom   17 type  2   force =     0.65301147    1.27721595   37.85166752
     atom   18 type  2   force =    -0.18405622   -0.68481454  -38.60052222
     atom   19 type  1   force =     2.44145644   -2.24296093    0.26030605
     atom   20 type  2   force =     0.22109230   -0.18730125  -38.58797876
     atom   21 type  1   force =     0.02590517    0.24528103    1.07281127
     atom   22 type  2   force =     0.34726699   -1.52618975   38.38071141
     atom   23 type  2   force =    -0.10646969    0.70402568  -38.31379625
     atom   24 type  1   force =    -0.54213739    1.07744992    5.84994503
     atom   25 type  2   force =     0.63463180    0.27404141   39.27542154
     atom   26 type  2   force =    -0.29755750    0.06039511  -37.32261511
     atom   27 type  1   force =    -0.11771096    0.29334357   -2.37213805
     atom   28 type  2   force =     0.06673209    0.94117089   38.19853232
     atom   29 type  2   force =    -0.26121533   -0.45228770  -37.27213601
     atom   30 type  1   force =    -0.31036895   -0.82747445   -0.11528568
     atom   31 type  2   force =     1.04919548   -0.03535529   37.26570858
     atom   32 type  2   force =    -0.50793804   -0.00066861  -38.66941749
     atom   33 type  1   force =     0.73770472   -0.76102167    2.05674847
     atom   34 type  2   force =     0.24913834   -1.37831600   39.35265350
     atom   35 type  2   force =    -0.29741544    0.50232288  -37.81559833
     atom   36 type  3   force =    -0.14187303    0.08535550    7.03684147
     The local contribution  to forces
     atom    1 type  1   force =    -0.42812570   -0.15783561   -5.63962234
     atom    2 type  2   force =     0.63256640   -0.37898917  -39.03377272
     atom    3 type  2   force =     0.15462083   -0.00116650   35.82648906
     atom    4 type  1   force =    -0.28894845   -0.43734889   -0.49787954
     atom    5 type  2   force =     0.80246292   -1.16191035  -38.39448792
     atom    6 type  2   force =    -0.36053157    0.54584231   37.82578388
     atom    7 type  1   force =     2.36570205    2.50386359   -2.00314275
     atom    8 type  2   force =     0.71315639   -0.06261626  -37.02907933
     atom    9 type  2   force =    -0.37218740    0.04317121   37.80544810
     atom   10 type  1   force =     1.00935348    0.20468320   -5.66911250
     atom   11 type  2   force =     0.45630604    1.35516589  -38.83913035
     atom   12 type  2   force =    -0.45088236   -0.72004273   37.64673409
     atom   13 type  1   force =    -0.41055495   -0.89015000   -2.81988849
     atom   14 type  2   force =    -0.05567333    0.03616666  -38.25827978
     atom   15 type  2   force =    -0.15550082    0.08056718   36.55701024
     atom   16 type  1   force =     0.08681615   -3.58972884    0.13930564
     atom   17 type  2   force =    -0.64495704   -1.25344727  -37.61700613
     atom   18 type  2   force =     0.18106903    0.68234522   38.35932222
     atom   19 type  1   force =    -2.45278931    2.24915482   -0.26121834
     atom   20 type  2   force =    -0.21887045    0.20484285   38.34694658
     atom   21 type  1   force =    -0.03325401   -0.26836576   -1.08114235
     atom   22 type  2   force =    -0.34336441    1.51865638  -38.14385622
     atom   23 type  2   force =     0.10024484   -0.68796191   38.07607931
     atom   24 type  1   force =     0.52521318   -1.09212284   -5.86213613
     atom   25 type  2   force =    -0.62865334   -0.26035494  -39.02792908
     atom   26 type  2   force =     0.28902814   -0.04914543   37.07762711
     atom   27 type  1   force =     0.12158531   -0.30405945    2.36975174
     atom   28 type  2   force =    -0.06162055   -0.92233060  -37.95226665
     atom   29 type  2   force =     0.25785982    0.44943033   37.02709147
     atom   30 type  1   force =     0.30670909    0.81697344    0.10318427
     atom   31 type  2   force =    -1.03863293    0.03551548  -37.01727589
     atom   32 type  2   force =     0.50204638    0.01587567   38.42473408
     atom   33 type  1   force =    -0.71813946    0.74400269   -2.07478186
     atom   34 type  2   force =    -0.24696245    1.37177937  -39.11039318
     atom   35 type  2   force =     0.29201226   -0.48223853   37.58040623
     atom   36 type  3   force =     0.14325294   -0.08801455   -7.06730046
     The core correction contribution to forces
     atom    1 type  1   force =     0.00000000    0.00000000    0.00000000
     atom    2 type  2   force =     0.00033376   -0.00010325    0.02094920
     atom    3 type  2   force =     0.00061313   -0.00003185   -0.02081702
     atom    4 type  1   force =     0.00000000    0.00000000    0.00000000
     atom    5 type  2   force =    -0.00060315    0.00200619    0.02109636
     atom    6 type  2   force =     0.00046341   -0.00117319   -0.02089071
     atom    7 type  1   force =     0.00000000    0.00000000    0.00000000
     atom    8 type  2   force =    -0.00021525    0.00036467    0.02088688
     atom    9 type  2   force =    -0.00009584    0.00048192   -0.02104946
     atom   10 type  1   force =     0.00000000    0.00000000    0.00000000
     atom   11 type  2   force =    -0.00066748   -0.00091268    0.02102030
     atom   12 type  2   force =     0.00110181    0.00150438   -0.02088933
     atom   13 type  1   force =     0.00000000    0.00000000    0.00000000
     atom   14 type  2   force =    -0.00057616    0.00004056    0.02077005
     atom   15 type  2   force =     0.00074827    0.00037355   -0.02053368
     atom   16 type  1   force =     0.00000000    0.00000000    0.00000000
     atom   17 type  2   force =     0.00033209    0.00165697    0.02067579
     atom   18 type  2   force =    -0.00020215   -0.00052247   -0.02112799
     atom   19 type  1   force =     0.00000000    0.00000000    0.00000000
     atom   20 type  2   force =     0.00009245    0.00087908   -0.02114865
     atom   21 type  1   force =     0.00000000    0.00000000    0.00000000
     atom   22 type  2   force =     0.00026784   -0.00072396    0.02073461
     atom   23 type  2   force =    -0.00048909    0.00131530   -0.02093444
     atom   24 type  1   force =     0.00000000    0.00000000    0.00000000
     atom   25 type  2   force =    -0.00015491   -0.00041233    0.02079577
     atom   26 type  2   force =    -0.00017812    0.00067248   -0.02080387
     atom   27 type  1   force =     0.00000000    0.00000000    0.00000000
     atom   28 type  2   force =     0.00030596    0.00159153    0.02090041
     atom   29 type  2   force =    -0.00058417   -0.00065924   -0.02052695
     atom   30 type  1   force =     0.00000000    0.00000000    0.00000000
     atom   31 type  2   force =     0.00073535    0.00001406    0.02067204
     atom   32 type  2   force =    -0.00007391    0.00057174   -0.02103218
     atom   33 type  1   force =     0.00000000    0.00000000    0.00000000
     atom   34 type  2   force =     0.00032227    0.00114762    0.02112806
     atom   35 type  2   force =    -0.00005554    0.00109168   -0.02107872
     atom   36 type  3   force =     0.00000000    0.00000000    0.00000000
     The Hubbard contrib.    to forces
     atom    1 type  1   force =     0.00000000    0.00000000    0.00000000
     atom    2 type  2   force =     0.00000000    0.00000000    0.00000000
     atom    3 type  2   force =     0.00000000    0.00000000    0.00000000
     atom    4 type  1   force =     0.00000000    0.00000000    0.00000000
     atom    5 type  2   force =     0.00000000    0.00000000    0.00000000
     atom    6 type  2   force =     0.00000000    0.00000000    0.00000000
     atom    7 type  1   force =     0.00000000    0.00000000    0.00000000
     atom    8 type  2   force =     0.00000000    0.00000000    0.00000000
     atom    9 type  2   force =     0.00000000    0.00000000    0.00000000
     atom   10 type  1   force =     0.00000000    0.00000000    0.00000000
     atom   11 type  2   force =     0.00000000    0.00000000    0.00000000
     atom   12 type  2   force =     0.00000000    0.00000000    0.00000000
     atom   13 type  1   force =     0.00000000    0.00000000    0.00000000
     atom   14 type  2   force =     0.00000000    0.00000000    0.00000000
     atom   15 type  2   force =     0.00000000    0.00000000    0.00000000
     atom   16 type  1   force =     0.00000000    0.00000000    0.00000000
     atom   17 type  2   force =     0.00000000    0.00000000    0.00000000
     atom   18 type  2   force =     0.00000000    0.00000000    0.00000000
     atom   19 type  1   force =     0.00000000    0.00000000    0.00000000
     atom   20 type  2   force =     0.00000000    0.00000000    0.00000000
     atom   21 type  1   force =     0.00000000    0.00000000    0.00000000
     atom   22 type  2   force =     0.00000000    0.00000000    0.00000000
     atom   23 type  2   force =     0.00000000    0.00000000    0.00000000
     atom   24 type  1   force =     0.00000000    0.00000000    0.00000000
     atom   25 type  2   force =     0.00000000    0.00000000    0.00000000
     atom   26 type  2   force =     0.00000000    0.00000000    0.00000000
     atom   27 type  1   force =     0.00000000    0.00000000    0.00000000
     atom   28 type  2   force =     0.00000000    0.00000000    0.00000000
     atom   29 type  2   force =     0.00000000    0.00000000    0.00000000
     atom   30 type  1   force =     0.00000000    0.00000000    0.00000000
     atom   31 type  2   force =     0.00000000    0.00000000    0.00000000
     atom   32 type  2   force =     0.00000000    0.00000000    0.00000000
     atom   33 type  1   force =     0.00000000    0.00000000    0.00000000
     atom   34 type  2   force =     0.00000000    0.00000000    0.00000000
     atom   35 type  2   force =     0.00000000    0.00000000    0.00000000
     atom   36 type  3   force =     0.00000000    0.00000000    0.00000000
     The SCF correction term to forces
     atom    1 type  1   force =     0.00028031   -0.00018993    0.00122901
     atom    2 type  2   force =     0.00002840    0.00001654    0.00049897
     atom    3 type  2   force =     0.00003655   -0.00000124    0.00031596
     atom    4 type  1   force =     0.00021267   -0.00020489    0.00117669
     atom    5 type  2   force =     0.00003998   -0.00001753    0.00067835
     atom    6 type  2   force =     0.00012795   -0.00010107    0.00015871
     atom    7 type  1   force =    -0.00017377   -0.00018069    0.00135421
     atom    8 type  2   force =    -0.00000649   -0.00004746    0.00064688
     atom    9 type  2   force =     0.00005677   -0.00006224    0.00018948
     atom   10 type  1   force =     0.00008590    0.00038395    0.00110018
     atom   11 type  2   force =     0.00000822    0.00005330    0.00063244
     atom   12 type  2   force =     0.00002250    0.00015681    0.00016978
     atom   13 type  1   force =    -0.00021029   -0.00014862    0.00122168
     atom   14 type  2   force =    -0.00002421   -0.00000105    0.00057916
     atom   15 type  2   force =    -0.00000833   -0.00002412    0.00023142
     atom   16 type  1   force =    -0.00005447    0.00027608    0.00134440
     atom   17 type  2   force =    -0.00006940   -0.00005544    0.00065831
     atom   18 type  2   force =    -0.00011688   -0.00010106    0.00017297
     atom   19 type  1   force =     0.00007257   -0.00015234    0.00128416
     atom   20 type  2   force =    -0.00007029    0.00002119    0.00016988
     atom   21 type  1   force =    -0.00010696    0.00027166    0.00112322
     atom   22 type  2   force =    -0.00003326    0.00001520    0.00057742
     atom   23 type  2   force =    -0.00002284    0.00005381    0.00024976
     atom   24 type  1   force =    -0.00002581   -0.00008739    0.00113385
     atom   25 type  2   force =    -0.00001143    0.00001374    0.00054380
     atom   26 type  2   force =    -0.00004409    0.00000793    0.00028962
     atom   27 type  1   force =    -0.00014784   -0.00012585    0.00117396
     atom   28 type  2   force =     0.00000535   -0.00006211    0.00054284
     atom   29 type  2   force =    -0.00001499   -0.00008429    0.00028473
     atom   30 type  1   force =     0.00005542   -0.00001252    0.00114805
     atom   31 type  2   force =     0.00005418   -0.00001282    0.00059800
     atom   32 type  2   force =     0.00002093   -0.00001413    0.00024401
     atom   33 type  1   force =    -0.00002102    0.00023842    0.00114377
     atom   34 type  2   force =     0.00002855    0.00008065    0.00058189
     atom   35 type  2   force =     0.00001406    0.00010500    0.00023391
     atom   36 type  3   force =    -0.00000153   -0.00000229    0.00007246

     Total force =     0.108272     Total SCF correction =     0.004789

     BFGS Geometry Optimization
     Energy error            =      0.0E+00 Ry
     Gradient error          =      4.3E-02 Ry/Bohr

     number of scf cycles    =   1
     number of bfgs steps    =   0

     energy             new  =   -2205.4889380543 Ry

     new trust radius        =       0.0435294214 bohr
     new conv_thr            =       0.0000010000 Ry


ATOMIC_POSITIONS (angstrom)
Mo            6.5818134057        1.7741416718        2.8265620036
S             8.1689557241        0.8186694732        4.4345439008
S             8.1873477873        0.8160319170        1.2767127910
Mo            8.0961576580        4.4959029760        2.7185983277
S             6.5005588566        3.7155316923        4.3424901739
S             6.5538410803        3.5177376738        1.1210440158
Mo            6.4908627376        7.2131363090        2.6763380157
S             8.0844524462        6.3429340141        4.2506800898
S             8.0875655263        6.3076735110        1.0896516978
Mo            8.1540327004        9.9065226944        2.8294135595
S             6.4992123925        8.9440245965        4.3789064116
S             6.6173703745        9.0483531560        1.1429884262
Mo            3.4245184098        1.7497987181        2.7734091249
S             4.9796370756        0.8172446770        4.3570689269
S             5.0512714171        0.8487037993        1.2213126001
Mo            4.9809720174        4.5196886216        2.6476294868
S             3.4303974170        3.6695506441        4.2797357588
S             3.4364953219        3.5451449646        1.0654329234
Mo            3.4540621799        7.2165942462        2.6253408274
S             4.9846172025        6.3246634060        1.0377370367
Mo            5.0094651095        9.9030484337        2.7437538145
S             3.4688263701        8.9433939495        4.3239502866
S             3.4076653923        9.0656358068        1.1016931013
Mo            0.2904441755        1.7461054136        2.8376356885
S             1.8591569064        0.8024245769        4.4017872482
S             1.8549259952        0.8541269436        1.2077020553
Mo            1.8609327273        4.4945464860        2.6640274665
S             0.2725939280        3.6540374936        4.3348899656
S             0.2328730368        3.5271636535        1.1704918808
Mo            0.2697744436        7.2201088802        2.6989718183
S             1.9017958060        6.3138639659        4.2305999355
S             1.8571170226        6.3140802808        1.0490206827
Mo            1.8516438548        9.9366003080        2.7676092634
S             0.2974815350        9.0675045825        4.4091583823
S             0.2725211729        9.0479465105        1.1581921444
H             5.2547433609        6.0699214744        5.3312429871



     Writing config-only to output data dir ./MoS2-V-O.save/
     NEW-OLD atomic charge density approx. for the potential

     negative rho (up, down):  1.405E-04 0.000E+00

     total cpu time spent up to now is       94.6 secs

     Self-consistent Calculation

     iteration #  1     ecut=    80.00 Ry     beta= 0.70
     Davidson diagonalization with overlap
     ethr =  1.00E-06,  avg # of iterations =  8.0

     negative rho (up, down):  1.096E-04 0.000E+00

     total cpu time spent up to now is      110.4 secs

     total energy              =   -2205.49873678 Ry
     estimated scf accuracy    <       0.00082679 Ry

     iteration #  2     ecut=    80.00 Ry     beta= 0.70
     Davidson diagonalization with overlap
     ethr =  2.69E-07,  avg # of iterations =  2.0

     negative rho (up, down):  1.192E-04 0.000E+00

     total cpu time spent up to now is      127.9 secs

     total energy              =   -2205.49880333 Ry
     estimated scf accuracy    <       0.00034619 Ry

     iteration #  3     ecut=    80.00 Ry     beta= 0.70
     Davidson diagonalization with overlap
     ethr =  1.13E-07,  avg # of iterations =  5.0

     negative rho (up, down):  1.048E-04 0.000E+00

     total cpu time spent up to now is      143.7 secs

     total energy              =   -2205.49882604 Ry
     estimated scf accuracy    <       0.00009909 Ry

     iteration #  4     ecut=    80.00 Ry     beta= 0.70
     Davidson diagonalization with overlap
     ethr =  3.23E-08,  avg # of iterations =  5.0

     negative rho (up, down):  1.054E-04 0.000E+00

     total cpu time spent up to now is      158.0 secs

     total energy              =   -2205.49884518 Ry
     estimated scf accuracy    <       0.00002058 Ry

     iteration #  5     ecut=    80.00 Ry     beta= 0.70
     Davidson diagonalization with overlap
     ethr =  6.70E-09,  avg # of iterations =  5.0

     negative rho (up, down):  1.056E-04 0.000E+00

     total cpu time spent up to now is      169.5 secs

     total energy              =   -2205.49884946 Ry
     estimated scf accuracy    <       0.00000207 Ry

     iteration #  6     ecut=    80.00 Ry     beta= 0.70
     Davidson diagonalization with overlap
     ethr =  6.74E-10,  avg # of iterations =  4.0

     negative rho (up, down):  1.369E-04 0.000E+00

     total cpu time spent up to now is      172.1 secs

     End of self-consistent calculation

          k = 0.0000 0.0000 0.0000 (105382 PWs)   bands (ev):

   -62.9858 -62.9643 -62.9635 -62.9597 -62.9477 -62.9293 -62.9139 -62.9108
   -62.9053 -62.8895 -62.8710 -62.8219 -37.3310 -37.2800 -37.2421 -37.2302
   -37.2161 -37.2058 -37.1907 -37.1745 -37.1661 -37.1533 -37.1481 -37.1393
   -37.1362 -37.1273 -37.1167 -37.1136 -37.1094 -37.0964 -37.0918 -37.0884
   -37.0849 -37.0759 -37.0712 -37.0368 -37.0242 -37.0159 -37.0051 -37.0007
   -36.9966 -36.9800 -36.9678 -36.9502 -36.9332 -36.9057 -36.8926 -36.8110
   -16.0492 -15.2686 -15.2033 -15.0431 -14.9786 -14.8741 -14.5812 -14.5434
   -14.5150 -14.4957 -14.4670 -14.4065 -14.4041 -14.3553 -14.2104 -14.2028
   -14.1856 -14.1757 -14.0964 -13.9425 -13.9371 -13.9171 -13.8573  -7.7287
    -7.5652  -7.3783  -7.3594  -7.3284  -7.2863  -7.2696  -7.2118  -6.9166
    -6.8948  -6.8449  -6.8161  -6.7485  -6.5858  -6.5683  -6.5085  -6.4711
    -6.3544  -6.3109  -6.0500  -5.9824  -5.9757  -5.9398  -5.8866  -5.8349
    -5.8167  -5.7854  -5.7381  -5.7354  -5.6958  -5.6152  -5.5930  -5.5235
    -5.4731  -5.4302  -5.2265  -5.1924  -5.1116  -5.0817  -5.0584  -5.0085
    -4.9911  -4.9139  -4.7280  -4.5965  -4.4052  -4.3954  -4.3500  -4.3059
    -4.2688  -4.1277  -4.0607  -3.9153  -3.8763  -3.8302  -3.7894  -3.7499
    -3.7118  -3.6247  -3.6067  -3.5830  -3.5506  -3.5457  -3.5129  -3.4589
    -3.4360  -3.2649  -3.1852  -3.0336  -2.9539  -2.8904  -2.8504  -2.8153
    -2.7856  -2.7455  -2.7319  -2.7168  -2.6576  -2.6162  -2.2088  -2.0830
    -2.0594  -1.1050  -0.9111  -0.7931  -0.2597  -0.2264  -0.1814  -0.1293
    -0.0204   0.0404   0.0720   0.1464   0.1756   0.2096   0.2408   0.3218
     0.3808   0.4502   0.4546   0.4806   0.5191   0.5794   0.6414   0.6472
     0.6913   0.7045   0.7439   0.7876   0.8438   0.8995   0.9146   0.9513
     1.3516

     the Fermi energy is    -1.1098 ev

!    total energy              =   -2205.49884961 Ry
     estimated scf accuracy    <       0.00000057 Ry
     smearing contrib. (-TS)   =      -0.00632869 Ry
     internal energy E=F+TS    =   -2205.49252092 Ry

     The total energy is F=E-TS. E is the sum of the following terms:
     one-electron contribution =  -18043.45135674 Ry
     hartree contribution      =    9007.62006644 Ry
     xc contribution           =    -385.10222022 Ry
     ewald contribution        =    7215.44098960 Ry

     convergence has been achieved in   6 iterations

     negative rho (up, down):  1.369E-04 0.000E+00

     Forces acting on atoms (cartesian axes, Ry/au):

     atom    1 type  1   force =     0.00351992   -0.01337216   -0.00069168
     atom    2 type  2   force =    -0.00885784    0.01040520   -0.00185077
     atom    3 type  2   force =    -0.01024274    0.00707482   -0.00844584
     atom    4 type  1   force =     0.00363601    0.00134848    0.00136934
     atom    5 type  2   force =     0.00375668   -0.01357471   -0.00474175
     atom    6 type  2   force =    -0.00088537    0.00874322    0.00452686
     atom    7 type  1   force =     0.00123588   -0.00714558    0.00842509
     atom    8 type  2   force =     0.00503106   -0.00227705    0.01228238
     atom    9 type  2   force =     0.00970244    0.00473335    0.00869475
     atom   10 type  1   force =    -0.00465334    0.00672035   -0.00959053
     atom   11 type  2   force =     0.00638316    0.00250700   -0.00791592
     atom   12 type  2   force =    -0.00369461   -0.00228326    0.00289453
     atom   13 type  1   force =     0.00444353    0.00276729   -0.00225347
     atom   14 type  2   force =     0.00614650   -0.00005431    0.00870651
     atom   15 type  2   force =    -0.00873755    0.00328520   -0.00769301
     atom   16 type  1   force =     0.00242502    0.00989394    0.01965076
     atom   17 type  2   force =     0.00310460   -0.00383513    0.00277401
     atom   18 type  2   force =    -0.00013034   -0.00194640    0.01324424
     atom   19 type  1   force =    -0.00104357    0.00059666   -0.00459114
     atom   20 type  2   force =     0.00306770   -0.00434959    0.00155471
     atom   21 type  1   force =    -0.00378065    0.00206030    0.00209303
     atom   22 type  2   force =    -0.00255259   -0.00118436   -0.00295438
     atom   23 type  2   force =    -0.00013004    0.00106272    0.00474948
     atom   24 type  1   force =    -0.00623737   -0.00190127   -0.00958164
     atom   25 type  2   force =     0.01103879    0.01386013   -0.00039054
     atom   26 type  2   force =    -0.00714480   -0.00081236   -0.00389569
     atom   27 type  1   force =    -0.00021491   -0.00081424    0.00626044
     atom   28 type  2   force =     0.00013468   -0.00226151   -0.00526600
     atom   29 type  2   force =     0.00236663    0.00178592   -0.00332953
     atom   30 type  1   force =    -0.00146090    0.00077176    0.00175447
     atom   31 type  2   force =    -0.00038814    0.00193329    0.00996002
     atom   32 type  2   force =    -0.00848336    0.00505391    0.00627583
     atom   33 type  1   force =     0.00630235   -0.00198289    0.00000881
     atom   34 type  2   force =     0.00033781   -0.03097736   -0.01360804
     atom   35 type  2   force =    -0.00608448    0.00814427    0.00800428
     atom   36 type  3   force =     0.00208985   -0.00397566   -0.03642960
     The non-local contrib.  to forces
     atom    1 type  1   force =     0.00309234    0.02758521   -0.00683107
     atom    2 type  2   force =    -0.00819243   -0.00305041   -0.27341669
     atom    3 type  2   force =    -0.01155542   -0.00403379    0.26354973
     atom    4 type  1   force =    -0.00036656    0.00699799    0.00323061
     atom    5 type  2   force =     0.00394413   -0.03139671   -0.26412507
     atom    6 type  2   force =    -0.00554840    0.00853906    0.26715790
     atom    7 type  1   force =    -0.01064002   -0.00073703   -0.02408652
     atom    8 type  2   force =     0.00160169   -0.00150286   -0.26297030
     atom    9 type  2   force =     0.00481702   -0.00864672    0.27650767
     atom   10 type  1   force =     0.00340887    0.00634120   -0.00142839
     atom   11 type  2   force =     0.01046189    0.01015981   -0.26523014
     atom   12 type  2   force =    -0.01273004   -0.01895907    0.26370848
     atom   13 type  1   force =    -0.00345694    0.01949623   -0.00661263
     atom   14 type  2   force =     0.00928382   -0.01105356   -0.26663919
     atom   15 type  2   force =    -0.01097810   -0.00791408    0.26164693
     atom   16 type  1   force =    -0.00314371    0.01145059   -0.04181768
     atom   17 type  2   force =    -0.00442080   -0.02748382   -0.25450692
     atom   18 type  2   force =     0.00271374   -0.00058554    0.27606227
     atom   19 type  1   force =     0.01225576   -0.00434521   -0.00948146
     atom   20 type  2   force =     0.00006737   -0.02118073    0.26267508
     atom   21 type  1   force =     0.00119169    0.02520710    0.00672200
     atom   22 type  2   force =    -0.00648858    0.00711987   -0.26117288
     atom   23 type  2   force =     0.00604478   -0.01663985    0.26545058
     atom   24 type  1   force =     0.00433958    0.01239096   -0.01040176
     atom   25 type  2   force =     0.00699631    0.00139646   -0.26661760
     atom   26 type  2   force =     0.00059400   -0.01210981    0.26235582
     atom   27 type  1   force =    -0.00324095    0.00822762    0.00762652
     atom   28 type  2   force =    -0.00499575   -0.02074609   -0.27321131
     atom   29 type  2   force =     0.00597199    0.00335314    0.26323421
     atom   30 type  1   force =     0.00114934    0.01714772    0.00499514
     atom   31 type  2   force =    -0.01197822    0.00125282   -0.25798265
     atom   32 type  2   force =    -0.00209505   -0.00957764    0.27289691
     atom   33 type  1   force =    -0.00375232    0.00821917    0.00504478
     atom   34 type  2   force =    -0.00162230   -0.02858828   -0.27701503
     atom   35 type  2   force =    -0.00164480   -0.01295730    0.26749424
     atom   36 type  3   force =     0.00051293   -0.00061469   -0.00425508
     The ionic contribution  to forces
     atom    1 type  1   force =     0.15775265    0.41724847    5.65559640
     atom    2 type  2   force =    -0.42744832    0.26364018   39.36283397
     atom    3 type  2   force =    -0.14014159    0.03376079  -36.21308014
     atom    4 type  1   force =     0.26867365    0.39570982    0.50352362
     atom    5 type  2   force =    -0.76187108    1.13065062   38.56780628
     atom    6 type  2   force =     0.26656375   -0.55786512  -37.98750281
     atom    7 type  1   force =    -2.38191427   -2.43647202    2.24360394
     atom    8 type  2   force =    -0.68261967    0.06148914   37.38478622
     atom    9 type  2   force =     0.32718193   -0.05564761  -38.02596263
     atom   10 type  1   force =    -0.74530181   -0.24522522    5.26539841
     atom   11 type  2   force =    -0.42889448   -1.34158461   39.04067484
     atom   12 type  2   force =     0.37921955    0.64005032  -37.88002500
     atom   13 type  1   force =     0.37886894    0.81656703    2.69810454
     atom   14 type  2   force =    -0.02746766   -0.01758948   38.58161880
     atom   15 type  2   force =     0.16755679   -0.01967128  -36.87063660
     atom   16 type  1   force =    -0.08487580    3.47610601    0.52423554
     atom   17 type  2   force =     0.60014285    1.23244088   37.86939737
     atom   18 type  2   force =    -0.10681101   -0.60015520  -38.51712858
     atom   19 type  1   force =     2.40827653   -2.32065842   -0.00569335
     atom   20 type  2   force =     0.23357216   -0.24040794  -38.61645773
     atom   21 type  1   force =     0.02655188    0.22603115    1.15581337
     atom   22 type  2   force =     0.34376226   -1.52628690   38.40828806
     atom   23 type  2   force =    -0.06636951    0.68914183  -38.33713322
     atom   24 type  1   force =    -0.29743055    0.95204521    5.49753570
     atom   25 type  2   force =     0.50238300    0.21383318   39.22525548
     atom   26 type  2   force =    -0.24812079    0.06624620  -37.29861112
     atom   27 type  1   force =    -0.10482399    0.34352906   -2.19484264
     atom   28 type  2   force =     0.08087577    0.86360695   38.16793702
     atom   29 type  2   force =    -0.24227204   -0.37923933  -37.30386089
     atom   30 type  1   force =    -0.27364817   -0.91885774   -0.20002592
     atom   31 type  2   force =     1.05925222   -0.02769204   37.31192582
     atom   32 type  2   force =    -0.48247919   -0.07160397  -38.63659628
     atom   33 type  1   force =     0.50411847   -0.50000204    2.08711980
     atom   34 type  2   force =     0.20044603   -1.15676628   39.25232024
     atom   35 type  2   force =    -0.25848918    0.50199290  -37.75808372
     atom   36 type  3   force =    -0.14421929    0.09163545    7.04186523
     The local contribution  to forces
     atom    1 type  1   force =    -0.15744493   -0.45844667   -5.64883817
     atom    2 type  2   force =     0.42672387   -0.25043666  -39.11203985
     atom    3 type  2   force =     0.14094626   -0.02284104   35.96194154
     atom    4 type  1   force =    -0.26480532   -0.40135490   -0.50475244
     atom    5 type  2   force =     0.76233312   -1.11500715  -38.32954009
     atom    6 type  2   force =    -0.26245035    0.55902626   37.74623626
     atom    7 type  1   force =     2.39412296    2.43034735   -2.21051846
     atom    8 type  2   force =     0.68629623   -0.06252480  -37.13023809
     atom    9 type  2   force =    -0.32231836    0.06856744   37.77943457
     atom   10 type  1   force =     0.73754136    0.24564670   -5.27264424
     atom   11 type  2   force =     0.42557084    1.33490678  -38.80437981
     atom   12 type  2   force =    -0.37133734   -0.62483662   37.64035477
     atom   13 type  1   force =    -0.37063667   -0.83373412   -2.69325654
     atom   14 type  2   force =     0.02481430    0.02858490  -38.32698054
     atom   15 type  2   force =    -0.16602341    0.03038641   36.62208805
     atom   16 type  1   force =     0.09075572   -3.47804929   -0.46221975
     atom   17 type  2   force =    -0.59288825   -1.21055751  -37.63263898
     atom   18 type  2   force =     0.10438813    0.59923583   38.27579430
     atom   19 type  1   force =    -2.42159250    2.32587623    0.01119569
     atom   20 type  2   force =    -0.23058112    0.25647527   38.37660638
     atom   21 type  1   force =    -0.03159799   -0.24898795   -1.16012846
     atom   22 type  2   force =    -0.34013909    1.51884907  -38.17068361
     atom   23 type  2   force =     0.06074086   -0.67256885   38.09746349
     atom   24 type  1   force =     0.28693869   -0.96717331   -5.49605989
     atom   25 type  2   force =    -0.49847844   -0.20127556  -38.97996040
     atom   26 type  2   force =     0.24067754   -0.05576886   37.05350048
     atom   27 type  1   force =     0.10767506   -0.35256016    2.19404172
     atom   28 type  2   force =    -0.07612469   -0.84677887  -37.92079971
     atom   29 type  2   force =     0.23918923    0.37826234   37.05805269
     atom   30 type  1   force =     0.27082166    0.90286547    0.19746976
     atom   31 type  2   force =    -1.04850175    0.02843849  -37.06452144
     atom   32 type  2   force =     0.47614229    0.08569386   38.39118551
     atom   33 type  1   force =    -0.49436720    0.49022679   -2.09150576
     atom   34 type  2   force =    -0.19899112    1.15388148  -39.01011346
     atom   35 type  2   force =     0.25414973   -0.48180796   37.51991643
     atom   36 type  3   force =     0.14580571   -0.09499259   -7.07404687
     The core correction contribution to forces
     atom    1 type  1   force =     0.00000000    0.00000000    0.00000000
     atom    2 type  2   force =     0.00029288   -0.00000925    0.02097970
     atom    3 type  2   force =     0.00051747    0.00009582   -0.02071651
     atom    4 type  1   force =     0.00000000    0.00000000    0.00000000
     atom    5 type  2   force =    -0.00060835    0.00196812    0.02106217
     atom    6 type  2   force =     0.00042391   -0.00102144   -0.02097007
     atom    7 type  1   force =     0.00000000    0.00000000    0.00000000
     atom    8 type  2   force =    -0.00014361    0.00038228    0.02094061
     atom    9 type  2   force =    -0.00001305    0.00049647   -0.02104016
     atom   10 type  1   force =     0.00000000    0.00000000    0.00000000
     atom   11 type  2   force =    -0.00050745   -0.00083444    0.02101459
     atom   12 type  2   force =     0.00107014    0.00146624   -0.02087945
     atom   13 type  1   force =     0.00000000    0.00000000    0.00000000
     atom   14 type  2   force =    -0.00055340    0.00006589    0.02084398
     atom   15 type  2   force =     0.00064705    0.00047603   -0.02058014
     atom   16 type  1   force =     0.00000000    0.00000000    0.00000000
     atom   17 type  2   force =     0.00032748    0.00152113    0.02064181
     atom   18 type  2   force =    -0.00023190   -0.00054307   -0.02116051
     atom   19 type  1   force =     0.00000000    0.00000000    0.00000000
     atom   20 type  2   force =     0.00013241    0.00076529   -0.02115033
     atom   21 type  1   force =     0.00000000    0.00000000    0.00000000
     atom   22 type  2   force =     0.00018929   -0.00074122    0.02075490
     atom   23 type  2   force =    -0.00047782    0.00132855   -0.02086700
     atom   24 type  1   force =     0.00000000    0.00000000    0.00000000
     atom   25 type  2   force =    -0.00005362   -0.00027139    0.02089402
     atom   26 type  2   force =    -0.00027738    0.00064895   -0.02078985
     atom   27 type  1   force =     0.00000000    0.00000000    0.00000000
     atom   28 type  2   force =     0.00031906    0.00150462    0.02092158
     atom   29 type  2   force =    -0.00051683   -0.00058818   -0.02057387
     atom   30 type  1   force =     0.00000000    0.00000000    0.00000000
     atom   31 type  2   force =     0.00073037    0.00007772    0.02074795
     atom   32 type  2   force =    -0.00015692    0.00055383   -0.02099748
     atom   33 type  1   force =     0.00000000    0.00000000    0.00000000
     atom   34 type  2   force =     0.00035822    0.00088068    0.02124482
     atom   35 type  2   force =    -0.00007105    0.00109515   -0.02098462
     atom   36 type  3   force =     0.00000000    0.00000000    0.00000000
     The Hubbard contrib.    to forces
     atom    1 type  1   force =     0.00000000    0.00000000    0.00000000
     atom    2 type  2   force =     0.00000000    0.00000000    0.00000000
     atom    3 type  2   force =     0.00000000    0.00000000    0.00000000
     atom    4 type  1   force =     0.00000000    0.00000000    0.00000000
     atom    5 type  2   force =     0.00000000    0.00000000    0.00000000
     atom    6 type  2   force =     0.00000000    0.00000000    0.00000000
     atom    7 type  1   force =     0.00000000    0.00000000    0.00000000
     atom    8 type  2   force =     0.00000000    0.00000000    0.00000000
     atom    9 type  2   force =     0.00000000    0.00000000    0.00000000
     atom   10 type  1   force =     0.00000000    0.00000000    0.00000000
     atom   11 type  2   force =     0.00000000    0.00000000    0.00000000
     atom   12 type  2   force =     0.00000000    0.00000000    0.00000000
     atom   13 type  1   force =     0.00000000    0.00000000    0.00000000
     atom   14 type  2   force =     0.00000000    0.00000000    0.00000000
     atom   15 type  2   force =     0.00000000    0.00000000    0.00000000
     atom   16 type  1   force =     0.00000000    0.00000000    0.00000000
     atom   17 type  2   force =     0.00000000    0.00000000    0.00000000
     atom   18 type  2   force =     0.00000000    0.00000000    0.00000000
     atom   19 type  1   force =     0.00000000    0.00000000    0.00000000
     atom   20 type  2   force =     0.00000000    0.00000000    0.00000000
     atom   21 type  1   force =     0.00000000    0.00000000    0.00000000
     atom   22 type  2   force =     0.00000000    0.00000000    0.00000000
     atom   23 type  2   force =     0.00000000    0.00000000    0.00000000
     atom   24 type  1   force =     0.00000000    0.00000000    0.00000000
     atom   25 type  2   force =     0.00000000    0.00000000    0.00000000
     atom   26 type  2   force =     0.00000000    0.00000000    0.00000000
     atom   27 type  1   force =     0.00000000    0.00000000    0.00000000
     atom   28 type  2   force =     0.00000000    0.00000000    0.00000000
     atom   29 type  2   force =     0.00000000    0.00000000    0.00000000
     atom   30 type  1   force =     0.00000000    0.00000000    0.00000000
     atom   31 type  2   force =     0.00000000    0.00000000    0.00000000
     atom   32 type  2   force =     0.00000000    0.00000000    0.00000000
     atom   33 type  1   force =     0.00000000    0.00000000    0.00000000
     atom   34 type  2   force =     0.00000000    0.00000000    0.00000000
     atom   35 type  2   force =     0.00000000    0.00000000    0.00000000
     atom   36 type  3   force =     0.00000000    0.00000000    0.00000000
     The SCF correction term to forces
     atom    1 type  1   force =     0.00012126    0.00023880   -0.00061232
     atom    2 type  2   force =    -0.00023245    0.00025932   -0.00020137
     atom    3 type  2   force =    -0.00000808    0.00009102   -0.00013393
     atom    4 type  1   force =     0.00013562   -0.00000644   -0.00062593
     atom    5 type  2   force =    -0.00003975    0.00020839    0.00006149
     atom    6 type  2   force =     0.00012711    0.00006244   -0.00038789
     atom    7 type  1   force =    -0.00033140   -0.00028590   -0.00056733
     atom    8 type  2   force =    -0.00010220   -0.00012282   -0.00022953
     atom    9 type  2   force =     0.00003628   -0.00003825   -0.00023817
     atom   10 type  1   force =    -0.00030036   -0.00004435   -0.00090978
     atom   11 type  2   force =    -0.00024626   -0.00014255    0.00001113
     atom   12 type  2   force =     0.00008448   -0.00000616   -0.00025774
     atom   13 type  1   force =    -0.00033041    0.00043613   -0.00048231
     atom   14 type  2   force =     0.00007083   -0.00006407   -0.00013001
     atom   15 type  2   force =     0.00006152    0.00000609   -0.00020472
     atom   16 type  1   force =    -0.00030979    0.00038461   -0.00054082
     atom   17 type  2   force =    -0.00005529    0.00024218   -0.00011275
     atom   18 type  2   force =    -0.00018791    0.00009957   -0.00031671
     atom   19 type  1   force =     0.00001803   -0.00027797   -0.00060550
     atom   20 type  2   force =    -0.00012172   -0.00000350   -0.00011216
     atom   21 type  1   force =     0.00007517   -0.00019202   -0.00030735
     atom   22 type  2   force =     0.00012492   -0.00012721   -0.00013432
     atom   23 type  2   force =    -0.00006696   -0.00020099   -0.00015784
     atom   24 type  1   force =    -0.00008369    0.00083385   -0.00064917
     atom   25 type  2   force =     0.00019292    0.00017542    0.00004450
     atom   26 type  2   force =    -0.00001677    0.00016913   -0.00034450
     atom   27 type  1   force =     0.00017636   -0.00001278   -0.00055862
     atom   28 type  2   force =     0.00006167    0.00014987   -0.00010704
     atom   29 type  2   force =    -0.00000433   -0.00000407   -0.00017513
     atom   30 type  1   force =     0.00021767   -0.00038571   -0.00067798
     atom   31 type  2   force =     0.00011063   -0.00014572   -0.00020313
     atom   32 type  2   force =     0.00010691   -0.00001419   -0.00020629
     atom   33 type  1   force =     0.00030480   -0.00042883   -0.00064347
     atom   34 type  2   force =     0.00014837   -0.00038699   -0.00003806
     atom   35 type  2   force =    -0.00002779   -0.00018053   -0.00033153
     atom   36 type  3   force =    -0.00000811   -0.00000585    0.00001365

     Total force =     0.080022     Total SCF correction =     0.002937
     Energy error            =      9.9E-03 Ry
     Gradient error          =      3.6E-02 Ry/Bohr

     number of scf cycles    =   2
     number of bfgs steps    =   1

     energy             old  =   -2205.4889380543 Ry
     energy             new  =   -2205.4988496126 Ry

     CASE: energy            _new < energy            _old

     new trust radius        =       0.0478823635 bohr
     new conv_thr            =       0.0000000364 Ry


ATOMIC_POSITIONS (angstrom)
Mo            6.5855836897        1.7632086437        2.8268785955
S             8.1620293574        0.8267710957        4.4334921821
S             8.1800879658        0.8212227989        1.2716224067
Mo            8.0984685957        4.4968760748        2.7195672127
S             6.5028544031        3.7061340741        4.3387775484
S             6.5534568399        3.5241722219        1.1235622755
Mo            6.4917802849        7.2077808954        2.6822152838
S             8.0879779482        6.3414104447        4.2596680884
S             8.0947034487        6.3110895854        1.0960072308
Mo            8.1497826261        9.9114029169        2.8205388981
S             6.5038283829        8.9457181295        4.3733807483
S             6.6151278535        9.0469668976        1.1453849787
Mo            3.4277422242        1.7520649083        2.7713819712
S             4.9842222419        0.8172876073        4.3636129173
S             5.0447033167        0.8511670731        1.2156347832
Mo            4.9826475036        4.5269021111        2.6623978059
S             3.4327856807        3.6668699953        4.2813205042
S             3.4360744129        3.5432872527        1.0746915206
Mo            3.4535171643        7.2169993529        2.6214303290
S             4.9866991590        6.3216365518        1.0387392304
Mo            5.0066330498        9.9045730915        2.7450305689
S             3.4668553458        8.9426331325        4.3218700400
S             3.4074055816        9.0663976044        1.1057639446
Mo            0.2855215068        1.7446820101        2.8293108523
S             1.8675531604        0.8126781610        4.4024354759
S             1.8494316065        0.8535919808        1.2050721589
Mo            1.8608691790        4.4938106452        2.6685213984
S             0.2727630254        3.6526628158        4.3312382226
S             0.2346190608        3.5281590032        1.1682261611
Mo            0.2686080286        7.2213904591        2.6993072241
S             1.9014673156        6.3152231160        4.2382512828
S             1.8510441663        6.3178649347        1.0536769629
Mo            1.8570051367        9.9346111098        2.7663158510
S             0.2980553760        9.0444064940        4.4002694214
S             0.2680251479        9.0536560319        1.1646420301
H             5.2561727814        6.0672483005        5.3060867136



     Writing config-only to output data dir ./MoS2-V-O.save/
     NEW-OLD atomic charge density approx. for the potential

     negative rho (up, down):  1.416E-04 0.000E+00

     total cpu time spent up to now is      175.7 secs

     Self-consistent Calculation

     iteration #  1     ecut=    80.00 Ry     beta= 0.70
     Davidson diagonalization with overlap
     ethr =  1.00E-06,  avg # of iterations =  7.0

     negative rho (up, down):  8.984E-05 0.000E+00

     total cpu time spent up to now is      195.9 secs

     total energy              =   -2205.50640365 Ry
     estimated scf accuracy    <       0.00112790 Ry

     iteration #  2     ecut=    80.00 Ry     beta= 0.70
     Davidson diagonalization with overlap
     ethr =  3.67E-07,  avg # of iterations =  3.0

     negative rho (up, down):  1.005E-04 0.000E+00

     total cpu time spent up to now is      206.5 secs

     total energy              =   -2205.50651147 Ry
     estimated scf accuracy    <       0.00072671 Ry

     iteration #  3     ecut=    80.00 Ry     beta= 0.70
     Davidson diagonalization with overlap
     ethr =  2.37E-07,  avg # of iterations =  2.0

     negative rho (up, down):  9.006E-05 0.000E+00

     total cpu time spent up to now is      223.7 secs

     total energy              =   -2205.50657337 Ry
     estimated scf accuracy    <       0.00007854 Ry

     iteration #  4     ecut=    80.00 Ry     beta= 0.70
     Davidson diagonalization with overlap
     c_bands:  1 eigenvalues not converged
     ethr =  2.56E-08,  avg # of iterations = 20.0

     negative rho (up, down):  8.777E-05 0.000E+00

     total cpu time spent up to now is      237.0 secs

     total energy              =   -2205.50659119 Ry
     estimated scf accuracy    <       0.00000900 Ry

     iteration #  5     ecut=    80.00 Ry     beta= 0.70
     Davidson diagonalization with overlap
     ethr =  2.93E-09,  avg # of iterations = 12.0

     negative rho (up, down):  8.677E-05 0.000E+00

     total cpu time spent up to now is      255.7 secs

     total energy              =   -2205.50659375 Ry
     estimated scf accuracy    <       0.00000265 Ry

     iteration #  6     ecut=    80.00 Ry     beta= 0.70
     Davidson diagonalization with overlap
     ethr =  8.62E-10,  avg # of iterations =  2.0

     negative rho (up, down):  8.816E-05 0.000E+00

     total cpu time spent up to now is      270.2 secs

     total energy              =   -2205.50659384 Ry
     estimated scf accuracy    <       0.00000062 Ry

     iteration #  7     ecut=    80.00 Ry     beta= 0.70
     Davidson diagonalization with overlap
     ethr =  2.03E-10,  avg # of iterations =  4.0

     negative rho (up, down):  9.178E-05 0.000E+00

     total cpu time spent up to now is      278.0 secs

     total energy              =   -2205.50659394 Ry
     estimated scf accuracy    <       0.00000023 Ry

     iteration #  8     ecut=    80.00 Ry     beta= 0.70
     Davidson diagonalization with overlap
     ethr =  7.63E-11,  avg # of iterations =  5.0

     negative rho (up, down):  1.067E-04 0.000E+00

     total cpu time spent up to now is      289.6 secs

     total energy              =   -2205.50659388 Ry
     estimated scf accuracy    <       0.00000013 Ry

     iteration #  9     ecut=    80.00 Ry     beta= 0.70
     Davidson diagonalization with overlap
     ethr =  4.24E-11,  avg # of iterations =  5.0

     negative rho (up, down):  1.374E-04 0.000E+00

     total cpu time spent up to now is      291.9 secs

     End of self-consistent calculation

          k = 0.0000 0.0000 0.0000 (105382 PWs)   bands (ev):

   -62.9871 -62.9645 -62.9620 -62.9567 -62.9455 -62.9264 -62.9132 -62.9082
   -62.9001 -62.8849 -62.8648 -62.8040 -37.3290 -37.2759 -37.2394 -37.2250
   -37.2106 -37.2053 -37.1888 -37.1727 -37.1645 -37.1487 -37.1431 -37.1375
   -37.1340 -37.1255 -37.1146 -37.1115 -37.1070 -37.0948 -37.0898 -37.0860
   -37.0822 -37.0718 -37.0671 -37.0349 -37.0198 -37.0137 -37.0020 -36.9952
   -36.9903 -36.9664 -36.9648 -36.9453 -36.9298 -36.9016 -36.8892 -36.7998
   -16.0467 -15.2694 -15.1991 -15.0388 -14.9709 -14.8718 -14.5770 -14.5366
   -14.5028 -14.4967 -14.4731 -14.4030 -14.3965 -14.3544 -14.2081 -14.1989
   -14.1874 -14.1737 -14.0925 -13.9407 -13.9324 -13.9167 -13.8556  -7.7252
    -7.5633  -7.3747  -7.3618  -7.3225  -7.2898  -7.2669  -7.2122  -6.9191
    -6.8899  -6.8439  -6.8135  -6.7402  -6.5819  -6.5700  -6.5060  -6.4645
    -6.3564  -6.3093  -6.0432  -5.9783  -5.9724  -5.9468  -5.8765  -5.8348
    -5.8208  -5.7778  -5.7321  -5.7283  -5.7009  -5.6190  -5.5864  -5.5207
    -5.4601  -5.4210  -5.2199  -5.1856  -5.1014  -5.0785  -5.0532  -5.0114
    -4.9978  -4.9184  -4.7238  -4.5918  -4.4081  -4.3847  -4.3450  -4.3012
    -4.2748  -4.1303  -4.0573  -3.9141  -3.8759  -3.8241  -3.7759  -3.7436
    -3.7161  -3.6236  -3.5960  -3.5884  -3.5540  -3.5477  -3.5074  -3.4539
    -3.4328  -3.2648  -3.1868  -3.0333  -2.9557  -2.8846  -2.8525  -2.8154
    -2.7809  -2.7493  -2.7362  -2.7128  -2.6535  -2.6271  -2.2101  -2.0875
    -2.0561  -1.1017  -0.8927  -0.7838  -0.2544  -0.2285  -0.1723  -0.1239
     0.0005   0.0387   0.0694   0.1487   0.1901   0.2278   0.2442   0.3249
     0.3854   0.4572   0.4607   0.4849   0.5319   0.5810   0.6294   0.6577
     0.6920   0.7022   0.7568   0.7958   0.8452   0.9107   0.9160   0.9453
     1.3413

     the Fermi energy is    -1.1051 ev

!    total energy              =   -2205.50659379 Ry
     estimated scf accuracy    <       0.00000003 Ry
     smearing contrib. (-TS)   =      -0.00615260 Ry
     internal energy E=F+TS    =   -2205.50044119 Ry

     The total energy is F=E-TS. E is the sum of the following terms:
     one-electron contribution =  -18047.42054668 Ry
     hartree contribution      =    9009.63777960 Ry
     xc contribution           =    -385.11307392 Ry
     ewald contribution        =    7217.39539981 Ry

     convergence has been achieved in   9 iterations

     negative rho (up, down):  1.374E-04 0.000E+00

     Forces acting on atoms (cartesian axes, Ry/au):

     atom    1 type  1   force =    -0.00351192   -0.00404566   -0.00482591
     atom    2 type  2   force =    -0.00425746    0.00524790   -0.00237939
     atom    3 type  2   force =    -0.00837453    0.00491305   -0.01108543
     atom    4 type  1   force =     0.00448175    0.00079253    0.00130458
     atom    5 type  2   force =     0.00570946   -0.01302836   -0.00183332
     atom    6 type  2   force =    -0.00217784    0.00695149    0.00730882
     atom    7 type  1   force =     0.00100143   -0.00465430    0.00803503
     atom    8 type  2   force =     0.00439791   -0.00306156    0.00971398
     atom    9 type  2   force =     0.00654388    0.00373145    0.00677558
     atom   10 type  1   force =    -0.00056299    0.00530178   -0.00065423
     atom   11 type  2   force =     0.00503109    0.00281996   -0.00622377
     atom   12 type  2   force =    -0.00495018   -0.00319221    0.00177076
     atom   13 type  1   force =     0.00311926    0.00055443   -0.00002371
     atom   14 type  2   force =     0.00397929   -0.00053046    0.00546774
     atom   15 type  2   force =    -0.00589982    0.00154788   -0.00556476
     atom   16 type  1   force =     0.00240358    0.00726354    0.01405679
     atom   17 type  2   force =     0.00162997   -0.00343001    0.00498787
     atom   18 type  2   force =     0.00182544    0.00151314    0.01222731
     atom   19 type  1   force =    -0.00190924    0.00081215   -0.00124875
     atom   20 type  2   force =     0.00299696   -0.00374297    0.00263311
     atom   21 type  1   force =    -0.00223830    0.00172956    0.00179266
     atom   22 type  2   force =    -0.00123435   -0.00138288   -0.00169584
     atom   23 type  2   force =     0.00037609    0.00107770    0.00099378
     atom   24 type  1   force =    -0.00346233   -0.00068983   -0.00298379
     atom   25 type  2   force =     0.00637029    0.00964101   -0.00390498
     atom   26 type  2   force =    -0.00357492   -0.00083128   -0.00306189
     atom   27 type  1   force =    -0.00064458    0.00016628    0.00507688
     atom   28 type  2   force =    -0.00016011   -0.00319116   -0.00414337
     atom   29 type  2   force =     0.00193648    0.00283682   -0.00293130
     atom   30 type  1   force =    -0.00052215   -0.00256397    0.00442622
     atom   31 type  2   force =     0.00026894    0.00117885    0.00610888
     atom   32 type  2   force =    -0.00685360    0.00305547    0.00459676
     atom   33 type  1   force =     0.00102788    0.00105656    0.00391812
     atom   34 type  2   force =    -0.00118404   -0.01997252   -0.01321166
     atom   35 type  2   force =    -0.00392326    0.00681328    0.00377805
     atom   36 type  3   force =     0.00234193   -0.00468765   -0.03920081
     The non-local contrib.  to forces
     atom    1 type  1   force =     0.00451384    0.02433276   -0.00636784
     atom    2 type  2   force =    -0.00469840   -0.00694396   -0.27218767
     atom    3 type  2   force =    -0.00910632   -0.00610017    0.25999910
     atom    4 type  1   force =     0.00018204    0.00807443    0.00305731
     atom    5 type  2   force =     0.00439655   -0.03074642   -0.26391573
     atom    6 type  2   force =    -0.00622775    0.00577572    0.26984223
     atom    7 type  1   force =    -0.01034479   -0.00077446   -0.02493403
     atom    8 type  2   force =     0.00092474   -0.00190086   -0.26423788
     atom    9 type  2   force =     0.00223756   -0.00953006    0.27501131
     atom   10 type  1   force =     0.00261801    0.00696071   -0.00139489
     atom   11 type  2   force =     0.00844374    0.00908961   -0.26458828
     atom   12 type  2   force =    -0.01300780   -0.01950947    0.26414441
     atom   13 type  1   force =    -0.00299734    0.02048105   -0.00642703
     atom   14 type  2   force =     0.00730640   -0.01121381   -0.26809887
     atom   15 type  2   force =    -0.00866657   -0.00969810    0.26241913
     atom   16 type  1   force =    -0.00409396    0.01299961   -0.04236199
     atom   17 type  2   force =    -0.00516351   -0.02565042   -0.25342390
     atom   18 type  2   force =     0.00453495    0.00129180    0.27607579
     atom   19 type  1   force =     0.01273198   -0.00352720   -0.00816650
     atom   20 type  2   force =    -0.00051819   -0.01914483    0.26243477
     atom   21 type  1   force =     0.00022812    0.02474846    0.00598775
     atom   22 type  2   force =    -0.00519201    0.00688728   -0.26031301
     atom   23 type  2   force =     0.00631854   -0.01692678    0.26290209
     atom   24 type  1   force =     0.00283241    0.01241181   -0.00934979
     atom   25 type  2   force =     0.00355189   -0.00227406   -0.26918039
     atom   26 type  2   force =     0.00335966   -0.01138378    0.26301616
     atom   27 type  1   force =    -0.00329284    0.00784905    0.00708467
     atom   28 type  2   force =    -0.00496598   -0.02031695   -0.27278833
     atom   29 type  2   force =     0.00515781    0.00293442    0.26429528
     atom   30 type  1   force =     0.00125323    0.01713364    0.00470857
     atom   31 type  2   force =    -0.01184976    0.00028398   -0.26037947
     atom   32 type  2   force =    -0.00016937   -0.01057667    0.27189634
     atom   33 type  1   force =    -0.00221090    0.00687083    0.00407664
     atom   34 type  2   force =    -0.00289039   -0.01976116   -0.27803768
     atom   35 type  2   force =    -0.00033680   -0.01414649    0.26563474
     atom   36 type  3   force =     0.00054156   -0.00068937   -0.00455343
     The ionic contribution  to forces
     atom    1 type  1   force =    -0.03749183    0.64318925    5.51875205
     atom    2 type  2   force =    -0.26729382    0.16708109   39.41455981
     atom    3 type  2   force =    -0.11478993    0.03962610  -36.36653721
     atom    4 type  1   force =     0.22306261    0.34764689    0.48342054
     atom    5 type  2   force =    -0.71985505    1.08831305   38.50912477
     atom    6 type  2   force =     0.18556471   -0.55412367  -37.90718464
     atom    7 type  1   force =    -2.41160749   -2.33585165    2.47302832
     atom    8 type  2   force =    -0.67898739    0.05634561   37.49760958
     atom    9 type  2   force =     0.27186420   -0.06184856  -38.00366930
     atom   10 type  1   force =    -0.55834962   -0.27492648    4.99075662
     atom   11 type  2   force =    -0.41116596   -1.31955879   38.98699653
[...]
     atom   27 type  1   force =    -0.00293285    0.00828235    0.00183508
     atom   28 type  2   force =     0.00015313   -0.01512228   -0.26964433
     atom   29 type  2   force =    -0.00028915   -0.00437667    0.26893885
     atom   30 type  1   force =     0.00009203    0.02217731   -0.00001367
     atom   31 type  2   force =    -0.00890952    0.00087487   -0.26524614
     atom   32 type  2   force =     0.00366507   -0.01127458    0.26642551
     atom   33 type  1   force =    -0.00134795    0.01000406   -0.00005170
     atom   34 type  2   force =     0.00032141   -0.00942191   -0.27158628
     atom   35 type  2   force =    -0.00055984   -0.01683892    0.26682221
     atom   36 type  3   force =    -0.00008974   -0.00005983   -0.01742510
     The ionic contribution  to forces
     atom    1 type  1   force =    -0.15280296    0.47662506    2.74724393
     atom    2 type  2   force =    -0.17666815    0.03157994   38.94106900
     atom    3 type  2   force =     0.05009590   -0.04284181  -37.41276571
     atom    4 type  1   force =    -0.32584277    0.30117910    0.59691444
     atom    5 type  2   force =    -0.70003500    1.14673625   38.51582197
     atom    6 type  2   force =     0.13415083   -0.30788825  -38.00658960
     atom    7 type  1   force =    -2.35722959   -1.52888528    1.03052969
     atom    8 type  2   force =    -1.15448773    0.07606905   38.39163828
     atom    9 type  2   force =     0.23482526   -0.03824982  -38.11807340
     atom   10 type  1   force =    -0.27563513   -0.24938125    2.89557140
     atom   11 type  2   force =    -0.53318966   -1.35644369   38.67602691
     atom   12 type  2   force =     0.09548473    0.32905085  -38.06677547
     atom   13 type  1   force =     0.16101299    0.39031436    3.06627093
     atom   14 type  2   force =     0.02216944   -0.12268782   38.66895885
     atom   15 type  2   force =    -0.00930341   -0.10496941  -37.38002365
     atom   16 type  1   force =     0.21674813    2.81071497    1.67391137
     atom   17 type  2   force =     0.74468043    1.10043468   38.63731511
     atom   18 type  2   force =    -0.14026743   -0.35175367  -38.03397145
     atom   19 type  1   force =     2.42847172   -1.22517353    1.72986693
     atom   20 type  2   force =     0.03079379    0.01862679  -38.61728929
     atom   21 type  1   force =    -0.06939963   -0.32463106    1.31246525
     atom   22 type  2   force =     0.55261313   -1.33929937   38.63926297
     atom   23 type  2   force =    -0.12483851    0.29669326  -37.87252572
     atom   24 type  1   force =    -0.01895190    0.30676234    2.70438427
     atom   25 type  2   force =     0.15197709    0.02605419   39.03988131
     atom   26 type  2   force =    -0.03340457   -0.06604029  -37.38668812
     atom   27 type  1   force =     0.12309961    0.25403952    0.59837485
     atom   28 type  2   force =    -0.03565794    0.45470711   38.30828841
     atom   29 type  2   force =    -0.00719394   -0.18357769  -37.65168848
     atom   30 type  1   force =     0.00335329   -0.35864047    2.08208596
     atom   31 type  2   force =     1.06521774    0.11487869   38.50192434
     atom   32 type  2   force =    -0.25957771    0.00269113  -38.12312170
     atom   33 type  1   force =     0.37852132   -0.29010647    3.21611429
     atom   34 type  2   force =    -0.03332403   -0.42728410   38.89102591
     atom   35 type  2   force =     0.01075962    0.19010131  -37.41931920
     atom   36 type  3   force =     0.00383503   -0.00940459    5.22388542
     The local contribution  to forces
     atom    1 type  1   force =     0.15157030   -0.49684429   -2.74196026
     atom    2 type  2   force =     0.17832721   -0.02016361  -38.69466043
     atom    3 type  2   force =    -0.04726550    0.05284797   37.16572463
     atom    4 type  1   force =     0.32211190   -0.30884928   -0.59800009
     atom    5 type  2   force =     0.69849261   -1.12887648  -38.28025373
     atom    6 type  2   force =    -0.13284747    0.31236934   37.76110052
     atom    7 type  1   force =     2.35547941    1.51299255   -1.02431612
     atom    8 type  2   force =     1.14532137   -0.07499757  -38.14807732
     atom    9 type  2   force =    -0.23104004    0.04832844   37.87319825
     atom   10 type  1   force =     0.27544869    0.23912792   -2.89586018
     atom   11 type  2   force =     0.52912473    1.35762524  -38.43731607
     atom   12 type  2   force =    -0.09192116   -0.31310254   37.82414020
     atom   13 type  1   force =    -0.15945306   -0.41021827   -3.06172715
     atom   14 type  2   force =    -0.02180103    0.13261335  -38.42070686
     atom   15 type  2   force =     0.00901169    0.11692685   37.13584865
     atom   16 type  1   force =    -0.21930199   -2.82136483   -1.65046691
     atom   17 type  2   force =    -0.74393093   -1.08154687  -38.40076936
     atom   18 type  2   force =     0.13984710    0.35691073   37.78878227
     atom   19 type  1   force =    -2.42753441    1.20891991   -1.71847810
     atom   20 type  2   force =    -0.03116484   -0.00581473   38.37506286
     atom   21 type  1   force =     0.06929848    0.30184454   -1.31636195
     atom   22 type  2   force =    -0.54824937    1.34218462  -38.40024114
     atom   23 type  2   force =     0.12014433   -0.28035238   37.62833814
     atom   24 type  1   force =     0.01940160   -0.32217370   -2.70293829
     atom   25 type  2   force =    -0.15397858   -0.01455422  -38.79502965
     atom   26 type  2   force =     0.03115266    0.07632675   37.14059473
     atom   27 type  1   force =    -0.12003029   -0.26253964   -0.59975083
     atom   28 type  2   force =     0.03544819   -0.44133671  -38.05979108
     atom   29 type  2   force =     0.00728574    0.18898545   37.40410610
     atom   30 type  1   force =    -0.00390013    0.33634052   -2.08179593
     atom   31 type  2   force =    -1.05694103   -0.11474670  -38.25856160
     atom   32 type  2   force =     0.25647518    0.00850912   37.87924715
     atom   33 type  1   force =    -0.37765457    0.28000542   -3.21643965
     atom   34 type  2   force =     0.03280598    0.43610214  -38.64109589
     atom   35 type  2   force =    -0.01050532   -0.17595247   37.17312427
     atom   36 type  3   force =    -0.00459960    0.00951550   -5.20591554
     The core correction contribution to forces
     atom    1 type  1   force =     0.00000000    0.00000000    0.00000000
     atom    2 type  2   force =     0.00003532    0.00051802    0.02087058
     atom    3 type  2   force =     0.00014060    0.00045146   -0.02090649
     atom    4 type  1   force =     0.00000000    0.00000000    0.00000000
     atom    5 type  2   force =    -0.00019535    0.00095915    0.02043745
     atom    6 type  2   force =     0.00019789   -0.00008476   -0.02092067
     atom    7 type  1   force =     0.00000000    0.00000000    0.00000000
     atom    8 type  2   force =    -0.00055055    0.00021342    0.02087075
     atom    9 type  2   force =     0.00056953    0.00046910   -0.02088762
     atom   10 type  1   force =     0.00000000    0.00000000    0.00000000
     atom   11 type  2   force =    -0.00017911   -0.00020183    0.02060356
     atom   12 type  2   force =     0.00038386    0.00116943   -0.02085890
     atom   13 type  1   force =     0.00000000    0.00000000    0.00000000
     atom   14 type  2   force =     0.00004578    0.00012068    0.02089115
     atom   15 type  2   force =    -0.00007159    0.00050484   -0.02073680
     atom   16 type  1   force =     0.00000000    0.00000000    0.00000000
     atom   17 type  2   force =     0.00019396    0.00101078    0.02048042
     atom   18 type  2   force =    -0.00018499   -0.00014496   -0.02090884
     atom   19 type  1   force =     0.00000000    0.00000000    0.00000000
     atom   20 type  2   force =     0.00000543    0.00058222   -0.02087758
     atom   21 type  1   force =     0.00000000    0.00000000    0.00000000
     atom   22 type  2   force =     0.00017546   -0.00011688    0.02056169
     atom   23 type  2   force =    -0.00050844    0.00108936   -0.02086022
     atom   24 type  1   force =     0.00000000    0.00000000    0.00000000
     atom   25 type  2   force =    -0.00011502    0.00048568    0.02087801
     atom   26 type  2   force =    -0.00013573    0.00038333   -0.02090479
     atom   27 type  1   force =     0.00000000    0.00000000    0.00000000
     atom   28 type  2   force =    -0.00000754    0.00095139    0.02094325
     atom   29 type  2   force =     0.00000749    0.00004559   -0.02086206
     atom   30 type  1   force =     0.00000000    0.00000000    0.00000000
     atom   31 type  2   force =     0.00043772    0.00018395    0.02088551
     atom   32 type  2   force =    -0.00049288    0.00054095   -0.02089259
     atom   33 type  1   force =     0.00000000    0.00000000    0.00000000
     atom   34 type  2   force =    -0.00006155    0.00035199    0.02107728
     atom   35 type  2   force =     0.00002298    0.00095877   -0.02087600
     atom   36 type  3   force =     0.00000000    0.00000000    0.00000000
     The Hubbard contrib.    to forces
     atom    1 type  1   force =     0.00000000    0.00000000    0.00000000
     atom    2 type  2   force =     0.00000000    0.00000000    0.00000000
     atom    3 type  2   force =     0.00000000    0.00000000    0.00000000
     atom    4 type  1   force =     0.00000000    0.00000000    0.00000000
     atom    5 type  2   force =     0.00000000    0.00000000    0.00000000
     atom    6 type  2   force =     0.00000000    0.00000000    0.00000000
     atom    7 type  1   force =     0.00000000    0.00000000    0.00000000
     atom    8 type  2   force =     0.00000000    0.00000000    0.00000000
     atom    9 type  2   force =     0.00000000    0.00000000    0.00000000
     atom   10 type  1   force =     0.00000000    0.00000000    0.00000000
     atom   11 type  2   force =     0.00000000    0.00000000    0.00000000
     atom   12 type  2   force =     0.00000000    0.00000000    0.00000000
     atom   13 type  1   force =     0.00000000    0.00000000    0.00000000
     atom   14 type  2   force =     0.00000000    0.00000000    0.00000000
     atom   15 type  2   force =     0.00000000    0.00000000    0.00000000
     atom   16 type  1   force =     0.00000000    0.00000000    0.00000000
     atom   17 type  2   force =     0.00000000    0.00000000    0.00000000
     atom   18 type  2   force =     0.00000000    0.00000000    0.00000000
     atom   19 type  1   force =     0.00000000    0.00000000    0.00000000
     atom   20 type  2   force =     0.00000000    0.00000000    0.00000000
     atom   21 type  1   force =     0.00000000    0.00000000    0.00000000
     atom   22 type  2   force =     0.00000000    0.00000000    0.00000000
     atom   23 type  2   force =     0.00000000    0.00000000    0.00000000
     atom   24 type  1   force =     0.00000000    0.00000000    0.00000000
     atom   25 type  2   force =     0.00000000    0.00000000    0.00000000
     atom   26 type  2   force =     0.00000000    0.00000000    0.00000000
     atom   27 type  1   force =     0.00000000    0.00000000    0.00000000
     atom   28 type  2   force =     0.00000000    0.00000000    0.00000000
     atom   29 type  2   force =     0.00000000    0.00000000    0.00000000
     atom   30 type  1   force =     0.00000000    0.00000000    0.00000000
     atom   31 type  2   force =     0.00000000    0.00000000    0.00000000
     atom   32 type  2   force =     0.00000000    0.00000000    0.00000000
     atom   33 type  1   force =     0.00000000    0.00000000    0.00000000
     atom   34 type  2   force =     0.00000000    0.00000000    0.00000000
     atom   35 type  2   force =     0.00000000    0.00000000    0.00000000
     atom   36 type  3   force =     0.00000000    0.00000000    0.00000000
     The SCF correction term to forces
     atom    1 type  1   force =     0.00000255    0.00006857   -0.00000731
     atom    2 type  2   force =    -0.00000110    0.00002824   -0.00000874
     atom    3 type  2   force =     0.00001041    0.00001492   -0.00000881
     atom    4 type  1   force =     0.00000949   -0.00005688    0.00001121
     atom    5 type  2   force =    -0.00001053    0.00001632   -0.00001426
     atom    6 type  2   force =    -0.00001016    0.00000674    0.00001570
     atom    7 type  1   force =    -0.00004283   -0.00007619    0.00000235
     atom    8 type  2   force =     0.00001478   -0.00004083    0.00001446
     atom    9 type  2   force =     0.00002939   -0.00003035   -0.00001756
     atom   10 type  1   force =     0.00003567    0.00005115   -0.00003656
     atom   11 type  2   force =    -0.00000420    0.00000859    0.00001544
     atom   12 type  2   force =    -0.00000284    0.00002177   -0.00003459
     atom   13 type  1   force =    -0.00001170    0.00007218   -0.00004862
     atom   14 type  2   force =     0.00000270    0.00002603   -0.00000975
     atom   15 type  2   force =    -0.00001069    0.00001608   -0.00000981
     atom   16 type  1   force =    -0.00004015   -0.00002155    0.00001719
     atom   17 type  2   force =     0.00001248    0.00002235   -0.00003161
     atom   18 type  2   force =     0.00000130    0.00001137    0.00002025
     atom   19 type  1   force =    -0.00003364   -0.00005852   -0.00002911
     atom   20 type  2   force =    -0.00003454   -0.00003484    0.00000673
     atom   21 type  1   force =    -0.00004986    0.00002827   -0.00004726
     atom   22 type  2   force =    -0.00000842   -0.00001569   -0.00001548
     atom   23 type  2   force =    -0.00001310   -0.00000407   -0.00001188
     atom   24 type  1   force =     0.00000530    0.00005666   -0.00003693
     atom   25 type  2   force =    -0.00000251    0.00001933   -0.00001036
     atom   26 type  2   force =    -0.00000037    0.00001460   -0.00001979
     atom   27 type  1   force =     0.00003272   -0.00001119   -0.00002283
     atom   28 type  2   force =    -0.00000233    0.00001029   -0.00001662
     atom   29 type  2   force =     0.00000937    0.00000201    0.00000262
     atom   30 type  1   force =     0.00005486   -0.00004936   -0.00001937
     atom   31 type  2   force =     0.00000648   -0.00002073   -0.00001568
     atom   32 type  2   force =     0.00000649   -0.00001368   -0.00000031
     atom   33 type  1   force =    -0.00000217    0.00000547   -0.00005962
     atom   34 type  2   force =     0.00001061   -0.00000741   -0.00000422
     atom   35 type  2   force =     0.00001621    0.00000176   -0.00002008
     atom   36 type  3   force =    -0.00000379   -0.00001475    0.00000107

     Total force =     0.006383     Total SCF correction =     0.000277
     Energy error            =      7.9E-05 Ry
     Gradient error          =      1.8E-03 Ry/Bohr

     bfgs converged in  32 scf cycles and  31 bfgs steps
     (criteria: energy <  1.0E-04 Ry, force <  1.0E-02 Ry/Bohr)

     End of BFGS Geometry Optimization

     Final energy             =   -2205.7084360464 Ry

     File ./MoS2-V-O.bfgs deleted, as requested
Begin final coordinates

ATOMIC_POSITIONS (angstrom)
Mo            6.5686257213        1.7574204645        2.8165998271
S             8.1381628614        0.8450002002        4.4211428814
S             8.1462507419        0.8412855389        1.2340163251
Mo            8.1355553689        4.4886524698        2.7649973473
S             6.5380452632        3.6488226042        4.3687996564
S             6.5697374566        3.5584415595        1.1661330219
Mo            6.5609876188        7.1950272094        2.7087646191
S             8.1016118828        6.3043225922        4.3558782404
S             8.1720720738        6.3130932924        1.1551463408
Mo            8.1411259188        9.9336761957        2.8205496955
S             6.5420272698        8.9579547416        4.3799032198
S             6.5965710465        9.0467572775        1.1710715845
Mo            3.4297557578        1.7539208897        2.8225014754
S             5.0019239865        0.8105011416        4.4001517474
S             4.9963391129        0.8395907196        1.2273533286
Mo            4.9947506408        4.5123948972        2.7212807684
S             3.4599895056        3.6461259648        4.3753928827
S             3.4335684642        3.5489850347        1.1693974519
Mo            3.4532193554        7.1760240781        2.7209108181
S             5.0048257919        6.3035000713        1.0883363322
Mo            5.0023586741        9.9006838690        2.7854547670
S             3.4630437944        8.9518070362        4.3811172354
S             3.4051782385        9.0344489824        1.1814383504
Mo            0.2731188574        1.7372179016        2.8252848422
S             1.8593004805        0.8409599366        4.4300676996
S             1.8541157410        0.8339615545        1.2363316846
Mo            1.8698623359        4.4865803200        2.7663713130
S             0.2722844951        3.6050998762        4.3712114000
S             0.2745212973        3.5459897768        1.1990890378
Mo            0.2781556691        7.2055245210        2.7913853635
S             1.9063620890        6.2976064751        4.3623975875
S             1.8462453210        6.3118363764        1.1569871044
Mo            1.8616008380        9.9310600219        2.8272144031
S             0.2719635238        9.0213965082        4.4113504554
S             0.2767995642        9.0535362463        1.2274679967
H             5.0260458094        6.3133511765        3.6848260154
End final coordinates



     Writing all to output data dir ./MoS2-V-O.save/
 
     init_run     :      2.38s CPU      2.66s WALL (       1 calls)
     electrons    :   2942.73s CPU   3288.58s WALL (      32 calls)
     update_pot   :     44.80s CPU     47.48s WALL (      31 calls)
     forces       :     44.74s CPU     52.13s WALL (      32 calls)

     Called by init_run:
     wfcinit      :      0.38s CPU      0.43s WALL (       1 calls)
     potinit      :      1.31s CPU      1.44s WALL (       1 calls)
     hinit0       :      0.17s CPU      0.18s WALL (       1 calls)

     Called by electrons:
     c_bands      :    383.44s CPU    389.48s WALL (     275 calls)
     sum_band     :     80.02s CPU    107.53s WALL (     275 calls)
     v_of_rho     :    132.49s CPU    162.44s WALL (     300 calls)
     newd         :     39.82s CPU     64.52s WALL (     300 calls)
     mix_rho      :   2321.21s CPU   2579.45s WALL (     275 calls)

     Called by c_bands:
     init_us_2    :      5.84s CPU      6.35s WALL (     551 calls)
     init_us_2:cp :      5.84s CPU      6.35s WALL (     551 calls)
     regterg      :    363.24s CPU    368.73s WALL (     275 calls)

     Called by *egterg:
     rdiaghg      :     28.95s CPU     29.28s WALL (    1617 calls)
     h_psi        :    192.94s CPU    194.68s WALL (    1656 calls)
     s_psi        :     23.61s CPU     23.70s WALL (    1656 calls)
     g_psi        :      2.30s CPU      2.32s WALL (    1380 calls)

     Called by h_psi:
     h_psi:calbec :     28.61s CPU     28.75s WALL (    1656 calls)
     vloc_psi     :    136.09s CPU    137.51s WALL (    1656 calls)
     add_vuspsi   :     23.59s CPU     23.74s WALL (    1656 calls)

     General routines
     calbec       :     40.08s CPU     40.27s WALL (    2059 calls)
     fft          :     84.52s CPU     98.95s WALL (   20162 calls)
     ffts         :   1044.01s CPU   1293.41s WALL (  568333 calls)
     fftw         :    115.49s CPU    116.52s WALL (  172475 calls)
     interpolate  :      2.17s CPU      2.56s WALL (     300 calls)
 
     Parallel routines
 
     PWSCF        :  50m40.40s CPU  56m40.60s WALL

 
   This run was terminated on:   5:26:15   4Nov2023            

=------------------------------------------------------------------------------=
   JOB DONE.
=------------------------------------------------------------------------------=
