
     Program PWSCF v.7.2 starts on  4Nov2023 at  7:19:33 

     This program is part of the open-source Quantum ESPRESSO suite
     for quantum simulation of materials; please cite
         "P. Giannozzi et al., J. Phys.:Condens. Matter 21 395502 (2009);
         "P. Giannozzi et al., J. Phys.:Condens. Matter 29 465901 (2017);
         "P. Giannozzi et al., J. Chem. Phys. 152 154105 (2020);
          URL http://www.quantum-espresso.org", 
     in publications or presentations arising from this work. More details at
     http://www.quantum-espresso.org/quote

     Parallel version (MPI & OpenMP), running on      48 processor cores
     Number of MPI processes:                48
     Threads/MPI process:                     1

     MPI processes distributed on     1 nodes
     13616 MiB available memory on the printing compute node when the environment starts
 
     Waiting for input...
     Reading input from standard input
Warning: card &CELL ignored
Warning: card CELL_DYNAMICS = 'BFGS', ignored
Warning: card CELL_DOFREE = '2DXY' ignored
Warning: card / ignored

     Current dimensions of program PWSCF are:
     Max number of different atomic species (ntypx) = 10
     Max number of k-points (npk) =  40000
     Max angular momentum in pseudopotentials (lmaxx) =  4

     IMPORTANT: XC functional enforced from input :
     Exchange-correlation= RVV10
                           (   1   4  13   4  26   0   0)
     Any further DFT definition will be discarded
     Please, verify this is what you really want


     gamma-point specific algorithms are used
     signal trapping enabled: kill the code with -SIGUSR1 to stop cleanly the simulation 
 
     R & G space division:  proc/nbgrp/npool/nimage =      48
     Subspace diagonalization in iterative solution of the eigenvalue problem:
     one sub-group per band group will be used
     scalapack distributed-memory algorithm (size of sub-group:  2*  2 procs)

 
     Parallelization info
     --------------------
     sticks:   dense  smooth     PW     G-vecs:    dense   smooth      PW
     Min         243     194     47                49060    35090    4376
     Max         246     196     50                49086    35128    4410
     Sum       11735    9389   2349              2355467  1685513  210763
 
     Using Slab Decomposition
 


     bravais-lattice index     =            0
     lattice parameter (alat)  =      17.8707  a.u.
     unit-cell volume          =   17436.2743 (a.u.)^3
     number of atoms/cell      =           36
     number of atomic types    =            3
     number of electrons       =       307.00
     number of Kohn-Sham states=          185
     kinetic-energy cutoff     =      80.0000  Ry
     charge density cutoff     =     400.0000  Ry
     scf convergence threshold =      1.0E-06
     mixing beta               =       0.7000
     number of iterations used =            8  local-TF  mixing
     energy convergence thresh.=      1.0E-04
     force convergence thresh. =      1.0E-02
     Exchange-correlation= RVV10
                           (   1   4  13   4  26   0   0)
     nstep                     =          200


     celldm(1)=  17.870686  celldm(2)=   0.000000  celldm(3)=   0.000000
     celldm(4)=   0.000000  celldm(5)=   0.000000  celldm(6)=   0.000000

     crystal axes: (cart. coord. in units of alat)
               a(1) = (   1.000000   0.000000   0.000000 )  
               a(2) = (   0.000000   1.155671   0.000000 )  
               a(3) = (   0.000000   0.000000   2.643601 )  

     reciprocal axes: (cart. coord. in units 2 pi/alat)
               b(1) = (  1.000000  0.000000  0.000000 )  
               b(2) = (  0.000000  0.865298  0.000000 )  
               b(3) = (  0.000000  0.000000  0.378272 )  


     PseudoPot. # 1 for Mo read from file:
     ../pseudo/Mo_ONCV_PBE-1.0.oncvpsp.upf
     MD5 check sum: 1b5d28e075c9ccadda658a603575cd1f
     Pseudo is Norm-conserving, Zval = 14.0
     Generated using ONCVPSP code by D. R. Hamann
     Using radial grid of 1526 points,  6 beta functions with: 
                l(1) =   0
                l(2) =   0
                l(3) =   1
                l(4) =   1
                l(5) =   2
                l(6) =   2

     PseudoPot. # 2 for S  read from file:
     ../pseudo/s_pbe_v1.4.uspp.F.UPF
     MD5 check sum: 88d86576ff6df21479756cfb9bdac1df
     Pseudo is Ultrasoft + core correction, Zval =  6.0
     Generated by new atomic code, or converted to UPF format
     Using radial grid of  907 points,  6 beta functions with: 
                l(1) =   0
                l(2) =   0
                l(3) =   1
                l(4) =   1
                l(5) =   2
                l(6) =   2
     Q(r) pseudized with  8 coefficients,  rinner =    1.300   1.300   1.300
                                                       1.300   1.300

     PseudoPot. # 3 for H  read from file:
     ../pseudo/H_ONCV_PBE-1.0.oncvpsp.upf
     MD5 check sum: 1790becc920ee074925cf490c71280fe
     Pseudo is Norm-conserving, Zval =  1.0
     Generated using ONCVPSP code by D. R. Hamann
     Using radial grid of 1166 points,  2 beta functions with: 
                l(1) =   0
                l(2) =   0

     atomic species   valence    mass     pseudopotential
        Mo            14.00    95.94000     Mo( 1.00)
        S              6.00    32.06500     S ( 1.00)
        H              1.00     1.00794     H ( 1.00)

     No symmetry found



   Cartesian axes

     site n.     atom                  positions (alat units)
         1           Mo  tau(   1) = (   0.6952221   0.1890506   0.2985846  )
         2           S   tau(   2) = (   0.8646417   0.0856217   0.4689279  )
         3           S   tau(   3) = (   0.8663890   0.0857843   0.1351291  )
         4           Mo  tau(   4) = (   0.8560186   0.4753274   0.2873942  )
         5           S   tau(   5) = (   0.6873294   0.3936244   0.4596353  )
         6           S   tau(   6) = (   0.6929804   0.3713468   0.1185692  )
         7           Mo  tau(   7) = (   0.6862796   0.7633098   0.2825370  )
         8           S   tau(   8) = (   0.8545980   0.6708292   0.4486168  )
         9           S   tau(   9) = (   0.8545123   0.6666874   0.1146125  )
        10           Mo  tau(  10) = (   0.8629403   1.0471007   0.3006803  )
        11           S   tau(  11) = (   0.6868280   0.9456650   0.4634891  )
        12           S   tau(  12) = (   0.6998113   0.9568511   0.1205389  )
        13           Mo  tau(  13) = (   0.3618216   0.1847309   0.2935964  )
        14           S   tau(  14) = (   0.5260962   0.0863870   0.4600448  )
        15           S   tau(  15) = (   0.5348379   0.0894875   0.1297123  )
        16           Mo  tau(  16) = (   0.5265817   0.4772436   0.2784130  )
        17           S   tau(  17) = (   0.3624753   0.3882513   0.4525556  )
        18           S   tau(  18) = (   0.3635411   0.3752055   0.1119148  )
        19           Mo  tau(  19) = (   0.3652268   0.7630864   0.2781795  )
        20           S   tau(  20) = (   0.5269494   0.6690381   0.1096838  )
        21           Mo  tau(  21) = (   0.5300192   1.0470394   0.2900995  )
        22           S   tau(  22) = (   0.3670346   0.9457522   0.4574073  )
        23           S   tau(  23) = (   0.3604225   0.9585725   0.1159032  )
        24           Mo  tau(  24) = (   0.0313099   0.1847895   0.3013130  )
        25           S   tau(  25) = (   0.1956761   0.0838230   0.4650863  )
        26           S   tau(  26) = (   0.1967693   0.0903508   0.1278874  )
        27           Mo  tau(  27) = (   0.1967578   0.4753919   0.2813011  )
        28           S   tau(  28) = (   0.0287851   0.3864324   0.4586755  )
        29           S   tau(  29) = (   0.0244514   0.3729871   0.1239344  )
        30           Mo  tau(  30) = (   0.0286728   0.7631204   0.2856894  )
        31           S   tau(  31) = (   0.2011512   0.6675435   0.4465001  )
        32           S   tau(  32) = (   0.1969214   0.6672839   0.1104564  )
        33           Mo  tau(  33) = (   0.1950294   1.0511147   0.2932237  )
        34           S   tau(  34) = (   0.0312912   0.9612169   0.4667423  )
        35           S   tau(  35) = (   0.0292670   0.9563028   0.1216485  )
        36           H   tau(  36) = (   0.0000000   0.8988550   0.5792558  )

     number of k points=     1  Gaussian smearing, width (Ry)=  0.0100
                       cart. coord. in units 2pi/alat
        k(    1) = (   0.0000000   0.0000000   0.0000000), wk =   2.0000000

     Dense  grid:  1177734 G-vectors     FFT dimensions: ( 120, 135, 320)

     Smooth grid:   842757 G-vectors     FFT dimensions: ( 108, 120, 270)

     Estimated max dynamical RAM per process >     146.59 MB

     Estimated total dynamical RAM >       6.87 GB

     Initial potential from superposition of free atoms

     starting charge     306.9873, renormalised to     307.0000

     negative rho (up, down):  1.405E-04 0.000E+00


---------------------------------------------------------------------------------
Carrying out rVV10 run using the following parameters:
Nqs =      20    Nr_points =    1024   r_max =   100.000
b_value =  6.30000    beta =  0.00901
     q_mesh =  0.00010000  0.00030000  0.00058939  0.00100810
               0.00161396  0.00249058  0.00375900  0.00559430
               0.00824984  0.01209221  0.01765183  0.02569619
               0.03733578  0.05417739  0.07854596  0.11380545
               0.16482331  0.23864234  0.34545298  0.50000000

Gradients computed in Reciprocal space

---------------------------------------------------------------------------------


     Starting wfcs are  213 randomized atomic wfcs

     total cpu time spent up to now is        3.0 secs

     Self-consistent Calculation

     iteration #  1     ecut=    80.00 Ry     beta= 0.70
     Davidson diagonalization with overlap
     ethr =  1.00E-02,  avg # of iterations =  2.0

     Threshold (ethr) on eigenvalues was too large:
     Diagonalizing with lowered threshold

     Davidson diagonalization with overlap
     ethr =  3.98E-04,  avg # of iterations =  4.0

     negative rho (up, down):  1.119E-08 0.000E+00

     total cpu time spent up to now is       18.0 secs

     total energy              =   -2205.61450588 Ry
     estimated scf accuracy    <       1.50622662 Ry

     iteration #  2     ecut=    80.00 Ry     beta= 0.70
     Davidson diagonalization with overlap
     ethr =  4.91E-04,  avg # of iterations =  2.0

     total cpu time spent up to now is       20.4 secs

     total energy              =   -2205.43211654 Ry
     estimated scf accuracy    <       0.62389087 Ry

     iteration #  3     ecut=    80.00 Ry     beta= 0.70
     Davidson diagonalization with overlap
     ethr =  2.03E-04,  avg # of iterations =  5.0

     total cpu time spent up to now is       22.9 secs

     total energy              =   -2205.53213677 Ry
     estimated scf accuracy    <       0.06687656 Ry

     iteration #  4     ecut=    80.00 Ry     beta= 0.70
     Davidson diagonalization with overlap
     ethr =  2.18E-05,  avg # of iterations = 20.0

     total cpu time spent up to now is       26.2 secs

     total energy              =   -2205.53632906 Ry
     estimated scf accuracy    <       0.03325313 Ry

     iteration #  5     ecut=    80.00 Ry     beta= 0.70
     Davidson diagonalization with overlap
     ethr =  1.08E-05,  avg # of iterations =  1.0

     total cpu time spent up to now is       28.7 secs

     total energy              =   -2205.53432143 Ry
     estimated scf accuracy    <       0.01995107 Ry

     iteration #  6     ecut=    80.00 Ry     beta= 0.70
     Davidson diagonalization with overlap
     ethr =  6.50E-06,  avg # of iterations =  2.0

     total cpu time spent up to now is       30.9 secs

     total energy              =   -2205.53414680 Ry
     estimated scf accuracy    <       0.01245613 Ry

     iteration #  7     ecut=    80.00 Ry     beta= 0.70
     Davidson diagonalization with overlap
     ethr =  4.06E-06,  avg # of iterations =  1.0

     total cpu time spent up to now is       33.0 secs

     total energy              =   -2205.53230949 Ry
     estimated scf accuracy    <       0.00927004 Ry

     iteration #  8     ecut=    80.00 Ry     beta= 0.70
     Davidson diagonalization with overlap
     ethr =  3.02E-06,  avg # of iterations =  2.0

     negative rho (up, down):  1.747E-03 0.000E+00

     total cpu time spent up to now is       37.5 secs

     total energy              =   -2205.53163003 Ry
     estimated scf accuracy    <       0.00567988 Ry

     iteration #  9     ecut=    80.00 Ry     beta= 0.70
     Davidson diagonalization with overlap
     ethr =  1.85E-06,  avg # of iterations =  2.0

     negative rho (up, down):  2.654E-02 0.000E+00

     total cpu time spent up to now is       41.9 secs

     total energy              =   -2205.53124449 Ry
     estimated scf accuracy    <       0.00322855 Ry

     iteration # 10     ecut=    80.00 Ry     beta= 0.70
     Davidson diagonalization with overlap
     ethr =  1.05E-06,  avg # of iterations =  2.0

     negative rho (up, down):  3.139E-02 0.000E+00

     total cpu time spent up to now is       46.0 secs

     total energy              =   -2205.53119763 Ry
     estimated scf accuracy    <       0.00177558 Ry

     iteration # 11     ecut=    80.00 Ry     beta= 0.70
     Davidson diagonalization with overlap
     ethr =  5.78E-07,  avg # of iterations =  2.0

     negative rho (up, down):  2.614E-02 0.000E+00

     total cpu time spent up to now is       51.5 secs

     total energy              =   -2205.53122353 Ry
     estimated scf accuracy    <       0.00068699 Ry

     iteration # 12     ecut=    80.00 Ry     beta= 0.70
     Davidson diagonalization with overlap
     ethr =  2.24E-07,  avg # of iterations =  2.0

     negative rho (up, down):  1.383E-02 0.000E+00

     total cpu time spent up to now is       57.0 secs

     total energy              =   -2205.53125068 Ry
     estimated scf accuracy    <       0.00017934 Ry

     iteration # 13     ecut=    80.00 Ry     beta= 0.70
     Davidson diagonalization with overlap
     ethr =  5.84E-08,  avg # of iterations =  6.0

     negative rho (up, down):  4.143E-03 0.000E+00

     total cpu time spent up to now is       63.0 secs

     total energy              =   -2205.53133063 Ry
     estimated scf accuracy    <       0.00004196 Ry

     iteration # 14     ecut=    80.00 Ry     beta= 0.70
     Davidson diagonalization with overlap
     ethr =  1.37E-08,  avg # of iterations =  5.0

     negative rho (up, down):  1.471E-03 0.000E+00

     total cpu time spent up to now is       71.4 secs

     total energy              =   -2205.53132910 Ry
     estimated scf accuracy    <       0.00001353 Ry

     iteration # 15     ecut=    80.00 Ry     beta= 0.70
     Davidson diagonalization with overlap
     ethr =  4.41E-09,  avg # of iterations =  4.0

     negative rho (up, down):  5.416E-04 0.000E+00

     total cpu time spent up to now is       79.1 secs

     total energy              =   -2205.53132988 Ry
     estimated scf accuracy    <       0.00000473 Ry

     iteration # 16     ecut=    80.00 Ry     beta= 0.70
     Davidson diagonalization with overlap
     ethr =  1.54E-09,  avg # of iterations =  5.0

     negative rho (up, down):  4.659E-04 0.000E+00

     total cpu time spent up to now is       88.4 secs

     total energy              =   -2205.53133272 Ry
     estimated scf accuracy    <       0.00000170 Ry

     iteration # 17     ecut=    80.00 Ry     beta= 0.70
     Davidson diagonalization with overlap
     ethr =  5.53E-10,  avg # of iterations =  2.0

     negative rho (up, down):  1.365E-04 0.000E+00

     total cpu time spent up to now is       90.4 secs

     End of self-consistent calculation

          k = 0.0000 0.0000 0.0000 (105382 PWs)   bands (ev):

   -62.8936 -62.8378 -62.8180 -62.7901 -62.7735 -62.7486 -62.7438 -62.7335
   -62.7193 -62.5499 -62.5341 -62.4459 -37.2101 -37.1499 -37.1213 -37.0894
   -37.0627 -37.0578 -37.0380 -37.0249 -37.0150 -36.9986 -36.9868 -36.9718
   -36.9616 -36.9563 -36.9359 -36.9221 -36.9185 -36.9172 -36.9059 -36.8970
   -36.8937 -36.8713 -36.8583 -36.8434 -36.8238 -36.8103 -36.7776 -36.7329
   -36.7249 -36.7191 -36.7000 -36.6818 -36.6297 -36.6003 -36.5111 -36.4801
   -16.7679 -15.7410 -15.0536 -15.0093 -14.8727 -14.7636 -14.6418 -14.4114
   -14.3827 -14.3569 -14.2845 -14.2555 -14.2467 -14.1735 -14.1206 -14.0417
   -14.0221 -14.0043 -13.9123 -13.8875 -13.7357 -13.7208 -13.6931  -9.6026
    -7.5956  -7.3918  -7.3173  -7.2767  -7.1670  -7.1071  -7.0943  -7.0361
    -6.7555  -6.7078  -6.6724  -6.6357  -6.5904  -6.4810  -6.4131  -6.3616
    -6.3010  -6.1800  -6.1381  -5.9294  -5.8527  -5.8128  -5.7327  -5.7086
    -5.6926  -5.6305  -5.5782  -5.5578  -5.5338  -5.4783  -5.4335  -5.3580
    -5.3420  -5.3017  -5.2192  -5.0651  -5.0482  -4.9942  -4.9329  -4.8700
    -4.8251  -4.7465  -4.5532  -4.5366  -4.3830  -4.2623  -4.2165  -4.1768
    -4.0900  -4.0619  -3.9341  -3.7954  -3.7185  -3.6983  -3.6621  -3.6363
    -3.5885  -3.5248  -3.4859  -3.4145  -3.3891  -3.3758  -3.3580  -3.2799
    -3.2718  -3.1575  -3.0560  -2.8901  -2.7864  -2.7706  -2.6962  -2.6470
    -2.6273  -2.5756  -2.5588  -2.5167  -2.4374  -2.1605  -1.9353  -1.8928
    -1.8177  -0.6136  -0.5584  -0.5094  -0.1341  -0.1099  -0.0833   0.0254
     0.1065   0.1700   0.2429   0.2981   0.3391   0.3987   0.5176   0.5276
     0.5761   0.6140   0.6447   0.6773   0.6990   0.7305   0.7760   0.7923
     0.8514   0.8857   0.9494   0.9955   1.0362   1.0827   1.1462   1.1707
     1.4982

     the Fermi energy is    -0.6626 ev

!    total energy              =   -2205.53133327 Ry
     estimated scf accuracy    <       0.00000085 Ry
     smearing contrib. (-TS)   =      -0.00967743 Ry
     internal energy E=F+TS    =   -2205.52165583 Ry

     The total energy is F=E-TS. E is the sum of the following terms:
     one-electron contribution =  -18046.65194438 Ry
     hartree contribution      =    9010.88946307 Ry
     xc contribution           =    -385.42845618 Ry
     ewald contribution        =    7215.66928166 Ry

     convergence has been achieved in  17 iterations

     negative rho (up, down):  1.365E-04 0.000E+00

     Forces acting on atoms (cartesian axes, Ry/au):

     atom    1 type  1   force =     0.01258363   -0.02523953    0.00504978
     atom    2 type  2   force =    -0.01610086    0.02262685    0.00192604
     atom    3 type  2   force =    -0.01172364    0.01093611   -0.00342911
     atom    4 type  1   force =     0.01008708   -0.00204458   -0.00051974
     atom    5 type  2   force =    -0.00199171   -0.00528900   -0.00681383
     atom    6 type  2   force =     0.00408615    0.01066945    0.00161967
     atom    7 type  1   force =     0.00213095   -0.00002534   -0.00755311
     atom    8 type  2   force =    -0.00020601   -0.00578417    0.01987792
     atom    9 type  2   force =     0.01593326    0.00398802    0.00970242
     atom   10 type  1   force =    -0.02681906    0.00416174   -0.02329247
     atom   11 type  2   force =     0.00348103   -0.00212930   -0.00843728
     atom   12 type  2   force =     0.00242254    0.00253541    0.00598325
     atom   13 type  1   force =     0.00598115    0.00585004   -0.00529128
     atom   14 type  2   force =     0.00793132    0.00147522    0.01125428
     atom   15 type  2   force =    -0.01202840    0.00224336   -0.00909401
     atom   16 type  1   force =     0.00018386    0.00117916    0.00016493
     atom   17 type  2   force =     0.00619042    0.00122705    0.00165847
     atom   18 type  2   force =    -0.00563395   -0.00613267    0.01440662
     atom   19 type  1   force =     0.00612536    0.00032734   -0.00390133
     atom   20 type  2   force =     0.00330519   -0.00602649    0.00071913
     atom   21 type  1   force =    -0.00480598    0.00664636    0.00524289
     atom   22 type  2   force =     0.00409162   -0.00252198   -0.00576495
     atom   23 type  2   force =    -0.00499519    0.00332642    0.00954455
     atom   24 type  1   force =    -0.00992913   -0.00525538   -0.01966201
     atom   25 type  2   force =     0.01881247    0.02628859    0.00802724
     atom   26 type  2   force =    -0.01060131   -0.00351436   -0.00469784
     atom   27 type  1   force =    -0.00688113   -0.00507243    0.00873299
     atom   28 type  2   force =     0.00120564   -0.00156011   -0.00543181
     atom   29 type  2   force =     0.00259430    0.00125873   -0.00318100
     atom   30 type  1   force =    -0.00472145    0.00206378   -0.01693062
     atom   31 type  2   force =     0.00317783   -0.00299956    0.01721325
     atom   32 type  2   force =    -0.01218910    0.00438715    0.00731411
     atom   33 type  1   force =     0.04100600   -0.00053331   -0.01380396
     atom   34 type  2   force =     0.01101886    0.01553308   -0.12957422
     atom   35 type  2   force =    -0.00785996    0.00617637    0.01641697
     atom   36 type  3   force =    -0.02586180   -0.05877202    0.12252407
     The non-local contrib.  to forces
     atom    1 type  1   force =    -0.00634186    0.03815853   -0.01173503
     atom    2 type  2   force =    -0.00896132    0.00013747   -0.26419205
     atom    3 type  2   force =    -0.01540996   -0.00560429    0.27209579
     atom    4 type  1   force =    -0.00878092    0.00601356    0.00239132
     atom    5 type  2   force =     0.00729648   -0.03386452   -0.25444011
     atom    6 type  2   force =    -0.00055702    0.00954905    0.26146557
     atom    7 type  1   force =    -0.03634354   -0.01321384   -0.01310087
     atom    8 type  2   force =     0.00695775   -0.00111008   -0.23831008
     atom    9 type  2   force =     0.01345526   -0.01026277    0.27792459
     atom   10 type  1   force =     0.00359797    0.00312453   -0.00610997
     atom   11 type  2   force =     0.02000948    0.00841947   -0.25603352
     atom   12 type  2   force =    -0.00688387   -0.00880882    0.26198217
     atom   13 type  1   force =     0.00352071    0.02596451   -0.00701032
     atom   14 type  2   force =     0.01104562   -0.00934537   -0.26159300
     atom   15 type  2   force =    -0.01393831   -0.00536541    0.26191680
     atom   16 type  1   force =     0.00084858    0.04843923   -0.01420577
     atom   17 type  2   force =     0.00117623   -0.03069946   -0.25102763
     atom   18 type  2   force =    -0.00584006   -0.00601069    0.27158723
     atom   19 type  1   force =     0.03298946   -0.01505353   -0.00808199
     atom   20 type  2   force =    -0.00029664   -0.01898711    0.26437604
     atom   21 type  1   force =     0.00330274    0.01996812    0.00613054
     atom   22 type  2   force =    -0.00945398    0.00558330   -0.25608581
     atom   23 type  2   force =     0.00070191   -0.00508586    0.26886098
     atom   24 type  1   force =     0.00508062    0.02622770   -0.01150537
     atom   25 type  2   force =     0.01154787    0.01173399   -0.25139465
     atom   26 type  2   force =    -0.00062302   -0.01871885    0.26619198
     atom   27 type  1   force =     0.00410321    0.00938812    0.00782717
     atom   28 type  2   force =    -0.00308315   -0.02778095   -0.27168107
     atom   29 type  2   force =     0.00649677   -0.00041528    0.26393441
     atom   30 type  1   force =     0.00147235    0.00571102    0.00452791
     atom   31 type  2   force =    -0.01440287    0.00104395   -0.24193251
     atom   32 type  2   force =    -0.00768864   -0.01358614    0.27239444
     atom   33 type  1   force =     0.00260437    0.00423575   -0.01070954
     atom   34 type  2   force =    -0.04158709   -0.14211950    0.04931914
     atom   35 type  2   force =    -0.00297735   -0.01194427    0.27935603
     atom   36 type  3   force =     0.02051345    0.04021570   -0.06998833
     The ionic contribution  to forces
     atom    1 type  1   force =     0.32958217    0.30892507    5.67897073
     atom    2 type  2   force =    -0.73694528    0.59070359   39.23216855
     atom    3 type  2   force =    -0.17893623    0.05559470  -36.11181106
     atom    4 type  1   force =     0.03573626    0.44401727    0.60321570
     atom    5 type  2   force =    -0.99639686    1.46709836   38.74615763
     atom    6 type  2   force =     0.33561066   -0.50763525  -38.01834299
     atom    7 type  1   force =    -2.80130062   -2.88728762    2.39055664
     atom    8 type  2   force =    -1.16525832   -0.26346080   37.23617279
     atom    9 type  2   force =     0.32069109   -0.07428922  -38.05074207
     atom   10 type  1   force =    -1.34945393   -0.02371159    5.18920320
     atom   11 type  2   force =    -0.80622674   -1.56046973   39.04839833
     atom   12 type  2   force =     0.40919770    0.70404653  -37.89774562
     atom   13 type  1   force =     0.52661251    1.05580839    2.84395192
     atom   14 type  2   force =     0.04980009    0.04919013   38.51225728
     atom   15 type  2   force =     0.15395863   -0.04245110  -36.80356261
     atom   16 type  1   force =    -0.03221241    3.88409875    0.48047974
     atom   17 type  2   force =     0.83490175    1.47654353   37.93304855
     atom   18 type  2   force =    -0.15316962   -0.65260108  -38.55618849
     atom   19 type  1   force =     2.85436687   -2.53048537    0.52423916
     atom   20 type  2   force =     0.22548028   -0.21694304  -38.48673489
     atom   21 type  1   force =     0.00822541    0.13050195    1.08862738
     atom   22 type  2   force =     0.61185441   -1.68499792   38.37312127
     atom   23 type  2   force =    -0.06156709    0.67561517  -38.32105066
     atom   24 type  1   force =    -0.53700925    1.28430172    5.76697752
     atom   25 type  2   force =     0.74035112    0.43217046   39.23032250
     atom   26 type  2   force =    -0.27103103    0.09855678  -37.35135778
     atom   27 type  1   force =     0.08824984    0.28660554   -2.30588434
     atom   28 type  2   force =     0.05731459    0.95717987   38.19410208
     atom   29 type  2   force =    -0.26396386   -0.43849177  -37.26924161
     atom   30 type  1   force =    -0.27763793   -1.21613273   -0.65782140
     atom   31 type  2   force =     1.39830095   -0.26600615   37.22108388
     atom   32 type  2   force =    -0.45710057   -0.03966689  -38.67357850
     atom   33 type  1   force =     1.04442775   -0.63271434    1.72340864
     atom   34 type  2   force =     0.73979655   -0.43638015   37.56021905
     atom   35 type  2   force =    -0.29267763    0.49660314  -37.91980915
     atom   36 type  3   force =    -0.38357126   -0.92383623    8.84718859
     The local contribution  to forces
     atom    1 type  1   force =    -0.31055597   -0.37255958   -5.66111252
     atom    2 type  2   force =     0.72978523   -0.56843791  -38.98578877
     atom    3 type  2   force =     0.18196999   -0.03932237   35.85756545
     atom    4 type  1   force =    -0.01663330   -0.45202870   -0.60503531
     atom    5 type  2   force =     0.98789657   -1.44051425  -38.51820452
     atom    6 type  2   force =    -0.33099594    0.50960645   37.77942644
     atom    7 type  1   force =     2.83987218    2.90057664   -2.38373987
     atom    8 type  2   force =     1.15870655    0.25887633  -36.99675288
     atom    9 type  2   force =    -0.31757710    0.08798963   37.80382768
     atom   10 type  1   force =     1.31922008    0.02472504   -5.20516085
     atom   11 type  2   force =     0.79100347    1.55067286  -38.82047155
     atom   12 type  2   force =    -0.40068188   -0.69351794   37.66276736
     atom   13 type  1   force =    -0.52428354   -1.07615950   -2.84120546
     atom   14 type  2   force =    -0.05234819   -0.03842862  -38.25937853
     atom   15 type  2   force =    -0.15282230    0.04961980   36.55340567
     atom   16 type  1   force =     0.03154778   -3.93123541   -0.46490731
     atom   17 type  2   force =    -0.83005670   -1.44634060  -37.69991170
     atom   18 type  2   force =     0.15301555    0.65263554   38.32005823
     atom   19 type  1   force =    -2.88132443    2.54602903   -0.51884050
     atom   20 type  2   force =    -0.22201052    0.22935199   38.24440200
     atom   21 type  1   force =    -0.01640045   -0.14368240   -1.08853353
     atom   22 type  2   force =    -0.59897459    1.67758100  -38.14247502
     atom   23 type  2   force =     0.05600629   -0.66777543   38.08293369
     atom   24 type  1   force =     0.52205302   -1.31595392   -5.77405832
     atom   25 type  2   force =    -0.73305475   -0.41722859  -38.99048969
     atom   26 type  2   force =     0.26127150   -0.08451313   37.10176571
     atom   27 type  1   force =    -0.09945989   -0.30108329    2.30782308
     atom   28 type  2   force =    -0.05324335   -0.93293558  -37.94801585
     atom   29 type  2   force =     0.26064439    0.44053350   37.02297977
     atom   30 type  1   force =     0.27141236    1.21263191    0.63760069
     atom   31 type  2   force =    -1.38180775    0.26229613  -36.98108768
     atom   32 type  2   force =     0.45230259    0.05690716   38.42972172
     atom   33 type  1   force =    -1.00615775    0.62798061   -1.72533185
     atom   34 type  2   force =    -0.69088193    0.58502340  -37.73893083
     atom   35 type  2   force =     0.28787953   -0.47945750   37.67873928
     atom   36 type  3   force =     0.33720863    0.82486483   -8.65461509
     The core correction contribution to forces
     atom    1 type  1   force =     0.00000000    0.00000000    0.00000000
     atom    2 type  2   force =     0.00007882    0.00014108    0.02034314
     atom    3 type  2   force =     0.00067519    0.00022902   -0.02100884
     atom    4 type  1   force =     0.00000000    0.00000000    0.00000000
     atom    5 type  2   force =    -0.00072707    0.00193723    0.02036203
     atom    6 type  2   force =     0.00012187   -0.00095888   -0.02077122
     atom    7 type  1   force =     0.00000000    0.00000000    0.00000000
     atom    8 type  2   force =    -0.00051442    0.00002028    0.01936148
     atom    9 type  2   force =    -0.00053030    0.00059772   -0.02102406
     atom   10 type  1   force =     0.00000000    0.00000000    0.00000000
     atom   11 type  2   force =    -0.00119441   -0.00074765    0.02026121
     atom   12 type  2   force =     0.00083476    0.00088892   -0.02076167
     atom   13 type  1   force =     0.00000000    0.00000000    0.00000000
     atom   14 type  2   force =    -0.00057762    0.00002146    0.02056165
     atom   15 type  2   force =     0.00076103    0.00039236   -0.02060701
     atom   16 type  1   force =     0.00000000    0.00000000    0.00000000
     atom   17 type  2   force =     0.00010485    0.00165498    0.02023301
     atom   18 type  2   force =     0.00025867   -0.00028018   -0.02089138
     atom   19 type  1   force =     0.00000000    0.00000000    0.00000000
     atom   20 type  2   force =     0.00013999    0.00062892   -0.02110677
     atom   21 type  1   force =     0.00000000    0.00000000    0.00000000
     atom   22 type  2   force =     0.00052929   -0.00064300    0.02024641
     atom   23 type  2   force =    -0.00020673    0.00067813   -0.02092011
     atom   24 type  1   force =     0.00000000    0.00000000    0.00000000
     atom   25 type  2   force =    -0.00007431   -0.00050621    0.02016440
     atom   26 type  2   force =    -0.00022917    0.00108479   -0.02100740
     atom   27 type  1   force =     0.00000000    0.00000000    0.00000000
     atom   28 type  2   force =     0.00022262    0.00195495    0.02076845
     atom   29 type  2   force =    -0.00056854   -0.00041119   -0.02061205
     atom   30 type  1   force =     0.00000000    0.00000000    0.00000000
     atom   31 type  2   force =     0.00098431   -0.00022910    0.01976506
     atom   32 type  2   force =     0.00019058    0.00077054   -0.02096420
     atom   33 type  1   force =     0.00000000    0.00000000    0.00000000
     atom   34 type  2   force =     0.00373717    0.00901825    0.00040429
     atom   35 type  2   force =    -0.00005468    0.00100725   -0.02155987
     atom   36 type  3   force =     0.00000000    0.00000000    0.00000000
     The Hubbard contrib.    to forces
     atom    1 type  1   force =     0.00000000    0.00000000    0.00000000
     atom    2 type  2   force =     0.00000000    0.00000000    0.00000000
     atom    3 type  2   force =     0.00000000    0.00000000    0.00000000
     atom    4 type  1   force =     0.00000000    0.00000000    0.00000000
     atom    5 type  2   force =     0.00000000    0.00000000    0.00000000
     atom    6 type  2   force =     0.00000000    0.00000000    0.00000000
     atom    7 type  1   force =     0.00000000    0.00000000    0.00000000
     atom    8 type  2   force =     0.00000000    0.00000000    0.00000000
     atom    9 type  2   force =     0.00000000    0.00000000    0.00000000
     atom   10 type  1   force =     0.00000000    0.00000000    0.00000000
     atom   11 type  2   force =     0.00000000    0.00000000    0.00000000
     atom   12 type  2   force =     0.00000000    0.00000000    0.00000000
     atom   13 type  1   force =     0.00000000    0.00000000    0.00000000
     atom   14 type  2   force =     0.00000000    0.00000000    0.00000000
     atom   15 type  2   force =     0.00000000    0.00000000    0.00000000
     atom   16 type  1   force =     0.00000000    0.00000000    0.00000000
     atom   17 type  2   force =     0.00000000    0.00000000    0.00000000
     atom   18 type  2   force =     0.00000000    0.00000000    0.00000000
     atom   19 type  1   force =     0.00000000    0.00000000    0.00000000
     atom   20 type  2   force =     0.00000000    0.00000000    0.00000000
     atom   21 type  1   force =     0.00000000    0.00000000    0.00000000
     atom   22 type  2   force =     0.00000000    0.00000000    0.00000000
     atom   23 type  2   force =     0.00000000    0.00000000    0.00000000
     atom   24 type  1   force =     0.00000000    0.00000000    0.00000000
     atom   25 type  2   force =     0.00000000    0.00000000    0.00000000
     atom   26 type  2   force =     0.00000000    0.00000000    0.00000000
     atom   27 type  1   force =     0.00000000    0.00000000    0.00000000
     atom   28 type  2   force =     0.00000000    0.00000000    0.00000000
     atom   29 type  2   force =     0.00000000    0.00000000    0.00000000
     atom   30 type  1   force =     0.00000000    0.00000000    0.00000000
     atom   31 type  2   force =     0.00000000    0.00000000    0.00000000
     atom   32 type  2   force =     0.00000000    0.00000000    0.00000000
     atom   33 type  1   force =     0.00000000    0.00000000    0.00000000
     atom   34 type  2   force =     0.00000000    0.00000000    0.00000000
     atom   35 type  2   force =     0.00000000    0.00000000    0.00000000
     atom   36 type  3   force =     0.00000000    0.00000000    0.00000000
     The SCF correction term to forces
     atom    1 type  1   force =    -0.00010000    0.00023360   -0.00104060
     atom    2 type  2   force =    -0.00005762    0.00007978   -0.00057203
     atom    3 type  2   force =    -0.00002193    0.00003620   -0.00023766
     atom    4 type  1   force =    -0.00023426   -0.00004956   -0.00105865
     atom    5 type  2   force =    -0.00006013    0.00005135   -0.00065605
     atom    6 type  2   force =    -0.00009272    0.00010523   -0.00012534
     atom    7 type  1   force =    -0.00009637   -0.00010337   -0.00123622
     atom    8 type  2   force =    -0.00009686   -0.00011274   -0.00056060
     atom    9 type  2   force =    -0.00010499   -0.00005018   -0.00025092
     atom   10 type  1   force =    -0.00018248    0.00002090   -0.00119206
     atom   11 type  2   force =    -0.00011007   -0.00000710   -0.00055895
     atom   12 type  2   force =    -0.00004346   -0.00007613   -0.00022619
     atom   13 type  1   force =     0.00013218    0.00023380   -0.00099462
     atom   14 type  2   force =     0.00001211    0.00003476   -0.00056032
     atom   15 type  2   force =     0.00001326    0.00004485   -0.00021407
     atom   16 type  1   force =     0.00000062   -0.00012626   -0.00116892
     atom   17 type  2   force =     0.00006500    0.00006575   -0.00065097
     atom   18 type  2   force =     0.00010221    0.00012089   -0.00012618
     atom   19 type  1   force =     0.00009417   -0.00016564   -0.00118521
     atom   20 type  2   force =    -0.00000723   -0.00008010   -0.00018445
     atom   21 type  1   force =     0.00006703   -0.00014415   -0.00094870
     atom   22 type  2   force =     0.00013720   -0.00004822   -0.00053899
     atom   23 type  2   force =     0.00007113   -0.00010845   -0.00024655
     atom   24 type  1   force =    -0.00005283    0.00016627   -0.00104303
     atom   25 type  2   force =     0.00004324    0.00011610   -0.00054251
     atom   26 type  2   force =     0.00001112    0.00007321   -0.00025756
     atom   27 type  1   force =     0.00022641    0.00001435   -0.00100011
     atom   28 type  2   force =    -0.00000437    0.00001874   -0.00057263
     atom   29 type  2   force =    -0.00001377    0.00004062   -0.00020872
     atom   30 type  1   force =     0.00003247   -0.00014927   -0.00120502
     atom   31 type  2   force =     0.00010389   -0.00010724   -0.00058271
     atom   32 type  2   force =     0.00010764   -0.00004036   -0.00022655
     atom   33 type  1   force =     0.00013235   -0.00003817   -0.00113841
     atom   34 type  2   force =    -0.00004514   -0.00001177   -0.00055306
     atom   35 type  2   force =    -0.00002912   -0.00003510   -0.00027652
     atom   36 type  3   force =    -0.00001191   -0.00001917   -0.00002830

     Total force =     0.216847     Total SCF correction =     0.004427

     BFGS Geometry Optimization
     Energy error            =      0.0E+00 Ry
     Gradient error          =      1.3E-01 Ry/Bohr

     number of scf cycles    =   1
     number of bfgs steps    =   0

     energy             new  =   -2205.5313332655 Ry

     new trust radius        =       0.1383297932 bohr
     new conv_thr            =       0.0000010000 Ry


ATOMIC_POSITIONS (angstrom)
Mo            6.5812073802        1.7744500457        2.8263152629
S             8.1681891312        0.8216776398        4.4355575666
S             8.1870292031        0.8170288857        1.2760688190
Mo            8.1005004176        4.4939749970        2.7175433594
S             6.4988552877        3.7196126702        4.3430549248
S             6.5555120977        3.5173835862        1.1221373192
Mo            6.4911093444        7.2184238728        2.6678875520
S             8.0816187127        6.3408101426        4.2529805037
S             8.0893491675        6.3068126882        1.0889972996
Mo            8.1464270115        9.9043827086        2.8311359151
S             6.4970096781        8.9418000354        4.3786407181
S             6.6192291520        9.0500528949        1.1430735025
Mo            3.4248247529        1.7500515591        2.7736711379
S             4.9793625637        0.8177218610        4.3564885997
S             5.0514685996        0.8474492416        1.2218461157
Mo            4.9798539768        4.5138019882        2.6329718284
S             3.4311174929        3.6722490133        4.2805872040
S             3.4349392226        3.5449834262        1.0659753353
Mo            3.4571031412        7.2164977612        2.6286123642
S             4.9849832228        6.3237432044        1.0376342785
Mo            5.0097207068        9.9051171536        2.7461753802
S             3.4731233104        8.9424166932        4.3225406346
S             3.4057858274        9.0667502492        1.1011190565
Mo            0.2908362188        1.7447285063        2.8390400238
S             1.8604173419        0.8066053304        4.4024572726
S             1.8551900629        0.8525661975        1.2069148625
Mo            1.8570499716        4.4929825493        2.6648186803
S             0.2728518443        3.6535732523        4.3347097080
S             0.2326040506        3.5279153156        1.1703345693
Mo            0.2686536658        7.2177381994        2.6927371282
S             1.9039198825        6.3112115380        4.2315529792
S             1.8557880227        6.3126653917        1.0484297440
Mo            1.8660461059        9.9398569361        2.7656415103
S             0.3017438282        9.0982175818        4.3453017406
S             0.2726120905        9.0467941083        1.1590882667
H            -0.0136854746        8.4691547413        5.5427203736



     Writing config-only to output data dir ./MoS2-V-O.save/
     NEW-OLD atomic charge density approx. for the potential

     negative rho (up, down):  1.517E-04 0.000E+00

     total cpu time spent up to now is       93.8 secs

     Self-consistent Calculation

     iteration #  1     ecut=    80.00 Ry     beta= 0.70
     Davidson diagonalization with overlap
     ethr =  1.00E-06,  avg # of iterations = 14.0

     negative rho (up, down):  2.005E-04 0.000E+00

     total cpu time spent up to now is      107.4 secs

     total energy              =   -2205.55428773 Ry
     estimated scf accuracy    <       0.00657817 Ry

     iteration #  2     ecut=    80.00 Ry     beta= 0.70
     Davidson diagonalization with overlap
     ethr =  2.14E-06,  avg # of iterations =  3.0

     negative rho (up, down):  3.348E-04 0.000E+00

     total cpu time spent up to now is      123.7 secs

     total energy              =   -2205.55446545 Ry
     estimated scf accuracy    <       0.00093830 Ry

     iteration #  3     ecut=    80.00 Ry     beta= 0.70
     Davidson diagonalization with overlap
     ethr =  3.06E-07,  avg # of iterations =  6.0

     negative rho (up, down):  3.860E-04 0.000E+00

     total cpu time spent up to now is      147.6 secs

     total energy              =   -2205.55458156 Ry
     estimated scf accuracy    <       0.00010610 Ry

     iteration #  4     ecut=    80.00 Ry     beta= 0.70
     Davidson diagonalization with overlap
     ethr =  3.46E-08,  avg # of iterations =  4.0

     negative rho (up, down):  4.205E-04 0.000E+00

     total cpu time spent up to now is      166.6 secs

     total energy              =   -2205.55460213 Ry
     estimated scf accuracy    <       0.00003752 Ry

     iteration #  5     ecut=    80.00 Ry     beta= 0.70
     Davidson diagonalization with overlap
     ethr =  1.22E-08,  avg # of iterations =  5.0

     negative rho (up, down):  4.280E-04 0.000E+00

     total cpu time spent up to now is      178.7 secs

     total energy              =   -2205.55460450 Ry
     estimated scf accuracy    <       0.00000598 Ry

     iteration #  6     ecut=    80.00 Ry     beta= 0.70
     Davidson diagonalization with overlap
     ethr =  1.95E-09,  avg # of iterations =  6.0

     negative rho (up, down):  3.893E-04 0.000E+00

     total cpu time spent up to now is      190.2 secs

     total energy              =   -2205.55460625 Ry
     estimated scf accuracy    <       0.00000117 Ry

     iteration #  7     ecut=    80.00 Ry     beta= 0.70
     Davidson diagonalization with overlap
     ethr =  3.80E-10,  avg # of iterations =  2.0

     negative rho (up, down):  1.368E-04 0.000E+00

     total cpu time spent up to now is      192.2 secs

     End of self-consistent calculation

          k = 0.0000 0.0000 0.0000 (105382 PWs)   bands (ev):

   -62.8816 -62.8315 -62.8155 -62.7974 -62.7673 -62.7539 -62.7535 -62.7429
   -62.7279 -62.5646 -62.5475 -62.4597 -37.2016 -37.1508 -37.1208 -37.0901
   -37.0650 -37.0602 -37.0368 -37.0309 -37.0151 -37.0037 -36.9896 -36.9791
   -36.9622 -36.9559 -36.9434 -36.9314 -36.9265 -36.9227 -36.9097 -36.9036
   -36.9022 -36.8775 -36.8582 -36.8440 -36.8307 -36.8158 -36.7855 -36.7447
   -36.7376 -36.7300 -36.7124 -36.6983 -36.6429 -36.6160 -36.5236 -36.4938
   -16.4408 -15.6914 -15.0560 -15.0143 -14.8807 -14.7723 -14.6343 -14.4083
   -14.3965 -14.3507 -14.3035 -14.2756 -14.2528 -14.1852 -14.1232 -14.0493
   -14.0299 -14.0194 -13.9217 -13.8921 -13.7440 -13.7251 -13.7097  -9.2066
    -7.6061  -7.4154  -7.3302  -7.2784  -7.1715  -7.1248  -7.1104  -7.0543
    -6.7658  -6.7145  -6.6754  -6.6403  -6.5965  -6.4993  -6.4196  -6.3636
    -6.2975  -6.1964  -6.1453  -5.9369  -5.8626  -5.8213  -5.7409  -5.7230
    -5.7111  -5.6372  -5.5864  -5.5673  -5.5514  -5.4953  -5.4420  -5.3609
    -5.3451  -5.2923  -5.2110  -5.0799  -5.0540  -4.9965  -4.9374  -4.8794
    -4.8420  -4.7549  -4.5596  -4.5322  -4.3891  -4.2831  -4.2355  -4.1834
    -4.1138  -4.0897  -3.9509  -3.7956  -3.7117  -3.7043  -3.6661  -3.6412
    -3.5912  -3.5289  -3.5134  -3.4343  -3.4041  -3.3890  -3.3740  -3.2998
    -3.2824  -3.1600  -3.0648  -2.8829  -2.7974  -2.7684  -2.6844  -2.6523
    -2.6489  -2.5877  -2.5754  -2.5250  -2.4496  -2.1668  -1.9346  -1.9063
    -1.8406  -0.6418  -0.5758  -0.5219  -0.1104  -0.0911  -0.0680   0.0309
     0.1003   0.1505   0.2669   0.3071   0.3303   0.3950   0.5135   0.5236
     0.5726   0.6119   0.6377   0.6729   0.7052   0.7173   0.7782   0.7894
     0.8647   0.8761   0.9501   0.9854   1.0343   1.0706   1.1438   1.1741
     1.5160

     the Fermi energy is    -0.6850 ev

!    total energy              =   -2205.55460695 Ry
     estimated scf accuracy    <       0.00000048 Ry
     smearing contrib. (-TS)   =      -0.00940598 Ry
     internal energy E=F+TS    =   -2205.54520097 Ry

     The total energy is F=E-TS. E is the sum of the following terms:
     one-electron contribution =  -18055.28300672 Ry
     hartree contribution      =    9015.11968763 Ry
     xc contribution           =    -385.39320919 Ry
     ewald contribution        =    7220.01132731 Ry

     convergence has been achieved in   7 iterations

     negative rho (up, down):  1.368E-04 0.000E+00

     Forces acting on atoms (cartesian axes, Ry/au):

     atom    1 type  1   force =     0.00332507   -0.01277316   -0.00079791
     atom    2 type  2   force =    -0.01085092    0.01460329    0.00031142
     atom    3 type  2   force =    -0.01125872    0.00816574   -0.00860512
     atom    4 type  1   force =     0.00562384    0.00038185    0.00079329
     atom    5 type  2   force =    -0.00014132   -0.00589483   -0.00661893
     atom    6 type  2   force =     0.00431950    0.00623944    0.00307886
     atom    7 type  1   force =     0.00265596   -0.00250955   -0.00088653
     atom    8 type  2   force =     0.00177135   -0.00224305    0.01445005
     atom    9 type  2   force =     0.01219461    0.00277203    0.00579411
     atom   10 type  1   force =    -0.01883253    0.01343632   -0.01748428
     atom   11 type  2   force =     0.00348384   -0.00238390   -0.00784337
     atom   12 type  2   force =    -0.00288740    0.00170103    0.00037245
     atom   13 type  1   force =     0.00466316    0.00449384   -0.00284702
     atom   14 type  2   force =     0.00571304    0.00163293    0.00891330
     atom   15 type  2   force =    -0.00851239    0.00189480   -0.00694246
     atom   16 type  1   force =    -0.00002433    0.00093860   -0.00002583
     atom   17 type  2   force =     0.00527078    0.00113267    0.00227012
     atom   18 type  2   force =    -0.00470912   -0.00417450    0.01115705
     atom   19 type  1   force =     0.00483221   -0.00363480    0.00040530
     atom   20 type  2   force =     0.00292153   -0.00477961   -0.00162611
     atom   21 type  1   force =    -0.00331703    0.00459036    0.00266801
     atom   22 type  2   force =     0.00495960   -0.00348579   -0.00313651
     atom   23 type  2   force =     0.00061600    0.00106498    0.00335975
     atom   24 type  1   force =    -0.00525630   -0.00313861   -0.00945514
     atom   25 type  2   force =     0.01435803    0.02063838    0.00208151
     atom   26 type  2   force =    -0.00611535   -0.00118317   -0.00589461
     atom   27 type  1   force =    -0.00271583   -0.00184998    0.00770448
     atom   28 type  2   force =     0.00042451   -0.00375350   -0.00470261
     atom   29 type  2   force =     0.00218999    0.00088561   -0.00457528
     atom   30 type  1   force =    -0.00231485   -0.00329507   -0.00606753
     atom   31 type  2   force =     0.00073121   -0.00028611    0.01115219
     atom   32 type  2   force =    -0.00852422    0.00279659    0.00576539
     atom   33 type  1   force =     0.02727423    0.00864797   -0.00958640
     atom   34 type  2   force =    -0.02394016   -0.05774219    0.00780450
     atom   35 type  2   force =    -0.00518173    0.00778027    0.00777670
     atom   36 type  3   force =     0.00725376    0.00933114    0.00123712
     The non-local contrib.  to forces
     atom    1 type  1   force =    -0.00408571    0.03525842   -0.01208188
     atom    2 type  2   force =    -0.00552985   -0.00642324   -0.26437799
     atom    3 type  2   force =    -0.01315828   -0.00860710    0.26758107
     atom    4 type  1   force =    -0.00677088    0.00636661    0.00138426
     atom    5 type  2   force =     0.00872242   -0.03547398   -0.25500672
     atom    6 type  2   force =    -0.00082490    0.00547404    0.26385584
     atom    7 type  1   force =    -0.03344035   -0.01195485   -0.01440730
     atom    8 type  2   force =     0.00726100    0.00217906   -0.24112505
     atom    9 type  2   force =     0.00959980   -0.01057057    0.27599868
     atom   10 type  1   force =     0.00058259    0.00190734   -0.00503969
     atom   11 type  2   force =     0.01727180    0.00898656   -0.25390456
     atom   12 type  2   force =    -0.01037083   -0.01120755    0.25774168
     atom   13 type  1   force =     0.00429444    0.02731522   -0.00647061
     atom   14 type  2   force =     0.00954351   -0.00966415   -0.26268211
     atom   15 type  2   force =    -0.01114191   -0.00576008    0.26236956
     atom   16 type  1   force =     0.00096369    0.04836064   -0.01564120
     atom   17 type  2   force =     0.00025278   -0.03037070   -0.25060573
     atom   18 type  2   force =    -0.00489053   -0.00456765    0.27000988
     atom   19 type  1   force =     0.03195903   -0.01277657   -0.00908866
     atom   20 type  2   force =    -0.00071990   -0.01770442    0.26338238
     atom   21 type  1   force =     0.00311132    0.01930870    0.00488431
     atom   22 type  2   force =    -0.00743469    0.00491953   -0.25250386
     atom   23 type  2   force =     0.00561791   -0.00787402    0.26339143
     atom   24 type  1   force =     0.00307335    0.02551233   -0.01123349
     atom   25 type  2   force =     0.00843286    0.00597283   -0.25553365
     atom   26 type  2   force =     0.00178894   -0.01630785    0.26564470
     atom   27 type  1   force =     0.00281079    0.00816616    0.00666018
     atom   28 type  2   force =    -0.00349861   -0.02860231   -0.27174315
     atom   29 type  2   force =     0.00567341   -0.00233511    0.26362926
     atom   30 type  1   force =     0.00101071    0.00627012    0.00688288
     atom   31 type  2   force =    -0.01468507    0.00258621   -0.24774540
     atom   32 type  2   force =    -0.00402359   -0.01454888    0.27198741
     atom   33 type  1   force =     0.00378638    0.00293469   -0.01065641
     atom   34 type  2   force =    -0.06516337   -0.19250677    0.17590989
     atom   35 type  2   force =    -0.00068928   -0.01079050    0.27618478
     atom   36 type  3   force =     0.01389743    0.02736313   -0.04963008
     The ionic contribution  to forces
     atom    1 type  1   force =     0.09843577    0.68236926    5.77115184
     atom    2 type  2   force =    -0.52109966    0.44479910   39.36050400
     atom    3 type  2   force =    -0.13409894    0.06373217  -36.22943875
     atom    4 type  1   force =    -0.12734687    0.49615956    0.71238126
     atom    5 type  2   force =    -0.99080850    1.48824788   38.67004051
     atom    6 type  2   force =     0.29496429   -0.52993567  -37.92841899
     atom    7 type  1   force =    -2.77625016   -3.02584969    2.33402561
     atom    8 type  2   force =    -1.14321498   -0.20417702   37.36558921
     atom    9 type  2   force =     0.24456317   -0.13007682  -38.01476370
     atom   10 type  1   force =    -1.07212669    0.03799577    4.90616985
     atom   11 type  2   force =    -0.73517770   -1.61284380   39.10456832
     atom   12 type  2   force =     0.30577920    0.63913053  -37.94412737
     atom   13 type  1   force =     0.47503594    1.09323688    2.80453154
     atom   14 type  2   force =    -0.01616637    0.09011764   38.63694738
     atom   15 type  2   force =     0.17350572    0.01538685  -36.87646766
     atom   16 type  1   force =     0.02320354    3.86095718    0.52478283
     atom   17 type  2   force =     0.83490156    1.49257725   37.96252939
     atom   18 type  2   force =    -0.14514784   -0.57834353  -38.48430631
     atom   19 type  1   force =     2.76249043   -2.74169626    0.51649272
     atom   20 type  2   force =     0.20503039   -0.24272918  -38.49673289
     atom   21 type  1   force =     0.04797121    0.06662037    1.31865817
     atom   22 type  2   force =     0.55225656   -1.74612370   38.49369701
     atom   23 type  2   force =     0.00927166    0.58675871  -38.38234772
     atom   24 type  1   force =    -0.33013031    1.10602836    5.50511956
     atom   25 type  2   force =     0.57950476    0.35508678   39.25737002
     atom   26 type  2   force =    -0.26829970    0.13677179  -37.35012805
     atom   27 type  1   force =     0.19650593    0.42111882   -1.99382812
     atom   28 type  2   force =     0.05612703    0.89564922   38.22279764
     atom   29 type  2   force =    -0.23663246   -0.40236934  -37.31757250
     atom   30 type  1   force =    -0.19108979   -1.33983624   -0.77477937
     atom   31 type  2   force =     1.35595626   -0.18222034   37.30151334
     atom   32 type  2   force =    -0.36996983   -0.09807500  -38.60595505
     atom   33 type  1   force =     0.74413628   -0.40036423    1.63194631
     atom   34 type  2   force =     0.60420644   -0.60118186   37.29061240
     atom   35 type  2   force =    -0.23542723    0.55179893  -37.80740629
     atom   36 type  3   force =    -0.27085911   -0.68872037    8.51484383
     The local contribution  to forces
     atom    1 type  1   force =    -0.09109663   -0.73027482   -5.75942807
     atom    2 type  2   force =     0.51577128   -0.42422505  -39.11579164
     atom    3 type  2   force =     0.13539166   -0.04737192   35.97408435
     atom    4 type  1   force =     0.13949057   -0.50178980   -0.71242793
     atom    5 type  2   force =     0.98276173   -1.46058770  -38.44167802
     atom    6 type  2   force =    -0.28992622    0.53151288   37.68840417
     atom    7 type  1   force =     2.81218949    3.03525753   -2.31981029
     atom    8 type  2   force =     1.13812151    0.19998054  -37.12911023
     atom    9 type  2   force =    -0.24171050    0.14291795   37.76559805
     atom   10 type  1   force =     1.05271054   -0.02672782   -4.91794324
     atom   11 type  2   force =     0.72245511    1.60207746  -38.87835940
     atom   12 type  2   force =    -0.29922937   -0.62735635   37.70738450
     atom   13 type  1   force =    -0.47459161   -1.11603141   -2.80035274
     atom   14 type  2   force =     0.01290863   -0.07891622  -38.38557070
     atom   15 type  2   force =    -0.17147228   -0.00817033   36.62767592
     atom   16 type  1   force =    -0.02408966   -3.90798331   -0.50866367
     atom   17 type  2   force =    -0.83004787   -1.46262318  -37.72950459
     atom   18 type  2   force =     0.14511863    0.57910773   38.24621777
     atom   19 type  1   force =    -2.78942896    2.75071520   -0.50635030
     atom   20 type  2   force =    -0.20152325    0.25522940   38.25286583
     atom   21 type  1   force =    -0.05426031   -0.08185747   -1.32036568
     atom   22 type  2   force =    -0.54026416    1.73817878  -38.26411033
     atom   23 type  2   force =    -0.01384415   -0.57875528   38.14304248
     atom   24 type  1   force =     0.32178979   -1.13483177   -5.50274763
     atom   25 type  2   force =    -0.57361991   -0.34019109  -39.01958728
     atom   26 type  2   force =     0.26069502   -0.12264048   37.09946048
     atom   27 type  1   force =    -0.20189027   -0.43070482    1.99533763
     atom   28 type  2   force =    -0.05245096   -0.87265313  -37.97618236
     atom   29 type  2   force =     0.23365527    0.40591621   37.06991331
     atom   30 type  1   force =     0.18775665    1.33025219    0.76251806
     atom   31 type  2   force =    -1.34142721    0.17968393  -37.06222948
     atom   32 type  2   force =     0.36551833    0.11469268   38.36071720
     atom   33 type  1   force =    -0.72075510    0.40580549   -1.63024259
     atom   34 type  2   force =    -0.56784759    0.72449041  -37.45280850
     atom   35 type  2   force =     0.23101701   -0.53429556   37.56033726
     atom   36 type  3   force =     0.26420446    0.67066970   -8.46390191
     The core correction contribution to forces
     atom    1 type  1   force =     0.00000000    0.00000000    0.00000000
     atom    2 type  2   force =     0.00004563    0.00033499    0.02040087
     atom    3 type  2   force =     0.00058540    0.00036086   -0.02092112
     atom    4 type  1   force =     0.00000000    0.00000000    0.00000000
     atom    5 type  2   force =    -0.00078858    0.00199885    0.02033743
     atom    6 type  2   force =     0.00012179   -0.00080219   -0.02080603
     atom    7 type  1   force =     0.00000000    0.00000000    0.00000000
     atom    8 type  2   force =    -0.00050180   -0.00010145    0.01943543
     atom    9 type  2   force =    -0.00038707    0.00056084   -0.02100440
     atom   10 type  1   force =     0.00000000    0.00000000    0.00000000
     atom   11 type  2   force =    -0.00103019   -0.00080772    0.02021854
     atom   12 type  2   force =     0.00089184    0.00097952   -0.02064061
     atom   13 type  1   force =     0.00000000    0.00000000    0.00000000
     atom   14 type  2   force =    -0.00056455    0.00007210    0.02061645
     atom   15 type  2   force =     0.00065800    0.00042534   -0.02062468
     atom   16 type  1   force =     0.00000000    0.00000000    0.00000000
     atom   17 type  2   force =     0.00015348    0.00163413    0.02021688
     atom   18 type  2   force =     0.00019267   -0.00029922   -0.02086625
     atom   19 type  1   force =     0.00000000    0.00000000    0.00000000
     atom   20 type  2   force =     0.00015574    0.00056458   -0.02108645
     atom   21 type  1   force =     0.00000000    0.00000000    0.00000000
     atom   22 type  2   force =     0.00043149   -0.00066937    0.02017780
     atom   23 type  2   force =    -0.00034877    0.00075940   -0.02080265
     atom   24 type  1   force =     0.00000000    0.00000000    0.00000000
     atom   25 type  2   force =    -0.00000782   -0.00028606    0.02025351
     atom   26 type  2   force =    -0.00033019    0.00098563   -0.02097446
     atom   27 type  1   force =     0.00000000    0.00000000    0.00000000
     atom   28 type  2   force =     0.00023526    0.00191739    0.02081728
     atom   29 type  2   force =    -0.00050614   -0.00028502   -0.02063406
     atom   30 type  1   force =     0.00000000    0.00000000    0.00000000
     atom   31 type  2   force =     0.00095251   -0.00022746    0.01993494
     atom   32 type  2   force =     0.00005378    0.00075719   -0.02094502
     atom   33 type  1   force =     0.00000000    0.00000000    0.00000000
     atom   34 type  2   force =     0.00476879    0.01134685   -0.00544566
     atom   35 type  2   force =    -0.00012258    0.00103016   -0.02138295
     atom   36 type  3   force =     0.00000000    0.00000000    0.00000000
     The Hubbard contrib.    to forces
     atom    1 type  1   force =     0.00000000    0.00000000    0.00000000
     atom    2 type  2   force =     0.00000000    0.00000000    0.00000000
     atom    3 type  2   force =     0.00000000    0.00000000    0.00000000
     atom    4 type  1   force =     0.00000000    0.00000000    0.00000000
     atom    5 type  2   force =     0.00000000    0.00000000    0.00000000
     atom    6 type  2   force =     0.00000000    0.00000000    0.00000000
     atom    7 type  1   force =     0.00000000    0.00000000    0.00000000
     atom    8 type  2   force =     0.00000000    0.00000000    0.00000000
     atom    9 type  2   force =     0.00000000    0.00000000    0.00000000
     atom   10 type  1   force =     0.00000000    0.00000000    0.00000000
     atom   11 type  2   force =     0.00000000    0.00000000    0.00000000
     atom   12 type  2   force =     0.00000000    0.00000000    0.00000000
     atom   13 type  1   force =     0.00000000    0.00000000    0.00000000
     atom   14 type  2   force =     0.00000000    0.00000000    0.00000000
     atom   15 type  2   force =     0.00000000    0.00000000    0.00000000
     atom   16 type  1   force =     0.00000000    0.00000000    0.00000000
     atom   17 type  2   force =     0.00000000    0.00000000    0.00000000
     atom   18 type  2   force =     0.00000000    0.00000000    0.00000000
     atom   19 type  1   force =     0.00000000    0.00000000    0.00000000
     atom   20 type  2   force =     0.00000000    0.00000000    0.00000000
     atom   21 type  1   force =     0.00000000    0.00000000    0.00000000
     atom   22 type  2   force =     0.00000000    0.00000000    0.00000000
     atom   23 type  2   force =     0.00000000    0.00000000    0.00000000
     atom   24 type  1   force =     0.00000000    0.00000000    0.00000000
     atom   25 type  2   force =     0.00000000    0.00000000    0.00000000
     atom   26 type  2   force =     0.00000000    0.00000000    0.00000000
     atom   27 type  1   force =     0.00000000    0.00000000    0.00000000
     atom   28 type  2   force =     0.00000000    0.00000000    0.00000000
     atom   29 type  2   force =     0.00000000    0.00000000    0.00000000
     atom   30 type  1   force =     0.00000000    0.00000000    0.00000000
     atom   31 type  2   force =     0.00000000    0.00000000    0.00000000
     atom   32 type  2   force =     0.00000000    0.00000000    0.00000000
     atom   33 type  1   force =     0.00000000    0.00000000    0.00000000
     atom   34 type  2   force =     0.00000000    0.00000000    0.00000000
     atom   35 type  2   force =     0.00000000    0.00000000    0.00000000
     atom   36 type  3   force =     0.00000000    0.00000000    0.00000000
     The SCF correction term to forces
     atom    1 type  1   force =     0.00007139   -0.00013115   -0.00042955
     atom    2 type  2   force =    -0.00003856    0.00011237   -0.00041356
     atom    3 type  2   force =     0.00002120    0.00004661    0.00009958
     atom    4 type  1   force =     0.00025078   -0.00035965   -0.00053404
     atom    5 type  2   force =    -0.00002864   -0.00008502   -0.00030188
     atom    6 type  2   force =    -0.00001570   -0.00001475    0.00005413
     atom    7 type  1   force =     0.00015674    0.00003232   -0.00068429
     atom    8 type  2   force =     0.00010538   -0.00012930   -0.00032906
     atom    9 type  2   force =     0.00012896   -0.00006451   -0.00002427
     atom   10 type  1   force =     0.00000079    0.00025589   -0.00066095
     atom   11 type  2   force =    -0.00003543    0.00019847   -0.00035601
     atom   12 type  2   force =     0.00004153    0.00014973    0.00002451
     atom   13 type  1   force =    -0.00007585   -0.00003198   -0.00054497
     atom   14 type  2   force =    -0.00000842    0.00001842   -0.00038747
     atom   15 type  2   force =    -0.00006217    0.00000789    0.00011465
     atom   16 type  1   force =    -0.00010213   -0.00040105   -0.00049355
     atom   17 type  2   force =     0.00001058   -0.00008996   -0.00035557
     atom   18 type  2   force =     0.00001771   -0.00007697    0.00011222
     atom   19 type  1   force =    -0.00018853    0.00011771   -0.00063821
     atom   20 type  2   force =    -0.00002168   -0.00014512   -0.00004473
     atom   21 type  1   force =    -0.00013949    0.00051363   -0.00049853
     atom   22 type  2   force =    -0.00002985    0.00020384   -0.00038688
     atom   23 type  2   force =    -0.00008088    0.00017105    0.00008646
     atom   24 type  1   force =     0.00001062    0.00014734   -0.00058332
     atom   25 type  2   force =     0.00004791    0.00005080   -0.00041084
     atom   26 type  2   force =     0.00003033    0.00000261    0.00011298
     atom   27 type  1   force =    -0.00014252   -0.00043527   -0.00045495
     atom   28 type  2   force =     0.00001155   -0.00006980   -0.00038177
     atom   29 type  2   force =    -0.00000034   -0.00004625    0.00009897
     atom   30 type  1   force =     0.00000734    0.00001373   -0.00067884
     atom   31 type  2   force =    -0.00006552   -0.00011358   -0.00031096
     atom   32 type  2   force =    -0.00010316   -0.00003454   -0.00002889
     atom   33 type  1   force =     0.00010642    0.00026688   -0.00062346
     atom   34 type  2   force =     0.00009533    0.00010406   -0.00045337
     atom   35 type  2   force =     0.00004011    0.00003210    0.00005415
     atom   36 type  3   force =     0.00001074    0.00001356   -0.00006447

     Total force =     0.096908     Total SCF correction =     0.002653
     Energy error            =      2.3E-02 Ry
     Gradient error          =      5.8E-02 Ry/Bohr

     number of scf cycles    =   2
     number of bfgs steps    =   1

     energy             old  =   -2205.5313332655 Ry
     energy             new  =   -2205.5546069515 Ry

     CASE: energy            _new < energy            _old

     new trust radius        =       0.0679778166 bohr
     new conv_thr            =       0.0000000577 Ry


ATOMIC_POSITIONS (angstrom)
Mo            6.5846878241        1.7639138480        2.8264699986
S             8.1598936642        0.8329593080        4.4359752359
S             8.1790331886        0.8231267404        1.2706359741
Mo            8.1050135458        4.4939465909        2.7179416652
S             6.4985286383        3.7155303105        4.3383637421
S             6.5585293261        3.5223267263        1.1241293413
Mo            6.4929177647        7.2169590395        2.6664445952
S             8.0826251900        6.3387940680        4.2638356898
S             8.0984067262        6.3089165306        1.0935624158
Mo            8.1321676740        9.9127194290        2.8180945150
S             6.4994659300        8.9401502823        4.3730371845
S             6.6178445352        9.0513547168        1.1440244458
Mo            3.4282746198        1.7533867220        2.7713637351
S             4.9836631889        0.8188539573        4.3630609113
S             5.0450348374        0.8488280996        1.2166867634
Mo            4.9798623616        4.5144933413        2.6329770166
S             3.4349469524        3.6730592822        4.2821129243
S             3.4315051746        3.5417995954        1.0742412695
Mo            3.4606691657        7.2144207762        2.6283698354
S             4.9870903764        6.3202199433        1.0367753490
Mo            5.0071990774        9.9086062224        2.7483725811
S             3.4765140420        8.9400769563        4.3200065078
S             3.4055318357        9.0677786347        1.1042468805
Mo            0.2865565421        1.7422556708        2.8311206819
S             1.8710882241        0.8218514351        4.4046544273
S             1.8503275609        0.8514459142        1.2029051510
Mo            1.8546239470        4.4912827366        2.6703775963
S             0.2732470105        3.6511955827        4.3313042506
S             0.2341978986        3.5285855679        1.1672794012
Mo            0.2667261409        7.2160721129        2.6871260264
S             1.9047356278        6.3106769128        4.2401603866
S             1.8493276588        6.3148325056        1.0526851460
Mo            1.8869628290        9.9448286438        2.7583643561
S             0.2891512883        9.0664903590        4.3339519188
S             0.2686296867        9.0520835298        1.1656318858
H            -0.0126330419        8.4673798740        5.5584717316



     Writing config-only to output data dir ./MoS2-V-O.save/
     NEW-OLD atomic charge density approx. for the potential

     negative rho (up, down):  1.433E-04 0.000E+00

     total cpu time spent up to now is      195.6 secs

     Self-consistent Calculation

     iteration #  1     ecut=    80.00 Ry     beta= 0.70
     Davidson diagonalization with overlap
     ethr =  1.00E-06,  avg # of iterations = 11.0

     negative rho (up, down):  1.038E-04 0.000E+00

     total cpu time spent up to now is      207.9 secs

     total energy              =   -2205.56349698 Ry
     estimated scf accuracy    <       0.00152513 Ry

     iteration #  2     ecut=    80.00 Ry     beta= 0.70
     Davidson diagonalization with overlap
     ethr =  4.97E-07,  avg # of iterations =  2.0

     negative rho (up, down):  1.047E-04 0.000E+00

     total cpu time spent up to now is      222.7 secs

     total energy              =   -2205.56356036 Ry
     estimated scf accuracy    <       0.00040570 Ry

     iteration #  3     ecut=    80.00 Ry     beta= 0.70
     Davidson diagonalization with overlap
     ethr =  1.32E-07,  avg # of iterations =  2.0

     negative rho (up, down):  9.730E-05 0.000E+00

     total cpu time spent up to now is      238.2 secs

     total energy              =   -2205.56357862 Ry
     estimated scf accuracy    <       0.00013265 Ry

     iteration #  4     ecut=    80.00 Ry     beta= 0.70
     Davidson diagonalization with overlap
     ethr =  4.32E-08,  avg # of iterations =  6.0

     negative rho (up, down):  9.888E-05 0.000E+00

     total cpu time spent up to now is      251.7 secs

     total energy              =   -2205.56359839 Ry
     estimated scf accuracy    <       0.00000497 Ry

     iteration #  5     ecut=    80.00 Ry     beta= 0.70
     Davidson diagonalization with overlap
     ethr =  1.62E-09,  avg # of iterations =  6.0

     negative rho (up, down):  1.024E-04 0.000E+00

     total cpu time spent up to now is      269.4 secs

     total energy              =   -2205.56360143 Ry
     estimated scf accuracy    <       0.00000293 Ry

     iteration #  6     ecut=    80.00 Ry     beta= 0.70
     Davidson diagonalization with overlap
     ethr =  9.56E-10,  avg # of iterations =  3.0

     negative rho (up, down):  1.077E-04 0.000E+00

     total cpu time spent up to now is      283.5 secs

     total energy              =   -2205.56360176 Ry
     estimated scf accuracy    <       0.00000047 Ry

     iteration #  7     ecut=    80.00 Ry     beta= 0.70
     Davidson diagonalization with overlap
     ethr =  1.54E-10,  avg # of iterations =  6.0

     negative rho (up, down):  1.111E-04 0.000E+00

     total cpu time spent up to now is      293.4 secs

     total energy              =   -2205.56360181 Ry
     estimated scf accuracy    <       0.00000023 Ry

     iteration #  8     ecut=    80.00 Ry     beta= 0.70
     Davidson diagonalization with overlap
     ethr =  7.47E-11,  avg # of iterations =  2.0

     negative rho (up, down):  1.196E-04 0.000E+00

     total cpu time spent up to now is      302.8 secs

     total energy              =   -2205.56360175 Ry
     estimated scf accuracy    <       0.00000012 Ry

     iteration #  9     ecut=    80.00 Ry     beta= 0.70
     Davidson diagonalization with overlap
     ethr =  4.03E-11,  avg # of iterations =  3.0

     negative rho (up, down):  1.369E-04 0.000E+00

     total cpu time spent up to now is      304.7 secs

     End of self-consistent calculation

          k = 0.0000 0.0000 0.0000 (105382 PWs)   bands (ev):

   -62.8855 -62.8372 -62.8133 -62.7988 -62.7722 -62.7578 -62.7560 -62.7430
   -62.7284 -62.5629 -62.5451 -62.4583 -37.1940 -37.1531 -37.1238 -37.0960
   -37.0691 -37.0595 -37.0397 -37.0341 -37.0130 -37.0068 -36.9931 -36.9814
   -36.9664 -36.9601 -36.9448 -36.9334 -36.9289 -36.9235 -36.9118 -36.9069
   -36.9048 -36.8782 -36.8618 -36.8467 -36.8321 -36.8197 -36.7832 -36.7456
   -36.7390 -36.7268 -36.7120 -36.6967 -36.6425 -36.6165 -36.5211 -36.4924
   -16.4104 -15.6898 -15.0602 -15.0130 -14.8851 -14.7750 -14.6313 -14.4097
   -14.4002 -14.3417 -14.3156 -14.2834 -14.2532 -14.1899 -14.1224 -14.0591
   -14.0320 -14.0227 -13.9260 -13.8924 -13.7510 -13.7292 -13.7095  -9.1641
    -7.5964  -7.4081  -7.3150  -7.2792  -7.1752  -7.1325  -7.1196  -7.0637
    -6.7673  -6.7129  -6.6715  -6.6383  -6.5945  -6.4959  -6.4249  -6.3712
    -6.3030  -6.2004  -6.1499  -5.9337  -5.8707  -5.8209  -5.7437  -5.7320
    -5.7146  -5.6390  -5.5905  -5.5718  -5.5544  -5.5102  -5.4418  -5.3595
    -5.3416  -5.2801  -5.2044  -5.0843  -5.0417  -5.0032  -4.9363  -4.8756
    -4.8577  -4.7582  -4.5571  -4.5405  -4.3905  -4.2837  -4.2419  -4.1848
    -4.1324  -4.1086  -3.9565  -3.8037  -3.7124  -3.7035  -3.6711  -3.6475
    -3.5867  -3.5277  -3.5199  -3.4502  -3.4084  -3.3958  -3.3781  -3.3032
    -3.2843  -3.1684  -3.0703  -2.8639  -2.8030  -2.7621  -2.6848  -2.6700
    -2.6437  -2.5895  -2.5848  -2.5172  -2.4524  -2.1661  -1.9299  -1.9111
    -1.8607  -0.6410  -0.5776  -0.5215  -0.1198  -0.0901  -0.0418   0.0293
     0.0995   0.1365   0.2708   0.3150   0.3342   0.3989   0.5058   0.5158
     0.5753   0.6154   0.6385   0.6734   0.6994   0.7102   0.7672   0.8064
     0.8690   0.8840   0.9557   0.9839   1.0349   1.0714   1.1380   1.1749
     1.5266

     the Fermi energy is    -0.6851 ev

!    total energy              =   -2205.56360169 Ry
     estimated scf accuracy    <       0.00000002 Ry
     smearing contrib. (-TS)   =      -0.00943188 Ry
     internal energy E=F+TS    =   -2205.55416982 Ry

     The total energy is F=E-TS. E is the sum of the following terms:
     one-electron contribution =  -18056.41476917 Ry
     hartree contribution      =    9015.71439885 Ry
     xc contribution           =    -385.39382524 Ry
     ewald contribution        =    7220.54002575 Ry

     convergence has been achieved in   9 iterations

     negative rho (up, down):  1.369E-04 0.000E+00

     Forces acting on atoms (cartesian axes, Ry/au):

     atom    1 type  1   force =    -0.00333136   -0.00225425   -0.00427868
     atom    2 type  2   force =    -0.00628709    0.00791421   -0.00146975
     atom    3 type  2   force =    -0.00966819    0.00619866   -0.01207658
     atom    4 type  1   force =     0.00364781    0.00133257    0.00195448
     atom    5 type  2   force =     0.00104522   -0.00585104   -0.00568972
     atom    6 type  2   force =     0.00373822    0.00325283    0.00317279
     atom    7 type  1   force =     0.00398335   -0.00251447    0.00132641
     atom    8 type  2   force =     0.00153426   -0.00251474    0.00852025
     atom    9 type  2   force =     0.00865597    0.00136967    0.00238415
     atom   10 type  1   force =    -0.00743468    0.01178625   -0.00325658
     atom   11 type  2   force =     0.00172098   -0.00107537   -0.00694825
     atom   12 type  2   force =    -0.00619814    0.00090835   -0.00352631
     atom   13 type  1   force =     0.00289895    0.00334324   -0.00080268
     atom   14 type  2   force =     0.00365178    0.00145699    0.00616752
     atom   15 type  2   force =    -0.00576887    0.00133173   -0.00543970
     atom   16 type  1   force =     0.00010607    0.00061359    0.00020093
     atom   17 type  2   force =     0.00464249    0.00125897    0.00284457
     atom   18 type  2   force =    -0.00367119   -0.00193936    0.00771270
     atom   19 type  1   force =     0.00208942   -0.00347092    0.00225334
     atom   20 type  2   force =     0.00274644   -0.00371978   -0.00257364
     atom   21 type  1   force =    -0.00104100    0.00193699    0.00144945
     atom   22 type  2   force =     0.00487587   -0.00291663   -0.00126153
     atom   23 type  2   force =     0.00436238   -0.00032180   -0.00100769
     atom   24 type  1   force =    -0.00231275   -0.00239361   -0.00299007
     atom   25 type  2   force =     0.00972098    0.01369539   -0.00251269
     atom   26 type  2   force =    -0.00177683    0.00064652   -0.00603433
     atom   27 type  1   force =    -0.00037425   -0.00028356    0.00588645
     atom   28 type  2   force =    -0.00034062   -0.00476527   -0.00330775
     atom   29 type  2   force =     0.00204106    0.00111282   -0.00421451
     atom   30 type  1   force =    -0.00147508   -0.00723975    0.00327366
     atom   31 type  2   force =     0.00021826    0.00026548    0.00616275
     atom   32 type  2   force =    -0.00524647    0.00099003    0.00428688
     atom   33 type  1   force =     0.00496880    0.00585115    0.00435111
     atom   34 type  2   force =    -0.01685569   -0.04549308    0.00501700
     atom   35 type  2   force =    -0.00189687    0.00888016    0.00506884
     atom   36 type  3   force =     0.00703077    0.01260807   -0.00464282
     The non-local contrib.  to forces
     atom    1 type  1   force =    -0.00306994    0.03271842   -0.01213398
     atom    2 type  2   force =    -0.00235113   -0.01102423   -0.26331998
     atom    3 type  2   force =    -0.01070885   -0.01031454    0.26371598
     atom    4 type  1   force =    -0.00588896    0.00711342    0.00078854
     atom    5 type  2   force =     0.00986207   -0.03586550   -0.25534666
     atom    6 type  2   force =    -0.00114268    0.00244856    0.26493771
     atom    7 type  1   force =    -0.03305088   -0.01212909   -0.01490683
     atom    8 type  2   force =     0.00726905    0.00163226   -0.24502167
     atom    9 type  2   force =     0.00676368   -0.01134190    0.27407757
     atom   10 type  1   force =    -0.00367200    0.00265654   -0.00642575
     atom   11 type  2   force =     0.01470382    0.00962319   -0.25357427
     atom   12 type  2   force =    -0.01232420   -0.01180915    0.25615903
     atom   13 type  1   force =     0.00523865    0.02850982   -0.00635589
     atom   14 type  2   force =     0.00773072   -0.00988165   -0.26366656
     atom   15 type  2   force =    -0.00874616   -0.00649377    0.26213724
     atom   16 type  1   force =     0.00074976    0.04891897   -0.01669462
     atom   17 type  2   force =    -0.00077815   -0.02972159   -0.25057744
     atom   18 type  2   force =    -0.00418230   -0.00299100    0.26811987
     atom   19 type  1   force =     0.03288891   -0.01218518   -0.00963878
     atom   20 type  2   force =    -0.00080479   -0.01630874    0.26302212
     atom   21 type  1   force =     0.00224467    0.01981075    0.00363620
     atom   22 type  2   force =    -0.00555050    0.00472976   -0.25069319
     atom   23 type  2   force =     0.00878218   -0.00931965    0.26018812
     atom   24 type  1   force =     0.00162160    0.02471750   -0.01052517
     atom   25 type  2   force =     0.00483592    0.00056174   -0.25792230
     atom   26 type  2   force =     0.00484524   -0.01435140    0.26541699
     atom   27 type  1   force =     0.00249151    0.00729244    0.00561228
     atom   28 type  2   force =    -0.00377085   -0.02846663   -0.27142393
     atom   29 type  2   force =     0.00509914   -0.00391538    0.26432348
     atom   30 type  1   force =     0.00057439    0.00544938    0.00597502
     atom   31 type  2   force =    -0.01493876    0.00256903   -0.25129388
     atom   32 type  2   force =    -0.00107370   -0.01565924    0.27132278
     atom   33 type  1   force =     0.00918431    0.00443761   -0.01190139
     atom   34 type  2   force =    -0.06333015   -0.17309372    0.18607708
     atom   35 type  2   force =     0.00175698   -0.01011307    0.27714472
     atom   36 type  3   force =     0.01290349    0.02564058   -0.04974126
     The ionic contribution  to forces
     atom    1 type  1   force =    -0.04581521    0.96487067    5.74968316
     atom    2 type  2   force =    -0.30498134    0.30207679   39.44189464
[...]
     atom   27 type  1   force =     0.00560009    0.00754927    0.00134793
     atom   28 type  2   force =     0.00115319   -0.01506105   -0.27098219
     atom   29 type  2   force =    -0.00127061   -0.01244310    0.27033079
     atom   30 type  1   force =    -0.00034636   -0.00390660   -0.00798535
     atom   31 type  2   force =    -0.02163458    0.00411798   -0.25937469
     atom   32 type  2   force =     0.00052059   -0.01335060    0.26535630
     atom   33 type  1   force =     0.01989247    0.01233675   -0.01041320
     atom   34 type  2   force =    -0.00399580    0.00072414    0.27174454
     atom   35 type  2   force =    -0.00083852   -0.01475324    0.28477898
     atom   36 type  3   force =     0.00124762   -0.00125928   -0.06376409
     The ionic contribution  to forces
     atom    1 type  1   force =    -0.23731838    0.70740875    2.73474326
     atom    2 type  2   force =    -0.10879999    0.04649605   38.98220004
     atom    3 type  2   force =     0.19867672   -0.07904738  -37.62121866
     atom    4 type  1   force =    -0.43357548    0.13632484    0.30577030
     atom    5 type  2   force =    -0.84331419    1.28382068   38.46325061
     atom    6 type  2   force =     0.04989768   -0.31272935  -38.03541745
     atom    7 type  1   force =    -3.63486819   -1.50187747    0.63714738
     atom    8 type  2   force =    -1.38267837    0.23249256   38.41322642
     atom    9 type  2   force =     0.20309515    0.12275383  -38.50979016
     atom   10 type  1   force =     0.12155782   -0.74230936    2.36209325
     atom   11 type  2   force =    -0.66259641   -1.71904302   38.39727451
     atom   12 type  2   force =     0.08470544    0.17491084  -38.06127521
     atom   13 type  1   force =     0.21375338    0.60388773    3.10392185
     atom   14 type  2   force =     0.01490175   -0.17351605   38.73918772
     atom   15 type  2   force =    -0.04800913   -0.16831447  -37.33387428
     atom   16 type  1   force =     0.09864316    4.01205946    2.49528054
     atom   17 type  2   force =     0.88089093    1.27508152   38.61480305
     atom   18 type  2   force =    -0.09542680   -0.32178577  -37.97743518
     atom   19 type  1   force =     3.64156968   -1.38131344    1.72338649
     atom   20 type  2   force =    -0.04307762    0.15239727  -38.21417901
     atom   21 type  1   force =    -0.05307051   -0.85692514    1.92515105
     atom   22 type  2   force =     0.66395832   -1.69131323   38.51088525
     atom   23 type  2   force =    -0.14680907    0.12812307  -37.86184717
     atom   24 type  1   force =     0.01945082    0.06093633    2.41593569
     atom   25 type  2   force =     0.09847407    0.05045231   39.04616856
     atom   26 type  2   force =    -0.15132541   -0.11067211  -37.50124809
     atom   27 type  1   force =     0.37688128    0.14687226    1.03116298
     atom   28 type  2   force =    -0.04201957    0.49345401   38.25558509
     atom   29 type  2   force =     0.03262262   -0.25670268  -37.63960161
     atom   30 type  1   force =     0.06369142    0.39888497    1.72377946
     atom   31 type  2   force =     1.29784856    0.27112631   38.57993190
     atom   32 type  2   force =    -0.15573825    0.14559504  -38.31920479
     atom   33 type  1   force =    -0.08599308   -0.78383862    2.97636304
     atom   34 type  2   force =     0.02882479   -0.51255309   35.55326963
     atom   35 type  2   force =     0.06114010    0.21555173  -36.62945252
     atom   36 type  3   force =    -0.02596322   -0.04668836    8.71402608
     The local contribution  to forces
     atom    1 type  1   force =     0.24522100   -0.73518907   -2.73015422
     atom    2 type  2   force =     0.10742530   -0.02966996  -38.74702231
     atom    3 type  2   force =    -0.19484125    0.08832086   37.37533679
     atom    4 type  1   force =     0.43850371   -0.14469700   -0.30726670
     atom    5 type  2   force =     0.83996207   -1.26105741  -38.22733569
     atom    6 type  2   force =    -0.05497824    0.31619620   37.79330330
     atom    7 type  1   force =     3.67497387    1.50424548   -0.63497889
     atom    8 type  2   force =     1.36121815   -0.23690529  -38.17490641
     atom    9 type  2   force =    -0.20225774   -0.11150148   38.26570848
     atom   10 type  1   force =    -0.10034025    0.72976217   -2.35169090
     atom   11 type  2   force =     0.65257472    1.71050463  -38.16758633
     atom   12 type  2   force =    -0.08121430   -0.16114993   37.82004183
     atom   13 type  1   force =    -0.22341310   -0.63481564   -3.09934436
     atom   14 type  2   force =    -0.01455754    0.18408160  -38.49415502
     atom   15 type  2   force =     0.04747602    0.17675040   37.09177417
     atom   16 type  1   force =    -0.09920523   -4.06919718   -2.46559004
     atom   17 type  2   force =    -0.87715513   -1.25252414  -38.37888565
     atom   18 type  2   force =     0.10018971    0.32574633   37.73554645
     atom   19 type  1   force =    -3.68334115    1.38367086   -1.71908941
     atom   20 type  2   force =     0.04211659   -0.14368497   37.96938224
     atom   21 type  1   force =     0.05300260    0.83552712   -1.92578858
     atom   22 type  2   force =    -0.65334190    1.68373615  -38.28060092
     atom   23 type  2   force =     0.14225459   -0.11504509   37.61991214
     atom   24 type  1   force =    -0.01831565   -0.08096450   -2.41653550
     atom   25 type  2   force =    -0.09730390   -0.03381168  -38.81097311
     atom   26 type  2   force =     0.14786634    0.11981160   37.25494914
     atom   27 type  1   force =    -0.38232439   -0.15424961   -1.03304382
     atom   28 type  2   force =     0.04123621   -0.47866930  -38.00669946
     atom   29 type  2   force =    -0.03197466    0.26769526   37.39145918
     atom   30 type  1   force =    -0.06324633   -0.39458164   -1.71455471
     atom   31 type  2   force =    -1.27742653   -0.27567717  -38.34154169
     atom   32 type  2   force =     0.15578735   -0.13358621   38.07493378
     atom   33 type  1   force =     0.06408452    0.77067388   -2.96496803
     atom   34 type  2   force =    -0.02437011    0.51183431  -35.81716790
     atom   35 type  2   force =    -0.06020061   -0.20141731   36.36773299
     atom   36 type  3   force =     0.02525419    0.04834588   -8.64949645
     The core correction contribution to forces
     atom    1 type  1   force =     0.00000000    0.00000000    0.00000000
     atom    2 type  2   force =    -0.00019445    0.00110853    0.02020027
     atom    3 type  2   force =     0.00020562    0.00055814   -0.02098755
     atom    4 type  1   force =     0.00000000    0.00000000    0.00000000
     atom    5 type  2   force =    -0.00036000    0.00115762    0.02035432
     atom    6 type  2   force =    -0.00029586   -0.00014962   -0.02070183
     atom    7 type  1   force =     0.00000000    0.00000000    0.00000000
     atom    8 type  2   force =    -0.00150731   -0.00016509    0.02043916
     atom    9 type  2   force =     0.00030065    0.00064330   -0.02096441
     atom   10 type  1   force =     0.00000000    0.00000000    0.00000000
     atom   11 type  2   force =    -0.00067368   -0.00113786    0.01999653
     atom   12 type  2   force =     0.00028631    0.00076577   -0.02073863
     atom   13 type  1   force =     0.00000000    0.00000000    0.00000000
     atom   14 type  2   force =     0.00003626    0.00021414    0.02072949
     atom   15 type  2   force =    -0.00003979    0.00028607   -0.02071623
     atom   16 type  1   force =     0.00000000    0.00000000    0.00000000
     atom   17 type  2   force =     0.00046462    0.00114187    0.02038517
     atom   18 type  2   force =     0.00019069   -0.00013856   -0.02069381
     atom   19 type  1   force =     0.00000000    0.00000000    0.00000000
     atom   20 type  2   force =    -0.00012202    0.00044339   -0.02113569
     atom   21 type  1   force =     0.00000000    0.00000000    0.00000000
     atom   22 type  2   force =     0.00074756   -0.00098600    0.02003921
     atom   23 type  2   force =    -0.00039331    0.00067131   -0.02072514
     atom   24 type  1   force =     0.00000000    0.00000000    0.00000000
     atom   25 type  2   force =     0.00013714    0.00118467    0.02021199
     atom   26 type  2   force =    -0.00015384    0.00054509   -0.02098987
     atom   27 type  1   force =     0.00000000    0.00000000    0.00000000
     atom   28 type  2   force =    -0.00010436    0.00096857    0.02090786
     atom   29 type  2   force =     0.00009021    0.00050838   -0.02089869
     atom   30 type  1   force =     0.00000000    0.00000000    0.00000000
     atom   31 type  2   force =     0.00132792   -0.00015051    0.02046542
     atom   32 type  2   force =    -0.00020664    0.00064826   -0.02095571
     atom   33 type  1   force =     0.00000000    0.00000000    0.00000000
     atom   34 type  2   force =     0.00025849   -0.00031098   -0.01124425
     atom   35 type  2   force =     0.00007254    0.00084128   -0.02146840
     atom   36 type  3   force =     0.00000000    0.00000000    0.00000000
     The Hubbard contrib.    to forces
     atom    1 type  1   force =     0.00000000    0.00000000    0.00000000
     atom    2 type  2   force =     0.00000000    0.00000000    0.00000000
     atom    3 type  2   force =     0.00000000    0.00000000    0.00000000
     atom    4 type  1   force =     0.00000000    0.00000000    0.00000000
     atom    5 type  2   force =     0.00000000    0.00000000    0.00000000
     atom    6 type  2   force =     0.00000000    0.00000000    0.00000000
     atom    7 type  1   force =     0.00000000    0.00000000    0.00000000
     atom    8 type  2   force =     0.00000000    0.00000000    0.00000000
     atom    9 type  2   force =     0.00000000    0.00000000    0.00000000
     atom   10 type  1   force =     0.00000000    0.00000000    0.00000000
     atom   11 type  2   force =     0.00000000    0.00000000    0.00000000
     atom   12 type  2   force =     0.00000000    0.00000000    0.00000000
     atom   13 type  1   force =     0.00000000    0.00000000    0.00000000
     atom   14 type  2   force =     0.00000000    0.00000000    0.00000000
     atom   15 type  2   force =     0.00000000    0.00000000    0.00000000
     atom   16 type  1   force =     0.00000000    0.00000000    0.00000000
     atom   17 type  2   force =     0.00000000    0.00000000    0.00000000
     atom   18 type  2   force =     0.00000000    0.00000000    0.00000000
     atom   19 type  1   force =     0.00000000    0.00000000    0.00000000
     atom   20 type  2   force =     0.00000000    0.00000000    0.00000000
     atom   21 type  1   force =     0.00000000    0.00000000    0.00000000
     atom   22 type  2   force =     0.00000000    0.00000000    0.00000000
     atom   23 type  2   force =     0.00000000    0.00000000    0.00000000
     atom   24 type  1   force =     0.00000000    0.00000000    0.00000000
     atom   25 type  2   force =     0.00000000    0.00000000    0.00000000
     atom   26 type  2   force =     0.00000000    0.00000000    0.00000000
     atom   27 type  1   force =     0.00000000    0.00000000    0.00000000
     atom   28 type  2   force =     0.00000000    0.00000000    0.00000000
     atom   29 type  2   force =     0.00000000    0.00000000    0.00000000
     atom   30 type  1   force =     0.00000000    0.00000000    0.00000000
     atom   31 type  2   force =     0.00000000    0.00000000    0.00000000
     atom   32 type  2   force =     0.00000000    0.00000000    0.00000000
     atom   33 type  1   force =     0.00000000    0.00000000    0.00000000
     atom   34 type  2   force =     0.00000000    0.00000000    0.00000000
     atom   35 type  2   force =     0.00000000    0.00000000    0.00000000
     atom   36 type  3   force =     0.00000000    0.00000000    0.00000000
     The SCF correction term to forces
     atom    1 type  1   force =     0.00001660   -0.00003029    0.00000155
     atom    2 type  2   force =     0.00001199   -0.00001937    0.00000248
     atom    3 type  2   force =    -0.00000259   -0.00001262    0.00000057
     atom    4 type  1   force =     0.00001352    0.00005666   -0.00000060
     atom    5 type  2   force =     0.00000510    0.00001480    0.00000714
     atom    6 type  2   force =     0.00000947    0.00001342   -0.00001503
     atom    7 type  1   force =     0.00001828    0.00000573   -0.00000466
     atom    8 type  2   force =     0.00001177    0.00001364   -0.00000897
     atom    9 type  2   force =    -0.00000011    0.00001447    0.00001232
     atom   10 type  1   force =     0.00001316   -0.00004121    0.00001034
     atom   11 type  2   force =     0.00000407   -0.00000492   -0.00000554
     atom   12 type  2   force =     0.00000756   -0.00000822    0.00000542
     atom   13 type  1   force =    -0.00001053   -0.00003432    0.00002063
     atom   14 type  2   force =    -0.00001307   -0.00001992    0.00000396
     atom   15 type  2   force =     0.00000049   -0.00001746    0.00000317
     atom   16 type  1   force =    -0.00001191    0.00004824    0.00000509
     atom   17 type  2   force =    -0.00001563    0.00001648    0.00001590
     atom   18 type  2   force =    -0.00000158    0.00000891   -0.00000236
     atom   19 type  1   force =    -0.00002981    0.00000805    0.00004265
     atom   20 type  2   force =     0.00001140    0.00001127    0.00000691
     atom   21 type  1   force =    -0.00001105   -0.00002566    0.00000752
     atom   22 type  2   force =    -0.00002267   -0.00000233    0.00000526
     atom   23 type  2   force =    -0.00000016   -0.00000221    0.00002106
     atom   24 type  1   force =     0.00001461   -0.00001642    0.00001470
     atom   25 type  2   force =    -0.00000308   -0.00002475    0.00001274
     atom   26 type  2   force =    -0.00000545   -0.00001260    0.00001360
     atom   27 type  1   force =    -0.00001813    0.00005181    0.00003616
     atom   28 type  2   force =     0.00001284    0.00001197    0.00000763
     atom   29 type  2   force =    -0.00000527    0.00001093    0.00000286
     atom   30 type  1   force =     0.00000022    0.00001527    0.00002648
     atom   31 type  2   force =     0.00000355    0.00001444    0.00000461
     atom   32 type  2   force =    -0.00000673    0.00001083    0.00002208
     atom   33 type  1   force =    -0.00000527   -0.00004430    0.00005782
     atom   34 type  2   force =     0.00001623   -0.00001303   -0.00000118
     atom   35 type  2   force =    -0.00000554   -0.00000878    0.00001793
     atom   36 type  3   force =     0.00000274   -0.00000116   -0.00000001

     Total force =     0.007624     Total SCF correction =     0.000187
     Energy error            =      9.1E-05 Ry
     Gradient error          =      3.4E-03 Ry/Bohr

     bfgs converged in  23 scf cycles and  22 bfgs steps
     (criteria: energy <  1.0E-04 Ry, force <  1.0E-02 Ry/Bohr)

     End of BFGS Geometry Optimization

     Final energy             =   -2205.5899543356 Ry

     File ./MoS2-V-O.bfgs deleted, as requested
Begin final coordinates

ATOMIC_POSITIONS (angstrom)
Mo            6.5543577520        1.7561756501        2.7689332875
S             8.1129485771        0.8494746163        4.3799029586
S             8.1251070923        0.8399880053        1.1761554276
Mo            8.1194405065        4.4757004134        2.7109658796
S             6.5192983446        3.6563071969        4.3191161326
S             6.5460727528        3.5544212328        1.1146086380
Mo            6.5606089110        7.1645169638        2.6395670355
S             8.0630228000        6.2711245160        4.3089248028
S             8.1609430736        6.2891081399        1.0827892792
Mo            8.0873786999        9.9510763624        2.7688389449
S             6.5155890054        8.9107613123        4.3213191110
S             6.5731085107        9.0390652230        1.1188438866
Mo            3.4273190647        1.7597779364        2.7765389526
S             4.9932002955        0.8117439715        4.3593610417
S             4.9883275906        0.8331720899        1.1852521794
Mo            4.9869659241        4.5300199238        2.6725296228
S             3.4649510906        3.6577792058        4.3300634106
S             3.4284372646        3.5539309974        1.1222962664
Mo            3.4197771432        7.1593929490        2.6599455238
S             4.9833237914        6.3063055491        1.0564144556
Mo            4.9893588208        9.8918570146        2.7476385046
S             3.4657059453        8.9189931847        4.3330590292
S             3.4004004328        9.0340447601        1.1327541321
Mo            0.2598639688        1.7222601438        2.7753492518
S             1.8617264330        0.8569123241        4.3871914122
S             1.8572864076        0.8395170099        1.1846319434
Mo            1.8595361607        4.4740303596        2.7249531977
S             0.2545985242        3.5837172141        4.3222844059
S             0.2662668966        3.5358913452        1.1512403556
Mo            0.2596045726        7.1483667289        2.7384480413
S             1.9064647273        6.2712562193        4.3244361416
S             1.8247889724        6.2861025191        1.0983002673
Mo            1.8902616945        9.9530556365        2.7806975233
S             0.2534588015        9.0128812990        4.2513714807
S             0.2646231391        9.0421020923        1.2136016264
H             0.2282233244        9.0403718599        5.6164373871
End final coordinates



     Writing all to output data dir ./MoS2-V-O.save/
 
     init_run     :      2.39s CPU      2.75s WALL (       1 calls)
     electrons    :   2183.64s CPU   2427.38s WALL (      23 calls)
     update_pot   :     30.80s CPU     32.37s WALL (      22 calls)
     forces       :     30.07s CPU     34.58s WALL (      23 calls)

     Called by init_run:
     wfcinit      :      0.38s CPU      0.45s WALL (       1 calls)
     potinit      :      1.32s CPU      1.44s WALL (       1 calls)
     hinit0       :      0.17s CPU      0.26s WALL (       1 calls)

     Called by electrons:
     c_bands      :    251.12s CPU    254.83s WALL (     205 calls)
     sum_band     :     58.20s CPU     73.37s WALL (     205 calls)
     v_of_rho     :     83.98s CPU    101.36s WALL (     219 calls)
     newd         :     28.39s CPU     42.22s WALL (     219 calls)
     mix_rho      :   1771.10s CPU   1964.52s WALL (     205 calls)

     Called by c_bands:
     init_us_2    :      4.37s CPU      4.71s WALL (     411 calls)
     init_us_2:cp :      4.36s CPU      4.71s WALL (     411 calls)
     regterg      :    236.00s CPU    239.33s WALL (     205 calls)

     Called by *egterg:
     rdiaghg      :     19.66s CPU     19.91s WALL (    1126 calls)
     h_psi        :    135.01s CPU    136.30s WALL (    1158 calls)
     s_psi        :     17.46s CPU     17.52s WALL (    1158 calls)
     g_psi        :      0.89s CPU      0.90s WALL (     952 calls)

     Called by h_psi:
     h_psi:calbec :     19.51s CPU     19.61s WALL (    1158 calls)
     vloc_psi     :     96.24s CPU     97.26s WALL (    1158 calls)
     add_vuspsi   :     17.23s CPU     17.38s WALL (    1158 calls)

     General routines
     calbec       :     27.74s CPU     27.88s WALL (    1455 calls)
     fft          :     53.06s CPU     63.16s WALL (   14701 calls)
     ffts         :    796.63s CPU    983.57s WALL (  431959 calls)
     fftw         :     82.78s CPU     83.52s WALL (  124097 calls)
     interpolate  :      1.56s CPU      1.85s WALL (     219 calls)
 
     Parallel routines
 
     PWSCF        :  37m30.92s CPU  41m43.86s WALL

 
   This run was terminated on:   8: 1:17   4Nov2023            

=------------------------------------------------------------------------------=
   JOB DONE.
=------------------------------------------------------------------------------=
