
     Program PWSCF v.7.2 starts on  4Nov2023 at  4:12:55 

     This program is part of the open-source Quantum ESPRESSO suite
     for quantum simulation of materials; please cite
         "P. Giannozzi et al., J. Phys.:Condens. Matter 21 395502 (2009);
         "P. Giannozzi et al., J. Phys.:Condens. Matter 29 465901 (2017);
         "P. Giannozzi et al., J. Chem. Phys. 152 154105 (2020);
          URL http://www.quantum-espresso.org", 
     in publications or presentations arising from this work. More details at
     http://www.quantum-espresso.org/quote

     Parallel version (MPI & OpenMP), running on      48 processor cores
     Number of MPI processes:                48
     Threads/MPI process:                     1

     MPI processes distributed on     1 nodes
     88865 MiB available memory on the printing compute node when the environment starts
 
     Waiting for input...
     Reading input from standard input
Warning: card &CELL ignored
Warning: card CELL_DYNAMICS = 'BFGS', ignored
Warning: card CELL_DOFREE = '2DXY' ignored
Warning: card / ignored

     Current dimensions of program PWSCF are:
     Max number of different atomic species (ntypx) = 10
     Max number of k-points (npk) =  40000
     Max angular momentum in pseudopotentials (lmaxx) =  4

     IMPORTANT: XC functional enforced from input :
     Exchange-correlation= RVV10
                           (   1   4  13   4  26   0   0)
     Any further DFT definition will be discarded
     Please, verify this is what you really want


     gamma-point specific algorithms are used
     signal trapping enabled: kill the code with -SIGUSR1 to stop cleanly the simulation 
 
     R & G space division:  proc/nbgrp/npool/nimage =      48
     Subspace diagonalization in iterative solution of the eigenvalue problem:
     one sub-group per band group will be used
     scalapack distributed-memory algorithm (size of sub-group:  2*  2 procs)

 
     Parallelization info
     --------------------
     sticks:   dense  smooth     PW     G-vecs:    dense   smooth      PW
     Min         243     194     47                49060    35090    4376
     Max         246     196     50                49086    35128    4410
     Sum       11735    9389   2349              2355467  1685513  210763
 
     Using Slab Decomposition
 


     bravais-lattice index     =            0
     lattice parameter (alat)  =      17.8707  a.u.
     unit-cell volume          =   17436.2743 (a.u.)^3
     number of atoms/cell      =           36
     number of atomic types    =            3
     number of electrons       =       307.00
     number of Kohn-Sham states=          185
     kinetic-energy cutoff     =      80.0000  Ry
     charge density cutoff     =     400.0000  Ry
     scf convergence threshold =      1.0E-06
     mixing beta               =       0.7000
     number of iterations used =            8  local-TF  mixing
     energy convergence thresh.=      1.0E-04
     force convergence thresh. =      1.0E-02
     Exchange-correlation= RVV10
                           (   1   4  13   4  26   0   0)
     nstep                     =          200


     celldm(1)=  17.870686  celldm(2)=   0.000000  celldm(3)=   0.000000
     celldm(4)=   0.000000  celldm(5)=   0.000000  celldm(6)=   0.000000

     crystal axes: (cart. coord. in units of alat)
               a(1) = (   1.000000   0.000000   0.000000 )  
               a(2) = (   0.000000   1.155671   0.000000 )  
               a(3) = (   0.000000   0.000000   2.643601 )  

     reciprocal axes: (cart. coord. in units 2 pi/alat)
               b(1) = (  1.000000  0.000000  0.000000 )  
               b(2) = (  0.000000  0.865298  0.000000 )  
               b(3) = (  0.000000  0.000000  0.378272 )  


     PseudoPot. # 1 for Mo read from file:
     ../pseudo/Mo_ONCV_PBE-1.0.oncvpsp.upf
     MD5 check sum: 1b5d28e075c9ccadda658a603575cd1f
     Pseudo is Norm-conserving, Zval = 14.0
     Generated using ONCVPSP code by D. R. Hamann
     Using radial grid of 1526 points,  6 beta functions with: 
                l(1) =   0
                l(2) =   0
                l(3) =   1
                l(4) =   1
                l(5) =   2
                l(6) =   2

     PseudoPot. # 2 for S  read from file:
     ../pseudo/s_pbe_v1.4.uspp.F.UPF
     MD5 check sum: 88d86576ff6df21479756cfb9bdac1df
     Pseudo is Ultrasoft + core correction, Zval =  6.0
     Generated by new atomic code, or converted to UPF format
     Using radial grid of  907 points,  6 beta functions with: 
                l(1) =   0
                l(2) =   0
                l(3) =   1
                l(4) =   1
                l(5) =   2
                l(6) =   2
     Q(r) pseudized with  8 coefficients,  rinner =    1.300   1.300   1.300
                                                       1.300   1.300

     PseudoPot. # 3 for H  read from file:
     ../pseudo/H_ONCV_PBE-1.0.oncvpsp.upf
     MD5 check sum: 1790becc920ee074925cf490c71280fe
     Pseudo is Norm-conserving, Zval =  1.0
     Generated using ONCVPSP code by D. R. Hamann
     Using radial grid of 1166 points,  2 beta functions with: 
                l(1) =   0
                l(2) =   0

     atomic species   valence    mass     pseudopotential
        Mo            14.00    95.94000     Mo( 1.00)
        S              6.00    32.06500     S ( 1.00)
        H              1.00     1.00794     H ( 1.00)

     No symmetry found



   Cartesian axes

     site n.     atom                  positions (alat units)
         1           Mo  tau(   1) = (   0.6952221   0.1890506   0.2985846  )
         2           S   tau(   2) = (   0.8646417   0.0856217   0.4689279  )
         3           S   tau(   3) = (   0.8663890   0.0857843   0.1351291  )
         4           Mo  tau(   4) = (   0.8560186   0.4753274   0.2873942  )
         5           S   tau(   5) = (   0.6873294   0.3936244   0.4596353  )
         6           S   tau(   6) = (   0.6929804   0.3713468   0.1185692  )
         7           Mo  tau(   7) = (   0.6862796   0.7633098   0.2825370  )
         8           S   tau(   8) = (   0.8545980   0.6708292   0.4486168  )
         9           S   tau(   9) = (   0.8545123   0.6666874   0.1146125  )
        10           Mo  tau(  10) = (   0.8629403   1.0471007   0.3006803  )
        11           S   tau(  11) = (   0.6868280   0.9456650   0.4634891  )
        12           S   tau(  12) = (   0.6998113   0.9568511   0.1205389  )
        13           Mo  tau(  13) = (   0.3618216   0.1847309   0.2935964  )
        14           S   tau(  14) = (   0.5260962   0.0863870   0.4600448  )
        15           S   tau(  15) = (   0.5348379   0.0894875   0.1297123  )
        16           Mo  tau(  16) = (   0.5265817   0.4772436   0.2784130  )
        17           S   tau(  17) = (   0.3624753   0.3882513   0.4525556  )
        18           S   tau(  18) = (   0.3635411   0.3752055   0.1119148  )
        19           Mo  tau(  19) = (   0.3652268   0.7630864   0.2781795  )
        20           S   tau(  20) = (   0.5269494   0.6690381   0.1096838  )
        21           Mo  tau(  21) = (   0.5300192   1.0470394   0.2900995  )
        22           S   tau(  22) = (   0.3670346   0.9457522   0.4574073  )
        23           S   tau(  23) = (   0.3604225   0.9585725   0.1159032  )
        24           Mo  tau(  24) = (   0.0313099   0.1847895   0.3013130  )
        25           S   tau(  25) = (   0.1956761   0.0838230   0.4650863  )
        26           S   tau(  26) = (   0.1967693   0.0903508   0.1278874  )
        27           Mo  tau(  27) = (   0.1967578   0.4753919   0.2813011  )
        28           S   tau(  28) = (   0.0287851   0.3864324   0.4586755  )
        29           S   tau(  29) = (   0.0244514   0.3729871   0.1239344  )
        30           Mo  tau(  30) = (   0.0286728   0.7631204   0.2856894  )
        31           S   tau(  31) = (   0.2011512   0.6675435   0.4465001  )
        32           S   tau(  32) = (   0.1969214   0.6672839   0.1104564  )
        33           Mo  tau(  33) = (   0.1950294   1.0511147   0.2932237  )
        34           S   tau(  34) = (   0.0312912   0.9612169   0.4667423  )
        35           S   tau(  35) = (   0.0292670   0.9563028   0.1216485  )
        36           H   tau(  36) = (   0.4444444   0.6420393   0.5792558  )

     number of k points=     1  Gaussian smearing, width (Ry)=  0.0100
                       cart. coord. in units 2pi/alat
        k(    1) = (   0.0000000   0.0000000   0.0000000), wk =   2.0000000

     Dense  grid:  1177734 G-vectors     FFT dimensions: ( 120, 135, 320)

     Smooth grid:   842757 G-vectors     FFT dimensions: ( 108, 120, 270)

     Estimated max dynamical RAM per process >     146.59 MB

     Estimated total dynamical RAM >       6.87 GB

     Initial potential from superposition of free atoms

     starting charge     306.9873, renormalised to     307.0000

     negative rho (up, down):  1.400E-04 0.000E+00


---------------------------------------------------------------------------------
Carrying out rVV10 run using the following parameters:
Nqs =      20    Nr_points =    1024   r_max =   100.000
b_value =  6.30000    beta =  0.00901
     q_mesh =  0.00010000  0.00030000  0.00058939  0.00100810
               0.00161396  0.00249058  0.00375900  0.00559430
               0.00824984  0.01209221  0.01765183  0.02569619
               0.03733578  0.05417739  0.07854596  0.11380545
               0.16482331  0.23864234  0.34545298  0.50000000

Gradients computed in Reciprocal space

---------------------------------------------------------------------------------


     Starting wfcs are  213 randomized atomic wfcs

     total cpu time spent up to now is        3.4 secs

     Self-consistent Calculation

     iteration #  1     ecut=    80.00 Ry     beta= 0.70
     Davidson diagonalization with overlap
     ethr =  1.00E-02,  avg # of iterations =  2.0

     Threshold (ethr) on eigenvalues was too large:
     Diagonalizing with lowered threshold

     Davidson diagonalization with overlap
     ethr =  3.09E-04,  avg # of iterations =  4.0

     negative rho (up, down):  1.923E-08 0.000E+00

     total cpu time spent up to now is       31.0 secs

     total energy              =   -2205.55778840 Ry
     estimated scf accuracy    <       1.24764005 Ry

     iteration #  2     ecut=    80.00 Ry     beta= 0.70
     Davidson diagonalization with overlap
     ethr =  4.06E-04,  avg # of iterations =  1.0

     total cpu time spent up to now is       33.3 secs

     total energy              =   -2205.38041899 Ry
     estimated scf accuracy    <       0.52695822 Ry

     iteration #  3     ecut=    80.00 Ry     beta= 0.70
     Davidson diagonalization with overlap
     ethr =  1.72E-04,  avg # of iterations =  2.0

     total cpu time spent up to now is       35.6 secs

     total energy              =   -2205.47831474 Ry
     estimated scf accuracy    <       0.11308645 Ry

     iteration #  4     ecut=    80.00 Ry     beta= 0.70
     Davidson diagonalization with overlap
     ethr =  3.68E-05,  avg # of iterations =  8.0

     total cpu time spent up to now is       38.1 secs

     total energy              =   -2205.48182323 Ry
     estimated scf accuracy    <       0.03061389 Ry

     iteration #  5     ecut=    80.00 Ry     beta= 0.70
     Davidson diagonalization with overlap
     ethr =  9.97E-06,  avg # of iterations =  2.0

     total cpu time spent up to now is       40.4 secs

     total energy              =   -2205.48271205 Ry
     estimated scf accuracy    <       0.01651888 Ry

     iteration #  6     ecut=    80.00 Ry     beta= 0.70
     Davidson diagonalization with overlap
     ethr =  5.38E-06,  avg # of iterations =  2.0

     total cpu time spent up to now is       42.5 secs

     total energy              =   -2205.48206491 Ry
     estimated scf accuracy    <       0.01120014 Ry

     iteration #  7     ecut=    80.00 Ry     beta= 0.70
     Davidson diagonalization with overlap
     ethr =  3.65E-06,  avg # of iterations =  2.0

     negative rho (up, down):  1.380E-03 0.000E+00

     total cpu time spent up to now is       47.2 secs

     total energy              =   -2205.47971025 Ry
     estimated scf accuracy    <       0.00706351 Ry

     iteration #  8     ecut=    80.00 Ry     beta= 0.70
     Davidson diagonalization with overlap
     c_bands:  1 eigenvalues not converged
     ethr =  2.30E-06,  avg # of iterations = 20.0

     negative rho (up, down):  1.390E-02 0.000E+00

     total cpu time spent up to now is       53.3 secs

     total energy              =   -2205.48033240 Ry
     estimated scf accuracy    <       0.00384453 Ry

     iteration #  9     ecut=    80.00 Ry     beta= 0.70
     Davidson diagonalization with overlap
     c_bands:  1 eigenvalues not converged
     ethr =  1.25E-06,  avg # of iterations = 20.0

     negative rho (up, down):  1.889E-02 0.000E+00

     total cpu time spent up to now is       59.0 secs

     total energy              =   -2205.48016037 Ry
     estimated scf accuracy    <       0.00172864 Ry

     iteration # 10     ecut=    80.00 Ry     beta= 0.70
     Davidson diagonalization with overlap
     ethr =  5.63E-07,  avg # of iterations =  2.0

     negative rho (up, down):  1.981E-02 0.000E+00

     total cpu time spent up to now is       64.9 secs

     total energy              =   -2205.48056103 Ry
     estimated scf accuracy    <       0.00072623 Ry

     iteration # 11     ecut=    80.00 Ry     beta= 0.70
     Davidson diagonalization with overlap
     ethr =  2.37E-07,  avg # of iterations =  2.0

     negative rho (up, down):  1.249E-02 0.000E+00

     total cpu time spent up to now is       70.7 secs

     total energy              =   -2205.48049206 Ry
     estimated scf accuracy    <       0.00053928 Ry

     iteration # 12     ecut=    80.00 Ry     beta= 0.70
     Davidson diagonalization with overlap
     ethr =  1.76E-07,  avg # of iterations =  2.0

     negative rho (up, down):  3.011E-03 0.000E+00

     total cpu time spent up to now is       79.4 secs

     total energy              =   -2205.48062209 Ry
     estimated scf accuracy    <       0.00003965 Ry

     iteration # 13     ecut=    80.00 Ry     beta= 0.70
     Davidson diagonalization with overlap
     ethr =  1.29E-08,  avg # of iterations =  6.0

     negative rho (up, down):  1.531E-03 0.000E+00

     total cpu time spent up to now is       88.6 secs

     total energy              =   -2205.48063915 Ry
     estimated scf accuracy    <       0.00001216 Ry

     iteration # 14     ecut=    80.00 Ry     beta= 0.70
     Davidson diagonalization with overlap
     ethr =  3.96E-09,  avg # of iterations =  2.0

     negative rho (up, down):  3.292E-04 0.000E+00

     total cpu time spent up to now is       98.7 secs

     total energy              =   -2205.48063831 Ry
     estimated scf accuracy    <       0.00000158 Ry

     iteration # 15     ecut=    80.00 Ry     beta= 0.70
     Davidson diagonalization with overlap
     ethr =  5.15E-10,  avg # of iterations =  4.0

     negative rho (up, down):  1.361E-04 0.000E+00

     total cpu time spent up to now is      100.9 secs

     End of self-consistent calculation

          k = 0.0000 0.0000 0.0000 (105382 PWs)   bands (ev):

   -62.9873 -62.9749 -62.9697 -62.9629 -62.9555 -62.9391 -62.9261 -62.9110
   -62.9021 -62.8932 -62.8763 -62.8648 -37.3468 -37.2889 -37.2603 -37.2374
   -37.2285 -37.2107 -37.1944 -37.1809 -37.1686 -37.1627 -37.1580 -37.1457
   -37.1387 -37.1334 -37.1286 -37.1239 -37.1110 -37.1025 -37.0997 -37.0977
   -37.0895 -37.0775 -37.0703 -37.0502 -37.0432 -37.0242 -37.0191 -37.0087
   -37.0045 -37.0011 -36.9670 -36.9510 -36.9414 -36.9021 -36.8990 -36.8436
   -16.0578 -15.2751 -15.2146 -15.0550 -14.9922 -14.8822 -14.5902 -14.5598
   -14.5340 -14.4985 -14.4697 -14.4244 -14.4095 -14.3654 -14.2193 -14.2108
   -14.1929 -14.1789 -14.1068 -13.9584 -13.9506 -13.9138 -13.8672  -7.7386
    -7.5745  -7.3882  -7.3660  -7.3404  -7.2898  -7.2764  -7.2145  -6.9196
    -6.9101  -6.8550  -6.8204  -6.7683  -6.5997  -6.5714  -6.5192  -6.4873
    -6.3620  -6.3243  -6.0683  -6.0053  -5.9880  -5.9199  -5.9051  -5.8414
    -5.8185  -5.7945  -5.7485  -5.7445  -5.6952  -5.6164  -5.6067  -5.5351
    -5.4944  -5.4638  -5.2477  -5.2043  -5.1291  -5.0828  -5.0749  -5.0121
    -4.9884  -4.9121  -4.7441  -4.6042  -4.4200  -4.4018  -4.3587  -4.3165
    -4.2598  -4.1298  -4.0672  -3.9251  -3.8848  -3.8431  -3.8216  -3.7655
    -3.7108  -3.6392  -3.6105  -3.5843  -3.5551  -3.5467  -3.5153  -3.4669
    -3.4468  -3.2712  -3.2008  -3.0114  -2.9595  -2.8955  -2.8580  -2.8205
    -2.7985  -2.7483  -2.7348  -2.7182  -2.6681  -2.5150  -2.1569  -2.0800
    -2.0597  -1.2503  -0.9457  -0.8142  -0.2703  -0.2275  -0.1987  -0.1253
    -0.0197   0.0419   0.0668   0.1389   0.1434   0.1892   0.2324   0.3131
     0.3719   0.4301   0.4493   0.4692   0.4956   0.5790   0.6325   0.6639
     0.6781   0.7186   0.7306   0.7857   0.8251   0.8717   0.9288   0.9608
     1.3214

     the Fermi energy is    -1.2504 ev

!    total energy              =   -2205.48063800 Ry
     estimated scf accuracy    <       0.00000091 Ry
     smearing contrib. (-TS)   =      -0.00567946 Ry
     internal energy E=F+TS    =   -2205.47495854 Ry

     The total energy is F=E-TS. E is the sum of the following terms:
     one-electron contribution =  -18037.13861702 Ry
     hartree contribution      =    9004.39447028 Ry
     xc contribution           =    -385.09373032 Ry
     ewald contribution        =    7212.36291852 Ry

     convergence has been achieved in  15 iterations

     negative rho (up, down):  1.361E-04 0.000E+00

     Forces acting on atoms (cartesian axes, Ry/au):

     atom    1 type  1   force =     0.01294905   -0.02536949    0.00649780
     atom    2 type  2   force =    -0.01460730    0.01695424    0.00027495
     atom    3 type  2   force =    -0.01177276    0.00914993   -0.00307032
     atom    4 type  1   force =     0.00341765    0.00321789   -0.00110216
     atom    5 type  2   force =    -0.00128037   -0.00775248   -0.00787419
     atom    6 type  2   force =     0.00043190    0.01123649    0.00014919
     atom    7 type  1   force =     0.01116565   -0.00986370   -0.01288545
     atom    8 type  2   force =     0.00243232   -0.00265844    0.01679560
     atom    9 type  2   force =     0.01257925    0.00713857    0.01232782
     atom   10 type  1   force =    -0.01163561    0.00862324   -0.02813054
     atom   11 type  2   force =     0.00568197   -0.00112640   -0.00776966
     atom   12 type  2   force =    -0.00088418    0.00102969    0.00752539
     atom   13 type  1   force =     0.00487218    0.00396644   -0.00863162
     atom   14 type  2   force =     0.00761625    0.00018179    0.01260717
     atom   15 type  2   force =    -0.01220470    0.00432488   -0.00938697
     atom   16 type  1   force =    -0.00182839    0.01146623    0.01582698
     atom   17 type  2   force =     0.00389793   -0.00186671    0.00214347
     atom   18 type  2   force =    -0.00265005   -0.00609977    0.01277136
     atom   19 type  1   force =     0.00408243   -0.01084106    0.01029352
     atom   20 type  2   force =     0.00351004   -0.00441082    0.00115585
     atom   21 type  1   force =    -0.00574602    0.00447893    0.00025145
     atom   22 type  2   force =    -0.00561468    0.00100919   -0.00433485
     atom   23 type  2   force =    -0.00026204    0.00012469    0.00928437
     atom   24 type  1   force =    -0.00846055   -0.00259490   -0.02190686
     atom   25 type  2   force =     0.01627770    0.01826636    0.00725933
     atom   26 type  2   force =    -0.01170356   -0.00097751   -0.00311803
     atom   27 type  1   force =     0.00438819    0.00156051    0.01147914
     atom   28 type  2   force =     0.00020820   -0.00122884   -0.00496402
     atom   29 type  2   force =     0.00184804   -0.00095914   -0.00299231
     atom   30 type  1   force =    -0.00524887    0.00858780   -0.00955105
     atom   31 type  2   force =    -0.00140549   -0.00025204    0.01995945
     atom   32 type  2   force =    -0.00854313    0.00664593    0.00768876
     atom   33 type  1   force =     0.01359467   -0.00587940   -0.00996226
     atom   34 type  2   force =     0.00345798   -0.04250330   -0.00806444
     atom   35 type  2   force =    -0.00819383    0.00821314    0.01528662
     atom   36 type  3   force =    -0.00036984   -0.00179192   -0.02583347
     The non-local contrib.  to forces
     atom    1 type  1   force =     0.00067613    0.03075848   -0.01158132
     atom    2 type  2   force =    -0.01064070    0.00222221   -0.27226424
     atom    3 type  2   force =    -0.01503197   -0.00186929    0.27009869
     atom    4 type  1   force =     0.00145218    0.00443039    0.00480352
     atom    5 type  2   force =     0.00966644   -0.03434009   -0.25663109
     atom    6 type  2   force =    -0.00475169    0.01257958    0.26407241
     atom    7 type  1   force =    -0.01730731   -0.00031590   -0.01602032
     atom    8 type  2   force =     0.00612337   -0.00329320   -0.25736926
     atom    9 type  2   force =     0.00656627   -0.00747779    0.27811952
     atom   10 type  1   force =     0.00596200    0.00213569   -0.00013237
     atom   11 type  2   force =     0.01419028    0.00589944   -0.26236916
     atom   12 type  2   force =    -0.01172775   -0.01804980    0.26369404
     atom   13 type  1   force =    -0.00277175    0.02085043   -0.00278155
     atom   14 type  2   force =     0.01104861   -0.01143742   -0.26458084
     atom   15 type  2   force =    -0.01316935   -0.00621197    0.26040564
     atom   16 type  1   force =     0.00203383    0.01449732   -0.03859611
     atom   17 type  2   force =     0.00925593   -0.02107054   -0.25599771
     atom   18 type  2   force =    -0.00285522   -0.00257713    0.27395598
     atom   19 type  1   force =     0.00416080    0.00161831   -0.02212123
     atom   20 type  2   force =    -0.00040240   -0.02232731    0.26414065
     atom   21 type  1   force =     0.00216627    0.02726098    0.00778470
     atom   22 type  2   force =    -0.00412764    0.01023716   -0.26390136
     atom   23 type  2   force =     0.00601438   -0.01713016    0.26944178
     atom   24 type  1   force =     0.00685178    0.01239531   -0.01100363
     atom   25 type  2   force =     0.01069069    0.00503166   -0.26271258
     atom   26 type  2   force =    -0.00374065   -0.01160541    0.26225015
     atom   27 type  1   force =    -0.00157364    0.00894227    0.00813818
     atom   28 type  2   force =    -0.00459521   -0.02239623   -0.27441632
     atom   29 type  2   force =     0.00654538    0.00307935    0.26309340
     atom   30 type  1   force =     0.00193655    0.01642085    0.00889211
     atom   31 type  2   force =     0.01590521    0.00412917   -0.25761878
     atom   32 type  2   force =    -0.00193914   -0.00781745    0.27432545
     atom   33 type  1   force =    -0.00482450    0.01254738    0.00526312
     atom   34 type  2   force =    -0.00293736   -0.03598761   -0.27196975
     atom   35 type  2   force =    -0.00113765   -0.01269794    0.27020695
     atom   36 type  3   force =    -0.00084606   -0.00032418   -0.00345821
     The ionic contribution  to forces
     atom    1 type  1   force =     0.44959791    0.13407010    5.66962471
     atom    2 type  2   force =    -0.64977372    0.39704922   39.28465508
     atom    3 type  2   force =    -0.15856081    0.01249858  -36.07367864
     atom    4 type  1   force =     0.17915721    0.48934742    0.57751169
     atom    5 type  2   force =    -0.82030728    1.32829965   38.68189833
     atom    6 type  2   force =     0.36815178   -0.53374827  -38.05076582
     atom    7 type  1   force =    -2.37068837   -2.62720034    2.28098772
     atom    8 type  2   force =    -0.88757905    0.04472459   37.34388099
     atom    9 type  2   force =     0.35881009   -0.03139563  -38.02937330
     atom   10 type  1   force =    -1.06515365   -0.23293791    5.65838909
     atom   11 type  2   force =    -0.45961434   -1.46057087   39.09847951
     atom   12 type  2   force =     0.46222798    0.72523129  -37.87011704
     atom   13 type  1   force =     0.44880004    0.86110360    2.79484541
     atom   14 type  2   force =     0.07519629   -0.02369428   38.50939877
     atom   15 type  2   force =     0.16374693   -0.06950438  -36.80591218
     atom   16 type  1   force =     0.11650227    3.65407787    0.00862629
     atom   17 type  2   force =     0.70353134    1.15663166   37.77595224
     atom   18 type  2   force =    -0.17255430   -0.68843561  -38.61036330
     atom   19 type  1   force =     2.55812589   -2.17893255    0.07320365
     atom   20 type  2   force =     0.24887579   -0.18848768  -38.57223477
     atom   21 type  1   force =     0.08176175    0.22469378    1.07707315
     atom   22 type  2   force =     0.39125508   -1.44923281   38.33753264
     atom   23 type  2   force =    -0.09679189    0.70744765  -38.32213985
     atom   24 type  1   force =    -0.58082421    1.07547176    5.84020275
     atom   25 type  2   force =     0.62715930    0.27147939   39.26695440
     atom   26 type  2   force =    -0.29966870    0.05984439  -37.32766222
     atom   27 type  1   force =    -0.18369528    0.23732668   -2.48794708
     atom   28 type  2   force =     0.00255600    0.93410601   38.18867590
     atom   29 type  2   force =    -0.27609908   -0.45202112  -37.27383451
     atom   30 type  1   force =    -0.43417539   -0.82335408   -0.13771731
     atom   31 type  2   force =     0.84777526   -0.01035166   37.12298419
     atom   32 type  2   force =    -0.51587434    0.00030093  -38.69096307
     atom   33 type  1   force =     0.71955446   -0.73351729    2.02382276
     atom   34 type  2   force =     0.20129030   -1.37191892   39.34447776
     atom   35 type  2   force =    -0.31010124    0.50221918  -37.81742453
     atom   36 type  3   force =     0.27738596    0.05937967    7.11095659
     The local contribution  to forces
     atom    1 type  1   force =    -0.43741754   -0.19007604   -5.65244626
     atom    2 type  2   force =     0.64553871   -0.38214923  -39.03377731
     atom    3 type  2   force =     0.16114626   -0.00144303   35.82152042
     atom    4 type  1   force =    -0.17730178   -0.49038416   -0.58415149
     atom    5 type  2   force =     0.81017320   -1.30362654  -38.45459363
     atom    6 type  2   force =    -0.36347460    0.53367004   37.80795883
     atom    7 type  1   force =     2.39928800    2.61774030   -2.27875640
     atom    8 type  2   force =     0.88407356   -0.04458034  -37.09114765
     atom    9 type  2   force =    -0.35278641    0.04555453   37.78482268
     atom   10 type  1   force =     1.04760553    0.23925000   -5.68725563
     atom   11 type  2   force =     0.45175129    1.45402430  -38.86556706
     atom   12 type  2   force =    -0.45253005   -0.70776121   37.63500565
     atom   13 type  1   force =    -0.44116150   -0.87792473   -2.80152149
     atom   14 type  2   force =    -0.07806528    0.03525621  -38.25375385
     atom   15 type  2   force =    -0.16351179    0.07969269   36.55679281
     atom   16 type  1   force =    -0.12035114   -3.65722429    0.04494456
     atom   17 type  2   force =    -0.70868758   -1.13877986  -37.53933810
     atom   18 type  2   force =     0.17279760    0.68550567   38.37040331
     atom   19 type  1   force =    -2.55829160    2.16654921   -0.04164497
     atom   20 type  2   force =    -0.24506958    0.20557546   38.33058133
     atom   21 type  1   force =    -0.08966264   -0.24773601   -1.08532277
     atom   22 type  2   force =    -0.39281774    1.44084954  -38.09966098
     atom   23 type  2   force =     0.09103591   -0.69168844   38.08311460
     atom   24 type  1   force =     0.56558206   -1.09042468   -5.85198947
     atom   25 type  2   force =    -0.62140592   -0.25783288  -39.01862082
     atom   26 type  2   force =     0.29181322   -0.04985711   37.08325289
     atom   27 type  1   force =     0.18974943   -0.24460294    2.49063716
     atom   28 type  2   force =     0.00197864   -0.91456739  -37.94098999
     atom   29 type  2   force =     0.27198344    0.44867172   37.02846038
     atom   30 type  1   force =     0.42696681    0.81549033    0.11851128
     atom   31 type  2   force =    -0.86474204    0.00602155  -36.86709806
     atom   32 type  2   force =     0.50951171    0.01365913   38.44555227
     atom   33 type  1   force =    -0.70115760    0.71502131   -2.03984805
     atom   34 type  2   force =    -0.19536719    1.36428486  -39.10245620
     atom   35 type  2   force =     0.30321153   -0.48242887   37.58371345
     atom   36 type  3   force =    -0.27690744   -0.06085076   -7.13342166
     The core correction contribution to forces
     atom    1 type  1   force =     0.00000000    0.00000000    0.00000000
     atom    2 type  2   force =     0.00027870   -0.00015426    0.02087033
     atom    3 type  2   force =     0.00069053   -0.00002629   -0.02087556
     atom    4 type  1   force =     0.00000000    0.00000000    0.00000000
     atom    5 type  2   force =    -0.00081665    0.00196728    0.02066874
     atom    6 type  2   force =     0.00047044   -0.00120080   -0.02094246
     atom    7 type  1   force =     0.00000000    0.00000000    0.00000000
     atom    8 type  2   force =    -0.00024253    0.00048205    0.02061611
     atom    9 type  2   force =    -0.00009206    0.00048535   -0.02104582
     atom   10 type  1   force =     0.00000000    0.00000000    0.00000000
     atom   11 type  2   force =    -0.00067906   -0.00058558    0.02085445
     atom   12 type  2   force =     0.00112521    0.00146048   -0.02085762
     atom   13 type  1   force =     0.00000000    0.00000000    0.00000000
     atom   14 type  2   force =    -0.00058359    0.00007714    0.02076105
     atom   15 type  2   force =     0.00071502    0.00038004   -0.02053276
     atom   16 type  1   force =     0.00000000    0.00000000    0.00000000
     atom   17 type  2   force =    -0.00022253    0.00139801    0.02075535
     atom   18 type  2   force =    -0.00002325   -0.00053632   -0.02104919
     atom   19 type  1   force =     0.00000000    0.00000000    0.00000000
     atom   20 type  2   force =     0.00014890    0.00085306   -0.02118389
     atom   21 type  1   force =     0.00000000    0.00000000    0.00000000
     atom   22 type  2   force =     0.00008941   -0.00088812    0.02092167
     atom   23 type  2   force =    -0.00051780    0.00141603   -0.02097283
     atom   24 type  1   force =     0.00000000    0.00000000    0.00000000
     atom   25 type  2   force =    -0.00015971   -0.00040293    0.02082414
     atom   26 type  2   force =    -0.00010220    0.00064070   -0.02079649
     atom   27 type  1   force =     0.00000000    0.00000000    0.00000000
     atom   28 type  2   force =     0.00029650    0.00166426    0.02098606
     atom   29 type  2   force =    -0.00055774   -0.00064880   -0.02056169
     atom   30 type  1   force =     0.00000000    0.00000000    0.00000000
     atom   31 type  2   force =    -0.00034001   -0.00009318    0.02094547
     atom   32 type  2   force =    -0.00020828    0.00048777   -0.02107245
     atom   33 type  1   force =     0.00000000    0.00000000    0.00000000
     atom   34 type  2   force =     0.00048640    0.00108427    0.02108010
     atom   35 type  2   force =    -0.00015474    0.00107523   -0.02104559
     atom   36 type  3   force =     0.00000000    0.00000000    0.00000000
     The Hubbard contrib.    to forces
     atom    1 type  1   force =     0.00000000    0.00000000    0.00000000
     atom    2 type  2   force =     0.00000000    0.00000000    0.00000000
     atom    3 type  2   force =     0.00000000    0.00000000    0.00000000
     atom    4 type  1   force =     0.00000000    0.00000000    0.00000000
     atom    5 type  2   force =     0.00000000    0.00000000    0.00000000
     atom    6 type  2   force =     0.00000000    0.00000000    0.00000000
     atom    7 type  1   force =     0.00000000    0.00000000    0.00000000
     atom    8 type  2   force =     0.00000000    0.00000000    0.00000000
     atom    9 type  2   force =     0.00000000    0.00000000    0.00000000
     atom   10 type  1   force =     0.00000000    0.00000000    0.00000000
     atom   11 type  2   force =     0.00000000    0.00000000    0.00000000
     atom   12 type  2   force =     0.00000000    0.00000000    0.00000000
     atom   13 type  1   force =     0.00000000    0.00000000    0.00000000
     atom   14 type  2   force =     0.00000000    0.00000000    0.00000000
     atom   15 type  2   force =     0.00000000    0.00000000    0.00000000
     atom   16 type  1   force =     0.00000000    0.00000000    0.00000000
     atom   17 type  2   force =     0.00000000    0.00000000    0.00000000
     atom   18 type  2   force =     0.00000000    0.00000000    0.00000000
     atom   19 type  1   force =     0.00000000    0.00000000    0.00000000
     atom   20 type  2   force =     0.00000000    0.00000000    0.00000000
     atom   21 type  1   force =     0.00000000    0.00000000    0.00000000
     atom   22 type  2   force =     0.00000000    0.00000000    0.00000000
     atom   23 type  2   force =     0.00000000    0.00000000    0.00000000
     atom   24 type  1   force =     0.00000000    0.00000000    0.00000000
     atom   25 type  2   force =     0.00000000    0.00000000    0.00000000
     atom   26 type  2   force =     0.00000000    0.00000000    0.00000000
     atom   27 type  1   force =     0.00000000    0.00000000    0.00000000
     atom   28 type  2   force =     0.00000000    0.00000000    0.00000000
     atom   29 type  2   force =     0.00000000    0.00000000    0.00000000
     atom   30 type  1   force =     0.00000000    0.00000000    0.00000000
     atom   31 type  2   force =     0.00000000    0.00000000    0.00000000
     atom   32 type  2   force =     0.00000000    0.00000000    0.00000000
     atom   33 type  1   force =     0.00000000    0.00000000    0.00000000
     atom   34 type  2   force =     0.00000000    0.00000000    0.00000000
     atom   35 type  2   force =     0.00000000    0.00000000    0.00000000
     atom   36 type  3   force =     0.00000000    0.00000000    0.00000000
     The SCF correction term to forces
     atom    1 type  1   force =     0.00009264   -0.00012597    0.00088352
     atom    2 type  2   force =    -0.00001021   -0.00001765    0.00077394
     atom    3 type  2   force =    -0.00001669   -0.00001399   -0.00015237
     atom    4 type  1   force =     0.00011013   -0.00017971    0.00071697
     atom    5 type  2   force =     0.00000401   -0.00005672    0.00076633
     atom    6 type  2   force =     0.00003606   -0.00006801   -0.00019091
     atom    7 type  1   force =    -0.00012658   -0.00009171    0.00088640
     atom    8 type  2   force =     0.00005707    0.00000453    0.00079827
     atom    9 type  2   force =     0.00008144   -0.00003182   -0.00021241
     atom   10 type  1   force =    -0.00004940    0.00017152    0.00085122
     atom   11 type  2   force =     0.00003389    0.00010236    0.00081545
     atom   12 type  2   force =     0.00002052    0.00014498   -0.00021679
     atom   13 type  1   force =     0.00000548   -0.00006680    0.00080886
     atom   14 type  2   force =     0.00002031   -0.00002380    0.00076489
     atom   15 type  2   force =     0.00001458   -0.00003546   -0.00015762
     atom   16 type  1   force =    -0.00001327    0.00011138    0.00083509
     atom   17 type  2   force =     0.00002086   -0.00004994    0.00075454
     atom   18 type  2   force =    -0.00001480   -0.00006032   -0.00019258
     atom   19 type  1   force =     0.00008742   -0.00007998    0.00083892
     atom   20 type  2   force =    -0.00004259   -0.00002830   -0.00016462
     atom   21 type  1   force =    -0.00001132    0.00025623    0.00069921
     atom   22 type  2   force =    -0.00001371    0.00003948    0.00075604
     atom   23 type  2   force =    -0.00000255    0.00007566   -0.00017646
     atom   24 type  1   force =    -0.00007010   -0.00004124    0.00086633
     atom   25 type  2   force =    -0.00000656   -0.00001282    0.00079706
     atom   26 type  2   force =    -0.00000515   -0.00000403   -0.00017951
     atom   27 type  1   force =    -0.00009223   -0.00010945    0.00063374
     atom   28 type  2   force =    -0.00002765   -0.00003943    0.00076318
     atom   29 type  2   force =    -0.00002387   -0.00004424   -0.00016704
     atom   30 type  1   force =     0.00002324    0.00002677    0.00074574
     atom   31 type  2   force =    -0.00000384    0.00003813    0.00072949
     atom   32 type  2   force =    -0.00003301    0.00001161   -0.00017059
     atom   33 type  1   force =     0.00002240    0.00006525    0.00078276
     atom   34 type  2   force =    -0.00001409    0.00003015    0.00078650
     atom   35 type  2   force =    -0.00001165    0.00004159   -0.00018080
     atom   36 type  3   force =    -0.00000221   -0.00000060    0.00007266

     Total force =     0.106229     Total SCF correction =     0.003872

     BFGS Geometry Optimization
     Energy error            =      0.0E+00 Ry
     Gradient error          =      4.3E-02 Ry/Bohr

     number of scf cycles    =   1
     number of bfgs steps    =   0

     energy             new  =   -2205.4806380011 Ry

     new trust radius        =       0.0433995738 bohr
     new conv_thr            =       0.0000010000 Ry


ATOMIC_POSITIONS (angstrom)
Mo            6.5814007503        1.7743812756        2.8270815183
S             8.1689794864        0.8186758227        4.4346838479
S             8.1870032087        0.8160836768        1.2762586826
Mo            8.0969711087        4.4967597774        2.7172351575
S             6.4992317131        3.7183090543        4.3424938068
S             6.5535783487        3.5176836501        1.1213591781
Mo            6.4958903036        7.2132176372        2.6650657959
S             8.0830148578        6.3424642094        4.2513494126
S             8.0875743004        6.3084798867        1.0903865989
Mo            8.1544617476        9.9067436356        2.8285757210
S             6.4981743632        8.9423307474        4.3789940041
S             6.6174793095        9.0492561017        1.1438895694
Mo            3.4242379069        1.7490547992        2.7719035072
S             4.9791958364        0.8170374084        4.3572045179
S             5.0513753061        0.8485507345        1.2216910882
Mo            4.9787891367        4.5192456685        2.6412598248
S             3.4299043586        3.6706118644        4.2808438554
S             3.4365182346        3.5450008387        1.0651099947
Mo            3.4560220669        7.2105876970        2.6361239562
S             4.9850916257        6.3245981780        1.0378653789
Mo            5.0092232577        9.9039701967        2.7435340200
S             3.4679869571        8.9442853094        4.3232974102
S             3.4082905020        9.0650559644        1.1009813780
Mo            0.2916133589        1.7461363666        2.8378520968
S             1.8590760029        0.8023601489        4.4020509108
S             1.8546067746        0.8539086413        1.2077508619
Mo            1.8630134403        4.4964925474        2.6662718807
S             0.2723240228        3.6537485528        4.3349572529
S             0.2322091481        3.5267416688        1.1704344216
Mo            0.2683745686        7.2211905646        2.6966422315
S             1.9014944919        6.3126654631        4.2330062063
S             1.8577173830        6.3138606891        1.0486279993
Mo            1.8515406538        9.9370279089        2.7676744488
S             0.2977427814        9.0675060514        4.4096019481
S             0.2724354119        9.0478719185        1.1584901125
H             4.2028087317        6.0706628662        5.4642129411



     Writing config-only to output data dir ./MoS2-V-O.save/
     NEW-OLD atomic charge density approx. for the potential

     negative rho (up, down):  1.404E-04 0.000E+00

     total cpu time spent up to now is      104.2 secs

     Self-consistent Calculation

     iteration #  1     ecut=    80.00 Ry     beta= 0.70
     Davidson diagonalization with overlap
     ethr =  1.00E-06,  avg # of iterations =  7.0

     negative rho (up, down):  1.274E-04 0.000E+00

     total cpu time spent up to now is      116.2 secs

     total energy              =   -2205.48990587 Ry
     estimated scf accuracy    <       0.00061040 Ry

     iteration #  2     ecut=    80.00 Ry     beta= 0.70
     Davidson diagonalization with overlap
     ethr =  1.99E-07,  avg # of iterations =  2.0

     negative rho (up, down):  1.365E-04 0.000E+00

     total cpu time spent up to now is      127.0 secs

     total energy              =   -2205.48995612 Ry
     estimated scf accuracy    <       0.00014249 Ry

     iteration #  3     ecut=    80.00 Ry     beta= 0.70
     Davidson diagonalization with overlap
     c_bands:  1 eigenvalues not converged
     ethr =  4.64E-08,  avg # of iterations = 20.0

     negative rho (up, down):  1.332E-04 0.000E+00

     total cpu time spent up to now is      139.2 secs

     total energy              =   -2205.48997833 Ry
     estimated scf accuracy    <       0.00004078 Ry

     iteration #  4     ecut=    80.00 Ry     beta= 0.70
     Davidson diagonalization with overlap
     ethr =  1.33E-08,  avg # of iterations =  4.0

     negative rho (up, down):  1.331E-04 0.000E+00

     total cpu time spent up to now is      151.5 secs

     total energy              =   -2205.48998617 Ry
     estimated scf accuracy    <       0.00000226 Ry

     iteration #  5     ecut=    80.00 Ry     beta= 0.70
     Davidson diagonalization with overlap
     ethr =  7.36E-10,  avg # of iterations =  6.0

     negative rho (up, down):  1.366E-04 0.000E+00

     total cpu time spent up to now is      154.2 secs

     End of self-consistent calculation

          k = 0.0000 0.0000 0.0000 (105382 PWs)   bands (ev):

   -62.9881 -62.9754 -62.9678 -62.9613 -62.9557 -62.9362 -62.9237 -62.9054
   -62.9004 -62.8923 -62.8676 -62.8586 -37.3447 -37.2864 -37.2560 -37.2337
   -37.2222 -37.2089 -37.1937 -37.1792 -37.1681 -37.1586 -37.1528 -37.1451
   -37.1376 -37.1315 -37.1287 -37.1220 -37.1094 -37.1009 -37.0963 -37.0914
   -37.0863 -37.0762 -37.0699 -37.0458 -37.0358 -37.0214 -37.0168 -37.0066
   -37.0026 -36.9978 -36.9637 -36.9491 -36.9391 -36.9002 -36.8970 -36.8400
   -16.0551 -15.2738 -15.2121 -15.0515 -14.9832 -14.8807 -14.5859 -14.5556
   -14.5185 -14.4984 -14.4745 -14.4175 -14.4099 -14.3658 -14.2132 -14.2092
   -14.1912 -14.1811 -14.1050 -13.9554 -13.9404 -13.9234 -13.8612  -7.7346
    -7.5723  -7.3850  -7.3637  -7.3335  -7.2948  -7.2750  -7.2223  -6.9216
    -6.9044  -6.8545  -6.8180  -6.7583  -6.5977  -6.5724  -6.5143  -6.4785
    -6.3626  -6.3221  -6.0617  -6.0021  -5.9830  -5.9199  -5.8963  -5.8405
    -5.8207  -5.7903  -5.7476  -5.7428  -5.7024  -5.6186  -5.6027  -5.5322
    -5.4778  -5.4452  -5.2312  -5.2002  -5.1176  -5.0835  -5.0692  -5.0176
    -4.9932  -4.9190  -4.7407  -4.6024  -4.4131  -4.3966  -4.3479  -4.3156
    -4.2732  -4.1405  -4.0622  -3.9256  -3.8792  -3.8392  -3.8080  -3.7559
    -3.7225  -3.6256  -3.6071  -3.5938  -3.5581  -3.5479  -3.5091  -3.4643
    -3.4468  -3.2710  -3.2018  -3.0031  -2.9598  -2.8871  -2.8592  -2.8158
    -2.7980  -2.7490  -2.7377  -2.7285  -2.6661  -2.5229  -2.1596  -2.0850
    -2.0670  -1.2544  -0.9285  -0.8143  -0.2613  -0.2298  -0.1871  -0.1194
    -0.0023   0.0371   0.0674   0.1452   0.1604   0.2054   0.2376   0.3178
     0.3780   0.4434   0.4542   0.4745   0.5018   0.5782   0.6409   0.6434
     0.6742   0.7165   0.7386   0.7919   0.8254   0.8879   0.9317   0.9498
     1.3179

     the Fermi energy is    -1.2545 ev

!    total energy              =   -2205.48998747 Ry
     estimated scf accuracy    <       0.00000085 Ry
     smearing contrib. (-TS)   =      -0.00566021 Ry
     internal energy E=F+TS    =   -2205.48432726 Ry

     The total energy is F=E-TS. E is the sum of the following terms:
     one-electron contribution =  -18039.61216755 Ry
     hartree contribution      =    9005.62818926 Ry
     xc contribution           =    -385.09599457 Ry
     ewald contribution        =    7213.59564559 Ry

     convergence has been achieved in   5 iterations

     negative rho (up, down):  1.366E-04 0.000E+00

     Forces acting on atoms (cartesian axes, Ry/au):

     atom    1 type  1   force =     0.00311546   -0.01259910    0.00029185
     atom    2 type  2   force =    -0.00865476    0.01047031   -0.00189159
     atom    3 type  2   force =    -0.01073327    0.00751879   -0.00895777
     atom    4 type  1   force =     0.00389130    0.00226122    0.00072155
     atom    5 type  2   force =     0.00074742   -0.00789210   -0.00610544
     atom    6 type  2   force =    -0.00064712    0.00809827    0.00399170
     atom    7 type  1   force =     0.00913841   -0.00626491   -0.00480806
     atom    8 type  2   force =     0.00232696   -0.00256137    0.01155568
     atom    9 type  2   force =     0.01179541    0.00536720    0.00651873
     atom   10 type  1   force =    -0.00430367    0.00711390   -0.00961390
     atom   11 type  2   force =     0.00506318   -0.00128381   -0.01002128
     atom   12 type  2   force =    -0.00318935    0.00110738    0.00198391
     atom   13 type  1   force =     0.00395774    0.00248925   -0.00349608
     atom   14 type  2   force =     0.00517505   -0.00026283    0.00874348
     atom   15 type  2   force =    -0.00833765    0.00306224   -0.00736699
     atom   16 type  1   force =    -0.00047589    0.00790820    0.01043520
     atom   17 type  2   force =     0.00341842   -0.00242769    0.00375366
     atom   18 type  2   force =    -0.00099281   -0.00264072    0.01171586
     atom   19 type  1   force =     0.00342180   -0.00846453    0.01035388
     atom   20 type  2   force =     0.00224694   -0.00414457    0.00048162
     atom   21 type  1   force =    -0.00424031    0.00273904    0.00219219
     atom   22 type  2   force =    -0.00396552    0.00101912   -0.00325648
     atom   23 type  2   force =     0.00136049   -0.00241679    0.00634178
     atom   24 type  1   force =    -0.00515110   -0.00191369   -0.00924419
     atom   25 type  2   force =     0.01118535    0.01375688   -0.00005440
     atom   26 type  2   force =    -0.00783907   -0.00133501   -0.00434983
     atom   27 type  1   force =     0.00108282    0.00123849    0.00839425
     atom   28 type  2   force =    -0.00022111   -0.00247358   -0.00545739
     atom   29 type  2   force =     0.00251358    0.00151396   -0.00309498
     atom   30 type  1   force =    -0.00300516    0.00128251    0.00048530
     atom   31 type  2   force =    -0.00275916    0.00023178    0.01524132
     atom   32 type  2   force =    -0.00577976    0.00517777    0.00753298
     atom   33 type  1   force =     0.00588340   -0.00195053   -0.00008698
     atom   34 type  2   force =     0.00048910   -0.03090126   -0.01350783
     atom   35 type  2   force =    -0.00593381    0.00875190    0.00776361
     atom   36 type  3   force =    -0.00058333   -0.00157571   -0.02718538
     The non-local contrib.  to forces
     atom    1 type  1   force =     0.00262540    0.02712410   -0.01183560
     atom    2 type  2   force =    -0.00695780   -0.00196560   -0.27201599
     atom    3 type  2   force =    -0.01284573   -0.00416273    0.26539350
     atom    4 type  1   force =     0.00173380    0.00602813    0.00427328
     atom    5 type  2   force =     0.01104834   -0.03445023   -0.25635399
     atom    6 type  2   force =    -0.00540633    0.00935943    0.26770200
     atom    7 type  1   force =    -0.01689745   -0.00040540   -0.01627208
     atom    8 type  2   force =     0.00651582   -0.00353475   -0.26027788
     atom    9 type  2   force =     0.00554816   -0.00833517    0.27455509
     atom   10 type  1   force =     0.00429079    0.00230332   -0.00111098
     atom   11 type  2   force =     0.01243036    0.00551529   -0.26410629
     atom   12 type  2   force =    -0.01256858   -0.01809200    0.26130210
     atom   13 type  1   force =    -0.00196746    0.02200548   -0.00233799
     atom   14 type  2   force =     0.00943985   -0.01151353   -0.26650737
     atom   15 type  2   force =    -0.01044125   -0.00766879    0.26123178
     atom   16 type  1   force =     0.00161763    0.01610911   -0.03968549
     atom   17 type  2   force =     0.00973278   -0.02054511   -0.25542047
     atom   18 type  2   force =    -0.00154824   -0.00087074    0.27351783
     atom   19 type  1   force =     0.00482477    0.00298074   -0.02355321
     atom   20 type  2   force =    -0.00061837   -0.02080143    0.26333787
     atom   21 type  1   force =     0.00154476    0.02756499    0.00658275
     atom   22 type  2   force =    -0.00200184    0.00888610   -0.26347975
     atom   23 type  2   force =     0.00690837   -0.01893931    0.26825366
     atom   24 type  1   force =     0.00491967    0.01282819   -0.01014649
     atom   25 type  2   force =     0.00714890    0.00126787   -0.26707321
     atom   26 type  2   force =    -0.00079570   -0.01139276    0.26190566
     atom   27 type  1   force =    -0.00104883    0.00875841    0.00700868
     atom   28 type  2   force =    -0.00444046   -0.02185131   -0.27515152
     atom   29 type  2   force =     0.00671224    0.00335859    0.26433807
     atom   30 type  1   force =     0.00121371    0.01681916    0.00827916
     atom   31 type  2   force =     0.01665004    0.00361634   -0.26124135
     atom   32 type  2   force =    -0.00000397   -0.00831144    0.27421289
     atom   33 type  1   force =    -0.00317325    0.01145800    0.00382912
     atom   34 type  2   force =    -0.00514004   -0.02726417   -0.27634252
     atom   35 type  2   force =    -0.00014516   -0.01225832    0.26634423
     atom   36 type  3   force =    -0.00089157   -0.00031705   -0.00360341
     The ionic contribution  to forces
     atom    1 type  1   force =     0.19279915    0.46884997    5.75333052
     atom    2 type  2   force =    -0.44776606    0.26744907   39.35878336
     atom    3 type  2   force =    -0.14360095    0.04876066  -36.19972206
     atom    4 type  1   force =     0.15063514    0.39493322    0.58621030
     atom    5 type  2   force =    -0.78946786    1.29505696   38.59737845
     atom    6 type  2   force =     0.29569135   -0.57096606  -37.95675661
     atom    7 type  1   force =    -2.46096388   -2.49281606    2.03843335
     atom    8 type  2   force =    -0.89139327    0.05651989   37.45963236
     atom    9 type  2   force =     0.35930748   -0.09939121  -38.03982461
     atom   10 type  1   force =    -0.79837450   -0.24014561    5.31017063
     atom   11 type  2   force =    -0.43308989   -1.47656244   39.04114543
     atom   12 type  2   force =     0.35479169    0.68427741  -37.86602180
     atom   13 type  1   force =     0.41096363    0.80761206    2.63609676
     atom   14 type  2   force =    -0.00242951   -0.01047328   38.58473081
     atom   15 type  2   force =     0.18197512   -0.02421374  -36.86519133
     atom   16 type  1   force =     0.20540575    3.48539790    0.36705990
     atom   17 type  2   force =     0.68869508    1.08137904   37.81036142
     atom   18 type  2   force =    -0.13815920   -0.62284888  -38.54754599
     atom   19 type  1   force =     2.56877174   -2.11727674    0.31800757
     atom   20 type  2   force =     0.19093409   -0.19372283  -38.60852759
     atom   21 type  1   force =     0.06752661    0.14317491    1.17485672
     atom   22 type  2   force =     0.39827901   -1.42267290   38.34769014
     atom   23 type  2   force =    -0.06603462    0.62241541  -38.29947635
     atom   24 type  1   force =    -0.36986954    0.96795976    5.51054665
     atom   25 type  2   force =     0.50008589    0.21312438   39.22655648
     atom   26 type  2   force =    -0.25611469    0.05900445  -37.30929497
     atom   27 type  1   force =    -0.25327358    0.24017118   -2.21918251
     atom   28 type  2   force =    -0.00243874    0.85298199   38.15160209
     atom   29 type  2   force =    -0.23483247   -0.37834917  -37.28752076
     atom   30 type  1   force =    -0.31088721   -0.92242258   -0.28647582
     atom   31 type  2   force =     0.78307891    0.01966453   37.21575966
     atom   32 type  2   force =    -0.45935096   -0.03479972  -38.64714971
     atom   33 type  1   force =     0.51860854   -0.52641430    2.04011518
     atom   34 type  2   force =     0.14397409   -1.15587120   39.24918458
     atom   35 type  2   force =    -0.23816365    0.51651897  -37.76246781
     atom   36 type  3   force =     0.28468734    0.06369495    7.11750555
     The local contribution  to forces
     atom    1 type  1   force =    -0.19235376   -0.50880671   -5.74096689
     atom    2 type  2   force =     0.44621169   -0.25525243  -39.10939215
     atom    3 type  2   force =     0.14512376   -0.03721136   35.94612862
     atom    4 type  1   force =    -0.14844056   -0.39879947   -0.58944743
     atom    5 type  2   force =     0.78013610   -1.27069163  -38.36788319
     atom    6 type  2   force =    -0.29141343    0.57056207   37.71433584
     atom    7 type  1   force =     2.48705884    2.48754478   -2.02663989
     atom    8 type  2   force =     0.88755136   -0.05590361  -37.20832974
     atom    9 type  2   force =    -0.35301132    0.11256187   37.79286205
     atom   10 type  1   force =     0.78997748    0.24521117   -5.31786970
     atom   11 type  2   force =     0.42645808    1.47035859  -38.80810401
     atom   12 type  2   force =    -0.34667993   -0.66649052   37.62768119
     atom   13 type  1   force =    -0.40468407   -0.82756532   -2.63687712
     atom   14 type  2   force =    -0.00142913    0.02171726  -38.33023292
     atom   15 type  2   force =    -0.18042145    0.03452308   36.61723761
     atom   16 type  1   force =    -0.20713229   -3.49402325   -0.31661056
     atom   17 type  2   force =    -0.69478867   -1.06494049  -37.57181451
     atom   18 type  2   force =     0.13886736    0.62153028   38.30693023
     atom   19 type  1   force =    -2.57015164    2.10619949   -0.28375238
     atom   20 type  2   force =    -0.18828371    0.20984848   38.36687898
     atom   21 type  1   force =    -0.07338777   -0.16814054   -1.17900529
     atom   22 type  2   force =    -0.40032334    1.41567881  -38.10847936
     atom   23 type  2   force =     0.06111221   -0.60746139   38.05875417
     atom   24 type  1   force =     0.35989703   -0.98355067   -5.50916711
     atom   25 type  2   force =    -0.49626145   -0.20056148  -38.98055396
     atom   26 type  2   force =     0.24924390   -0.04970248   37.06410956
     atom   27 type  1   force =     0.25513141   -0.24743746    2.22112437
     atom   28 type  2   force =     0.00633707   -0.83536352  -37.90291320
     atom   29 type  2   force =     0.23117859    0.37713437   37.04081799
     atom   30 type  1   force =     0.30676138    0.90713899    0.27918173
     atom   31 type  2   force =    -0.80219658   -0.02284512  -36.96028253
     atom   32 type  2   force =     0.45391168    0.04790075   38.40178595
     atom   33 type  1   force =    -0.50979436    0.51341749   -2.04337672
     atom   34 type  2   force =    -0.13899740    1.15191950  -39.00754206
     atom   35 type  2   force =     0.23265878   -0.49638741   37.52502319
     atom   36 type  3   force =    -0.28439011   -0.06493556   -7.14110569
     The core correction contribution to forces
     atom    1 type  1   force =     0.00000000    0.00000000    0.00000000
     atom    2 type  2   force =     0.00023946   -0.00007080    0.02090969
     atom    3 type  2   force =     0.00058570    0.00010348   -0.02079371
     atom    4 type  1   force =     0.00000000    0.00000000    0.00000000
     atom    5 type  2   force =    -0.00085343    0.00193417    0.02061356
     atom    6 type  2   force =     0.00043852   -0.00107497   -0.02100159
     atom    7 type  1   force =     0.00000000    0.00000000    0.00000000
     atom    8 type  2   force =    -0.00024823    0.00050647    0.02071545
     atom    9 type  2   force =    -0.00002148    0.00046320   -0.02099438
     atom   10 type  1   force =     0.00000000    0.00000000    0.00000000
     atom   11 type  2   force =    -0.00055656   -0.00059370    0.02089012
     atom   12 type  2   force =     0.00107116    0.00143346   -0.02078501
     atom   13 type  1   force =     0.00000000    0.00000000    0.00000000
     atom   14 type  2   force =    -0.00057215    0.00010389    0.02083789
     atom   15 type  2   force =     0.00063013    0.00047587   -0.02056812
     atom   16 type  1   force =     0.00000000    0.00000000    0.00000000
     atom   17 type  2   force =    -0.00025283    0.00130554    0.02075033
     atom   18 type  2   force =    -0.00005833   -0.00055267   -0.02105519
     atom   19 type  1   force =     0.00000000    0.00000000    0.00000000
     atom   20 type  2   force =     0.00011749    0.00078143   -0.02117440
     atom   21 type  1   force =     0.00000000    0.00000000    0.00000000
     atom   22 type  2   force =    -0.00000822   -0.00081808    0.02093554
     atom   23 type  2   force =    -0.00051766    0.00142426   -0.02096538
     atom   24 type  1   force =     0.00000000    0.00000000    0.00000000
     atom   25 type  2   force =    -0.00005517   -0.00025434    0.02091925
     atom   26 type  2   force =    -0.00020795    0.00062224   -0.02077497
     atom   27 type  1   force =     0.00000000    0.00000000    0.00000000
     atom   28 type  2   force =     0.00027782    0.00156631    0.02101586
     atom   29 type  2   force =    -0.00052679   -0.00059230   -0.02061239
     atom   30 type  1   force =     0.00000000    0.00000000    0.00000000
     atom   31 type  2   force =    -0.00045360   -0.00002116    0.02103042
     atom   32 type  2   force =    -0.00027819    0.00047286   -0.02106605
     atom   33 type  1   force =     0.00000000    0.00000000    0.00000000
     atom   34 type  2   force =     0.00052289    0.00080411    0.02120509
     atom   35 type  2   force =    -0.00016539    0.00107112   -0.02093722
     atom   36 type  3   force =     0.00000000    0.00000000    0.00000000
     The Hubbard contrib.    to forces
     atom    1 type  1   force =     0.00000000    0.00000000    0.00000000
     atom    2 type  2   force =     0.00000000    0.00000000    0.00000000
     atom    3 type  2   force =     0.00000000    0.00000000    0.00000000
     atom    4 type  1   force =     0.00000000    0.00000000    0.00000000
     atom    5 type  2   force =     0.00000000    0.00000000    0.00000000
     atom    6 type  2   force =     0.00000000    0.00000000    0.00000000
     atom    7 type  1   force =     0.00000000    0.00000000    0.00000000
     atom    8 type  2   force =     0.00000000    0.00000000    0.00000000
     atom    9 type  2   force =     0.00000000    0.00000000    0.00000000
     atom   10 type  1   force =     0.00000000    0.00000000    0.00000000
     atom   11 type  2   force =     0.00000000    0.00000000    0.00000000
     atom   12 type  2   force =     0.00000000    0.00000000    0.00000000
     atom   13 type  1   force =     0.00000000    0.00000000    0.00000000
     atom   14 type  2   force =     0.00000000    0.00000000    0.00000000
     atom   15 type  2   force =     0.00000000    0.00000000    0.00000000
     atom   16 type  1   force =     0.00000000    0.00000000    0.00000000
     atom   17 type  2   force =     0.00000000    0.00000000    0.00000000
     atom   18 type  2   force =     0.00000000    0.00000000    0.00000000
     atom   19 type  1   force =     0.00000000    0.00000000    0.00000000
     atom   20 type  2   force =     0.00000000    0.00000000    0.00000000
     atom   21 type  1   force =     0.00000000    0.00000000    0.00000000
     atom   22 type  2   force =     0.00000000    0.00000000    0.00000000
     atom   23 type  2   force =     0.00000000    0.00000000    0.00000000
     atom   24 type  1   force =     0.00000000    0.00000000    0.00000000
     atom   25 type  2   force =     0.00000000    0.00000000    0.00000000
     atom   26 type  2   force =     0.00000000    0.00000000    0.00000000
     atom   27 type  1   force =     0.00000000    0.00000000    0.00000000
     atom   28 type  2   force =     0.00000000    0.00000000    0.00000000
     atom   29 type  2   force =     0.00000000    0.00000000    0.00000000
     atom   30 type  1   force =     0.00000000    0.00000000    0.00000000
     atom   31 type  2   force =     0.00000000    0.00000000    0.00000000
     atom   32 type  2   force =     0.00000000    0.00000000    0.00000000
     atom   33 type  1   force =     0.00000000    0.00000000    0.00000000
     atom   34 type  2   force =     0.00000000    0.00000000    0.00000000
     atom   35 type  2   force =     0.00000000    0.00000000    0.00000000
     atom   36 type  3   force =     0.00000000    0.00000000    0.00000000
     The SCF correction term to forces
     atom    1 type  1   force =     0.00004610    0.00023077   -0.00023387
     atom    2 type  2   force =    -0.00038062    0.00030730   -0.00017420
     atom    3 type  2   force =     0.00000539    0.00002598    0.00003818
     atom    4 type  1   force =    -0.00003564    0.00009657   -0.00031229
     atom    5 type  2   force =    -0.00011429    0.00025587    0.00014204
     atom    6 type  2   force =     0.00004421    0.00021503   -0.00028564
     atom    7 type  1   force =    -0.00005766   -0.00059099   -0.00032714
     atom    8 type  2   force =    -0.00009728   -0.00015213   -0.00018221
     atom    9 type  2   force =    -0.00002599    0.00006574   -0.00007712
     atom   10 type  1   force =    -0.00019599   -0.00025775   -0.00080155
     atom   11 type  2   force =    -0.00017736   -0.00000432    0.00015578
     atom   12 type  2   force =     0.00019776   -0.00002374   -0.00019027
     atom   13 type  1   force =    -0.00035291    0.00043426   -0.00037543
     atom   14 type  2   force =     0.00016743   -0.00009994   -0.00008263
     atom   15 type  2   force =    -0.00007877   -0.00005696   -0.00007463
     atom   16 type  1   force =    -0.00036554    0.00042167   -0.00032636
     atom   17 type  2   force =     0.00003350    0.00037055   -0.00012081
     atom   18 type  2   force =    -0.00009295    0.00009851   -0.00012872
     atom   19 type  1   force =    -0.00002164   -0.00037079   -0.00034580
     atom   20 type  2   force =     0.00009888   -0.00025299   -0.00003093
     atom   21 type  1   force =     0.00007753    0.00013691   -0.00023969
     atom   22 type  2   force =     0.00009031   -0.00005758    0.00007926
     atom   23 type  2   force =    -0.00010637    0.00014148   -0.00022202
     atom   24 type  1   force =    -0.00009683    0.00084626   -0.00047494
     atom   25 type  2   force =     0.00026862    0.00017768    0.00009934
     atom   26 type  2   force =     0.00003682    0.00013076   -0.00029280
     atom   27 type  1   force =     0.00027527   -0.00025641   -0.00055399
     atom   28 type  2   force =     0.00004464    0.00019018   -0.00000831
     atom   29 type  2   force =    -0.00001655   -0.00004029   -0.00011558
     atom   30 type  1   force =    -0.00009159   -0.00025583   -0.00049747
     atom   31 type  2   force =     0.00016352   -0.00018558   -0.00002258
     atom   32 type  2   force =    -0.00005689   -0.00008746   -0.00024780
     atom   33 type  1   force =     0.00024391   -0.00041449   -0.00065227
     atom   34 type  2   force =     0.00013100   -0.00049227   -0.00001062
     atom   35 type  2   force =    -0.00011695   -0.00019523   -0.00019649
     atom   36 type  3   force =     0.00001244   -0.00002081    0.00002047

     Total force =     0.075185     Total SCF correction =     0.002627
     Energy error            =      9.3E-03 Ry
     Gradient error          =      3.1E-02 Ry/Bohr

     number of scf cycles    =   2
     number of bfgs steps    =   1

     energy             old  =   -2205.4806380011 Ry
     energy             new  =   -2205.4899874744 Ry

     CASE: energy            _new < energy            _old

     new trust radius        =       0.0477395312 bohr
     new conv_thr            =       0.0000000309 Ry


ATOMIC_POSITIONS (angstrom)
Mo            6.5848395753        1.7637803444        2.8280507924
S             8.1620426379        0.8269800122        4.4335923305
S             8.1791770867        0.8216765428        1.2705543278
Mo            8.0997042886        4.4984988660        2.7175294014
S             6.4995195192        3.7126652506        4.3378978680
S             6.5532463080        3.5238767138        1.1237518471
Mo            6.5026934029        7.2082832186        2.6606279408
S             8.0846968576        6.3406150871        4.2602797868
S             8.0961309744        6.3125466140        1.0957737332
Mo            8.1504769714        9.9120311656        2.8194123937
S             6.5018818882        8.9414291637        4.3720815912
S             6.6154739059        9.0500408946        1.1459911701
Mo            3.4271887183        1.7510211882        2.7687669559
S             4.9832067604        0.8169033271        4.3639492175
S             5.0449212933        0.8509018530        1.2161594915
Mo            4.9782821727        4.5253538049        2.6494050887
S             3.4324150607        3.6689392064        4.2833391352
S             3.4356031739        3.5426831136        1.0736428767
Mo            3.4585573734        7.2042251888        2.6435432669
S             4.9868579932        6.3215927309        1.0382934022
Mo            5.0059973636        9.9061479259        2.7448688004
S             3.4649405977        8.9450150969        4.3208295328
S             3.4090676795        9.0636336456        1.1058905786
Mo            0.2875132926        1.7446802847        2.8296707885
S             1.8677226750        0.8127799725        4.4029074739
S             1.8485107000        0.8529948303        1.2047816207
Mo            1.8641948850        4.4974203344        2.6726707177
S             0.2722179941        3.6521267057        4.3311031542
S             0.2339306084        3.5275247732        1.1682270082
Mo            0.2659442615        7.2230050428        2.6957613581
S             1.8996811435        6.3127724727        4.2445163507
S             1.8532332543        6.3177544145        1.0540503817
Mo            1.8567050044        9.9351477183        2.7664028063
S             0.2984571529        9.0439202924        4.4005795183
S             0.2679024253        9.0540835692        1.1649800566
H             4.2024164566        6.0695061561        5.4448787728



     Writing config-only to output data dir ./MoS2-V-O.save/
     NEW-OLD atomic charge density approx. for the potential

     negative rho (up, down):  1.417E-04 0.000E+00

     total cpu time spent up to now is      157.5 secs

     Self-consistent Calculation

     iteration #  1     ecut=    80.00 Ry     beta= 0.70
     Davidson diagonalization with overlap
     ethr =  1.00E-06,  avg # of iterations =  7.0

     negative rho (up, down):  1.058E-04 0.000E+00

     total cpu time spent up to now is      174.9 secs

     total energy              =   -2205.49677005 Ry
     estimated scf accuracy    <       0.00065985 Ry

     iteration #  2     ecut=    80.00 Ry     beta= 0.70
     Davidson diagonalization with overlap
     ethr =  2.15E-07,  avg # of iterations =  3.0

     negative rho (up, down):  1.054E-04 0.000E+00

     total cpu time spent up to now is      195.0 secs

     total energy              =   -2205.49683563 Ry
     estimated scf accuracy    <       0.00014585 Ry

     iteration #  3     ecut=    80.00 Ry     beta= 0.70
     Davidson diagonalization with overlap
     ethr =  4.75E-08,  avg # of iterations =  6.0

     negative rho (up, down):  9.667E-05 0.000E+00

     total cpu time spent up to now is      210.4 secs

     total energy              =   -2205.49685185 Ry
     estimated scf accuracy    <       0.00004399 Ry

     iteration #  4     ecut=    80.00 Ry     beta= 0.70
     Davidson diagonalization with overlap
     ethr =  1.43E-08,  avg # of iterations =  4.0

     negative rho (up, down):  9.543E-05 0.000E+00

     total cpu time spent up to now is      223.8 secs

     total energy              =   -2205.49686017 Ry
     estimated scf accuracy    <       0.00000274 Ry

     iteration #  5     ecut=    80.00 Ry     beta= 0.70
     Davidson diagonalization with overlap
     ethr =  8.91E-10,  avg # of iterations =  6.0

     negative rho (up, down):  9.624E-05 0.000E+00

     total cpu time spent up to now is      239.3 secs

     total energy              =   -2205.49686196 Ry
     estimated scf accuracy    <       0.00000116 Ry

     iteration #  6     ecut=    80.00 Ry     beta= 0.70
     Davidson diagonalization with overlap
     ethr =  3.77E-10,  avg # of iterations =  2.0

     negative rho (up, down):  9.927E-05 0.000E+00

     total cpu time spent up to now is      249.5 secs

     total energy              =   -2205.49686209 Ry
     estimated scf accuracy    <       0.00000026 Ry

     iteration #  7     ecut=    80.00 Ry     beta= 0.70
     Davidson diagonalization with overlap
     ethr =  8.53E-11,  avg # of iterations =  6.0

     negative rho (up, down):  1.027E-04 0.000E+00

     total cpu time spent up to now is      258.8 secs

     total energy              =   -2205.49686210 Ry
     estimated scf accuracy    <       0.00000012 Ry

     iteration #  8     ecut=    80.00 Ry     beta= 0.70
     Davidson diagonalization with overlap
     ethr =  4.06E-11,  avg # of iterations =  2.0

     negative rho (up, down):  1.185E-04 0.000E+00

     total cpu time spent up to now is      278.5 secs

     total energy              =   -2205.49686202 Ry
     estimated scf accuracy    <       0.00000007 Ry

     iteration #  9     ecut=    80.00 Ry     beta= 0.70
     Davidson diagonalization with overlap
     ethr =  2.26E-11,  avg # of iterations =  4.0

     negative rho (up, down):  1.370E-04 0.000E+00

     total cpu time spent up to now is      280.5 secs

     End of self-consistent calculation

          k = 0.0000 0.0000 0.0000 (105382 PWs)   bands (ev):

   -62.9900 -62.9752 -62.9657 -62.9588 -62.9555 -62.9341 -62.9212 -62.9022
   -62.8981 -62.8903 -62.8584 -62.8520 -37.3429 -37.2841 -37.2520 -37.2309
   -37.2176 -37.2072 -37.1925 -37.1778 -37.1677 -37.1556 -37.1489 -37.1446
   -37.1366 -37.1300 -37.1280 -37.1205 -37.1078 -37.0997 -37.0933 -37.0872
   -37.0831 -37.0746 -37.0684 -37.0418 -37.0280 -37.0185 -37.0145 -37.0046
   -37.0004 -36.9944 -36.9609 -36.9471 -36.9368 -36.8987 -36.8942 -36.8352
   -16.0533 -15.2748 -15.2096 -15.0490 -14.9762 -14.8787 -14.5821 -14.5511
   -14.5073 -14.4985 -14.4816 -14.4111 -14.4097 -14.3649 -14.2100 -14.2053
   -14.1930 -14.1814 -14.1038 -13.9557 -13.9370 -13.9249 -13.8589  -7.7324
    -7.5712  -7.3825  -7.3664  -7.3270  -7.3001  -7.2729  -7.2241  -6.9234
    -6.9005  -6.8574  -6.8171  -6.7506  -6.5960  -6.5742  -6.5122  -6.4721
    -6.3646  -6.3216  -6.0568  -6.0039  -5.9777  -5.9247  -5.8868  -5.8411
    -5.8244  -5.7841  -5.7441  -5.7366  -5.7087  -5.6250  -5.5973  -5.5303
    -5.4647  -5.4345  -5.2244  -5.1959  -5.1074  -5.0851  -5.0621  -5.0228
    -4.9998  -4.9246  -4.7347  -4.6004  -4.4175  -4.3868  -4.3402  -4.3134
    -4.2842  -4.1446  -4.0578  -3.9292  -3.8752  -3.8360  -3.7950  -3.7479
    -3.7335  -3.6260  -3.6040  -3.5894  -3.5624  -3.5491  -3.5066  -3.4615
    -3.4467  -3.2736  -3.2027  -2.9963  -2.9617  -2.8807  -2.8614  -2.8184
    -2.7945  -2.7510  -2.7397  -2.7286  -2.6628  -2.5306  -2.1647  -2.0870
    -2.0687  -1.2539  -0.9134  -0.8107  -0.2563  -0.2338  -0.1781  -0.1123
     0.0122   0.0358   0.0624   0.1481   0.1733   0.2246   0.2396   0.3219
     0.3806   0.4520   0.4577   0.4795   0.5078   0.5800   0.6246   0.6511
     0.6741   0.7113   0.7523   0.7965   0.8283   0.8952   0.9344   0.9489
     1.3246

     the Fermi energy is    -1.2540 ev

!    total energy              =   -2205.49686199 Ry
     estimated scf accuracy    <          8.9E-09 Ry
     smearing contrib. (-TS)   =      -0.00565275 Ry
     internal energy E=F+TS    =   -2205.49120924 Ry

     The total energy is F=E-TS. E is the sum of the following terms:
     one-electron contribution =  -18042.95294373 Ry
     hartree contribution      =    9007.32015088 Ry
     xc contribution           =    -385.10455538 Ry
     ewald contribution        =    7215.24613900 Ry

     convergence has been achieved in   9 iterations

     negative rho (up, down):  1.370E-04 0.000E+00

     Forces acting on atoms (cartesian axes, Ry/au):

     atom    1 type  1   force =    -0.00368098   -0.00299347   -0.00418363
     atom    2 type  2   force =    -0.00396681    0.00539375   -0.00235302
     atom    3 type  2   force =    -0.00871642    0.00555576   -0.01103657
     atom    4 type  1   force =     0.00382276    0.00135026    0.00119445
     atom    5 type  2   force =     0.00227179   -0.00727454   -0.00377907
     atom    6 type  2   force =    -0.00132204    0.00583580    0.00578245
     atom    7 type  1   force =     0.00708740   -0.00338023   -0.00070939
     atom    8 type  2   force =     0.00176866   -0.00297108    0.00799814
     atom    9 type  2   force =     0.01018779    0.00354046    0.00218063
     atom   10 type  1   force =    -0.00062455    0.00577684   -0.00024720
     atom   11 type  2   force =     0.00426863   -0.00118616   -0.00954971
     atom   12 type  2   force =    -0.00421598    0.00123100   -0.00082574
     atom   13 type  1   force =     0.00257615    0.00085446   -0.00036159
     atom   14 type  2   force =     0.00299250   -0.00054774    0.00542383
     atom   15 type  2   force =    -0.00545699    0.00134200   -0.00528451
     atom   16 type  1   force =     0.00038005    0.00484764    0.00679188
     atom   17 type  2   force =     0.00267419   -0.00246283    0.00488335
     atom   18 type  2   force =     0.00020804    0.00045403    0.00998091
     atom   19 type  1   force =     0.00258046   -0.00637189    0.00988579
     atom   20 type  2   force =     0.00147857   -0.00332587    0.00088939
     atom   21 type  1   force =    -0.00250778    0.00177678    0.00188202
     atom   22 type  2   force =    -0.00248426    0.00103764   -0.00093843
     atom   23 type  2   force =     0.00204380   -0.00424631    0.00494481
     atom   24 type  1   force =    -0.00312163   -0.00075500   -0.00285741
     atom   25 type  2   force =     0.00659900    0.00947306   -0.00371623
     atom   26 type  2   force =    -0.00413649   -0.00147902   -0.00372242
     atom   27 type  1   force =    -0.00080053    0.00096321    0.00589209
     atom   28 type  2   force =    -0.00047237   -0.00320551   -0.00431538
     atom   29 type  2   force =     0.00284090    0.00290262   -0.00245321
     atom   30 type  1   force =    -0.00108184   -0.00280375    0.00477877
     atom   31 type  2   force =    -0.00328284   -0.00022716    0.01163040
     atom   32 type  2   force =    -0.00287771    0.00365690    0.00765709
     atom   33 type  1   force =     0.00051831    0.00060419    0.00354391
     atom   34 type  2   force =    -0.00128145   -0.01974232   -0.01330412
     atom   35 type  2   force =    -0.00356044    0.00760271    0.00322858
     atom   36 type  3   force =    -0.00070790   -0.00122621   -0.02893085
     The non-local contrib.  to forces
     atom    1 type  1   force =     0.00389241    0.02410103   -0.01169414
     atom    2 type  2   force =    -0.00343569   -0.00579208   -0.27085650
     atom    3 type  2   force =    -0.01016947   -0.00606194    0.26238826
     atom    4 type  1   force =     0.00216202    0.00737066    0.00393502
     atom    5 type  2   force =     0.01199899   -0.03378244   -0.25602086
     atom    6 type  2   force =    -0.00597497    0.00675814    0.27014595
     atom    7 type  1   force =    -0.01650888   -0.00038305   -0.01604482
     atom    8 type  2   force =     0.00691662   -0.00395358   -0.26188448
     atom    9 type  2   force =     0.00386315   -0.00950076    0.27123101
     atom   10 type  1   force =     0.00315367    0.00277053   -0.00141286
     atom   11 type  2   force =     0.01087773    0.00530912   -0.26438644
     atom   12 type  2   force =    -0.01272625   -0.01824355    0.26043051
     atom   13 type  1   force =    -0.00104512    0.02299496   -0.00176646
     atom   14 type  2   force =     0.00745274   -0.01148598   -0.26796806
     atom   15 type  2   force =    -0.00814353   -0.00921925    0.26180019
     atom   16 type  1   force =     0.00143384    0.01779916   -0.04047814
     atom   17 type  2   force =     0.01017672   -0.02003471   -0.25517583
     atom   18 type  2   force =    -0.00048518    0.00079646    0.27267141
     atom   19 type  1   force =     0.00551189    0.00411448   -0.02472712
     atom   20 type  2   force =    -0.00057601   -0.01882466    0.26289778
     atom   21 type  1   force =     0.00087361    0.02770496    0.00586062
     atom   22 type  2   force =    -0.00017037    0.00747020   -0.26231190
     atom   23 type  2   force =     0.00719859   -0.02047874    0.26781676
     atom   24 type  1   force =     0.00328155    0.01298569   -0.00911746
     atom   25 type  2   force =     0.00355710   -0.00252840   -0.26959437
     atom   26 type  2   force =     0.00209702   -0.01079898    0.26241370
     atom   27 type  1   force =    -0.00073678    0.00863990    0.00634066
     atom   28 type  2   force =    -0.00413632   -0.02131158   -0.27493667
     atom   29 type  2   force =     0.00678323    0.00314591    0.26573921
     atom   30 type  1   force =     0.00044812    0.01715285    0.00815761
     atom   31 type  2   force =     0.01779478    0.00274953   -0.26433650
     atom   32 type  2   force =     0.00226430   -0.00903626    0.27416926
     atom   33 type  1   force =    -0.00188863    0.01077720    0.00310642
     atom   34 type  2   force =    -0.00648883   -0.01820186   -0.27738540
     atom   35 type  2   force =     0.00126647   -0.01339201    0.26416087
     atom   36 type  3   force =    -0.00093979   -0.00029789   -0.00379293
     The ionic contribution  to forces
     atom    1 type  1   force =     0.01688857    0.70349357    5.69891788
     atom    2 type  2   force =    -0.29313837    0.17232043   39.41035744
     atom    3 type  2   force =    -0.11541061    0.06417464  -36.34610871
     atom    4 type  1   force =     0.09830053    0.29660709    0.57813061
     atom    5 type  2   force =    -0.75933332    1.26306805   38.51427852
     atom    6 type  2   force =     0.24263818   -0.58770738  -37.87170923
     atom    7 type  1   force =    -2.56539475   -2.35159811    1.80664945
     atom    8 type  2   force =    -0.91904952    0.05934704   37.58416398
     atom    9 type  2   force =     0.34838937   -0.14436971  -38.06787532
     atom   10 type  1   force =    -0.61968517   -0.23438206    5.07551499
     atom   11 type  2   force =    -0.42473285   -1.48313125   38.95782491
     atom   12 type  2   force =     0.27598038    0.64758628  -37.85814144
     atom   13 type  1   force =     0.35674820    0.74562111    2.47837644
     atom   14 type  2   force =    -0.05802741   -0.00615042   38.66025760
     atom   15 type  2   force =     0.18675928   -0.01059238  -36.94437315
     atom   16 type  1   force =     0.27093773    3.35930730    0.70043983
     atom   17 type  2   force =     0.67398528    1.01995642   37.84747100
     atom   18 type  2   force =    -0.11736702   -0.56217473  -38.47526731
     atom   19 type  1   force =     2.59061854   -2.02944931    0.60024804
[...]
     atom   27 type  1   force =    -0.00334597    0.00757767    0.00149706
     atom   28 type  2   force =    -0.00056579   -0.01461984   -0.26961340
     atom   29 type  2   force =     0.00003582   -0.00548126    0.26814664
     atom   30 type  1   force =    -0.00018186    0.02159852   -0.00030817
     atom   31 type  2   force =    -0.00939385   -0.00047628   -0.26472745
     atom   32 type  2   force =     0.00486754   -0.01109741    0.26664528
     atom   33 type  1   force =    -0.00110364    0.00940151    0.00099012
     atom   34 type  2   force =    -0.00062525   -0.00925207   -0.27138434
     atom   35 type  2   force =     0.00014466   -0.01529719    0.26668958
     atom   36 type  3   force =    -0.00032553    0.00031998   -0.01744711
     The ionic contribution  to forces
     atom    1 type  1   force =    -0.11749470    0.52393857    2.97951924
     atom    2 type  2   force =    -0.15377471    0.05329197   38.99555691
     atom    3 type  2   force =     0.05090594   -0.03625767  -37.38860665
     atom    4 type  1   force =    -0.27139408    0.35322681    0.96095891
     atom    5 type  2   force =    -0.73488638    1.15561304   38.57286094
     atom    6 type  2   force =     0.17722932   -0.28883961  -37.97712266
     atom    7 type  1   force =    -2.27884906   -1.60187256    1.52793080
     atom    8 type  2   force =    -1.12022673    0.06464178   38.41032856
     atom    9 type  2   force =     0.23584908   -0.06123452  -37.98706073
     atom   10 type  1   force =    -0.26570724   -0.28569524    3.12447836
     atom   11 type  2   force =    -0.51818300   -1.34368546   38.74135919
     atom   12 type  2   force =     0.14134116    0.30184088  -37.99346894
     atom   13 type  1   force =     0.10479447    0.48939376    2.47936350
     atom   14 type  2   force =    -0.01476179   -0.08303518   38.69759061
     atom   15 type  2   force =     0.02400532   -0.08281684  -37.47035321
     atom   16 type  1   force =     0.05312983    2.88201721    1.39293344
     atom   17 type  2   force =     0.73028747    1.12919424   38.50906338
     atom   18 type  2   force =    -0.15161139   -0.28516079  -38.04813289
     atom   19 type  1   force =     2.25451867   -1.54720159    1.40634065
     atom   20 type  2   force =     0.02723590   -0.04364312  -38.64320131
     atom   21 type  1   force =     0.01031954   -0.30124413    1.35999301
     atom   22 type  2   force =     0.51437709   -1.33788116   38.70340468
     atom   23 type  2   force =    -0.12551218    0.29949056  -38.03121892
     atom   24 type  1   force =     0.02096426    0.34633761    2.66835338
     atom   25 type  2   force =     0.15802713    0.04753215   38.92504529
     atom   26 type  2   force =    -0.07867007   -0.03769045  -37.47325952
     atom   27 type  1   force =     0.21506245    0.35565544    0.73226727
     atom   28 type  2   force =     0.00773474    0.46637888   38.35641769
     atom   29 type  2   force =    -0.02460010   -0.14466925  -37.60106257
     atom   30 type  1   force =    -0.01388090   -0.47469180    2.15920836
     atom   31 type  2   force =     1.11500676    0.05987965   38.40405968
     atom   32 type  2   force =    -0.25276990   -0.04028144  -38.04882404
     atom   33 type  1   force =     0.27839935   -0.24564902    2.86804657
     atom   34 type  2   force =     0.00161485   -0.42359568   38.90352243
     atom   35 type  2   force =    -0.02289745    0.17689101  -37.43769492
     atom   36 type  3   force =     0.02441634   -0.04017804    5.22140349
     The local contribution  to forces
     atom    1 type  1   force =     0.11696836   -0.54333318   -2.97475503
     atom    2 type  2   force =     0.15569303   -0.04191877  -38.74963232
     atom    3 type  2   force =    -0.04845323    0.04676229   37.14162713
     atom    4 type  1   force =     0.26776244   -0.36057372   -0.96226371
     atom    5 type  2   force =     0.73273665   -1.13681588  -38.33690164
     atom    6 type  2   force =    -0.17525673    0.29412220   37.73157015
     atom    7 type  1   force =     2.27533450    1.58770972   -1.51811663
     atom    8 type  2   force =     1.11197051   -0.06418557  -38.16631316
     atom    9 type  2   force =    -0.23182686    0.07158197   37.74123626
     atom   10 type  1   force =     0.26391676    0.27471750   -3.12511557
     atom   11 type  2   force =     0.51332766    1.34557571  -38.50260775
     atom   12 type  2   force =    -0.13714779   -0.28645254   37.75029428
     atom   13 type  1   force =    -0.10423883   -0.51023585   -2.47428861
     atom   14 type  2   force =     0.01435644    0.09333160  -38.44995858
     atom   15 type  2   force =    -0.02344059    0.09467058   37.22664425
     atom   16 type  1   force =    -0.05347845   -2.89484227   -1.37135244
     atom   17 type  2   force =    -0.72871681   -1.11045229  -38.27244265
     atom   18 type  2   force =     0.15022004    0.29071874   37.80240402
     atom   19 type  1   force =    -2.25223311    1.53329705   -1.39684421
     atom   20 type  2   force =    -0.02705266    0.05619314   38.40118736
     atom   21 type  1   force =    -0.00997546    0.27847058   -1.36432754
     atom   22 type  2   force =    -0.51010567    1.34038189  -38.46445779
     atom   23 type  2   force =     0.12105304   -0.28424241   37.78810798
     atom   24 type  1   force =    -0.02052027   -0.36191078   -2.66695858
     atom   25 type  2   force =    -0.15948226   -0.03564534  -38.67936996
     atom   26 type  2   force =     0.07591330    0.04824719   37.22681727
     atom   27 type  1   force =    -0.21149184   -0.36317955   -0.73368017
     atom   28 type  2   force =    -0.00737916   -0.45295022  -38.10792732
     atom   29 type  2   force =     0.02422150    0.15072534   37.35326854
     atom   30 type  1   force =     0.01428238    0.45291463   -2.15815998
     atom   31 type  2   force =    -1.10668708   -0.05971814  -38.16021709
     atom   32 type  2   force =     0.24888157    0.05098337   37.80377631
     atom   33 type  1   force =    -0.27818784    0.23701323   -2.86898501
     atom   34 type  2   force =    -0.00145177    0.43258202  -38.65354429
     atom   35 type  2   force =     0.02270828   -0.16273925   37.19127495
     atom   36 type  3   force =    -0.02317688    0.03960402   -5.20305675
     The core correction contribution to forces
     atom    1 type  1   force =     0.00000000    0.00000000    0.00000000
     atom    2 type  2   force =     0.00008107    0.00053506    0.02086468
     atom    3 type  2   force =     0.00009630    0.00046766   -0.02090044
     atom    4 type  1   force =     0.00000000    0.00000000    0.00000000
     atom    5 type  2   force =    -0.00028167    0.00098019    0.02045930
     atom    6 type  2   force =     0.00027853   -0.00010710   -0.02091221
     atom    7 type  1   force =     0.00000000    0.00000000    0.00000000
     atom    8 type  2   force =    -0.00052055    0.00023688    0.02082572
     atom    9 type  2   force =     0.00048325    0.00049712   -0.02087684
     atom   10 type  1   force =     0.00000000    0.00000000    0.00000000
     atom   11 type  2   force =    -0.00015528   -0.00012392    0.02060323
     atom   12 type  2   force =     0.00045597    0.00115924   -0.02086858
     atom   13 type  1   force =     0.00000000    0.00000000    0.00000000
     atom   14 type  2   force =    -0.00008507    0.00016436    0.02089705
     atom   15 type  2   force =     0.00003620    0.00046185   -0.02074194
     atom   16 type  1   force =     0.00000000    0.00000000    0.00000000
     atom   17 type  2   force =     0.00024286    0.00093962    0.02044759
     atom   18 type  2   force =    -0.00026157   -0.00007870   -0.02089777
     atom   19 type  1   force =     0.00000000    0.00000000    0.00000000
     atom   20 type  2   force =     0.00002052    0.00060451   -0.02087761
     atom   21 type  1   force =     0.00000000    0.00000000    0.00000000
     atom   22 type  2   force =     0.00015003   -0.00013272    0.02060423
     atom   23 type  2   force =    -0.00041066    0.00113080   -0.02086846
     atom   24 type  1   force =     0.00000000    0.00000000    0.00000000
     atom   25 type  2   force =    -0.00003599    0.00049769    0.02086074
     atom   26 type  2   force =    -0.00021387    0.00039554   -0.02091337
     atom   27 type  1   force =     0.00000000    0.00000000    0.00000000
     atom   28 type  2   force =     0.00003371    0.00090394    0.02093759
     atom   29 type  2   force =    -0.00002183    0.00011683   -0.02083455
     atom   30 type  1   force =     0.00000000    0.00000000    0.00000000
     atom   31 type  2   force =     0.00053987    0.00023600    0.02083981
     atom   32 type  2   force =    -0.00051227    0.00052861   -0.02087376
     atom   33 type  1   force =     0.00000000    0.00000000    0.00000000
     atom   34 type  2   force =     0.00002893    0.00034834    0.02107534
     atom   35 type  2   force =    -0.00003457    0.00090310   -0.02087752
     atom   36 type  3   force =     0.00000000    0.00000000    0.00000000
     The Hubbard contrib.    to forces
     atom    1 type  1   force =     0.00000000    0.00000000    0.00000000
     atom    2 type  2   force =     0.00000000    0.00000000    0.00000000
     atom    3 type  2   force =     0.00000000    0.00000000    0.00000000
     atom    4 type  1   force =     0.00000000    0.00000000    0.00000000
     atom    5 type  2   force =     0.00000000    0.00000000    0.00000000
     atom    6 type  2   force =     0.00000000    0.00000000    0.00000000
     atom    7 type  1   force =     0.00000000    0.00000000    0.00000000
     atom    8 type  2   force =     0.00000000    0.00000000    0.00000000
     atom    9 type  2   force =     0.00000000    0.00000000    0.00000000
     atom   10 type  1   force =     0.00000000    0.00000000    0.00000000
     atom   11 type  2   force =     0.00000000    0.00000000    0.00000000
     atom   12 type  2   force =     0.00000000    0.00000000    0.00000000
     atom   13 type  1   force =     0.00000000    0.00000000    0.00000000
     atom   14 type  2   force =     0.00000000    0.00000000    0.00000000
     atom   15 type  2   force =     0.00000000    0.00000000    0.00000000
     atom   16 type  1   force =     0.00000000    0.00000000    0.00000000
     atom   17 type  2   force =     0.00000000    0.00000000    0.00000000
     atom   18 type  2   force =     0.00000000    0.00000000    0.00000000
     atom   19 type  1   force =     0.00000000    0.00000000    0.00000000
     atom   20 type  2   force =     0.00000000    0.00000000    0.00000000
     atom   21 type  1   force =     0.00000000    0.00000000    0.00000000
     atom   22 type  2   force =     0.00000000    0.00000000    0.00000000
     atom   23 type  2   force =     0.00000000    0.00000000    0.00000000
     atom   24 type  1   force =     0.00000000    0.00000000    0.00000000
     atom   25 type  2   force =     0.00000000    0.00000000    0.00000000
     atom   26 type  2   force =     0.00000000    0.00000000    0.00000000
     atom   27 type  1   force =     0.00000000    0.00000000    0.00000000
     atom   28 type  2   force =     0.00000000    0.00000000    0.00000000
     atom   29 type  2   force =     0.00000000    0.00000000    0.00000000
     atom   30 type  1   force =     0.00000000    0.00000000    0.00000000
     atom   31 type  2   force =     0.00000000    0.00000000    0.00000000
     atom   32 type  2   force =     0.00000000    0.00000000    0.00000000
     atom   33 type  1   force =     0.00000000    0.00000000    0.00000000
     atom   34 type  2   force =     0.00000000    0.00000000    0.00000000
     atom   35 type  2   force =     0.00000000    0.00000000    0.00000000
     atom   36 type  3   force =     0.00000000    0.00000000    0.00000000
     The SCF correction term to forces
     atom    1 type  1   force =    -0.00004122   -0.00000248    0.00004202
     atom    2 type  2   force =     0.00000418   -0.00001632    0.00002964
     atom    3 type  2   force =    -0.00000873    0.00000071    0.00000226
     atom    4 type  1   force =    -0.00002484    0.00004840    0.00002197
     atom    5 type  2   force =     0.00000145   -0.00000615    0.00000989
     atom    6 type  2   force =    -0.00000459    0.00000380    0.00000730
     atom    7 type  1   force =     0.00004329    0.00002819    0.00003279
     atom    8 type  2   force =    -0.00002489    0.00003549   -0.00001552
     atom    9 type  2   force =    -0.00002508    0.00002276    0.00003280
     atom   10 type  1   force =    -0.00002117   -0.00008589    0.00007554
     atom   11 type  2   force =     0.00001504   -0.00002716   -0.00000431
     atom   12 type  2   force =    -0.00000366   -0.00003323    0.00003107
     atom   13 type  1   force =     0.00000800   -0.00001770    0.00002978
     atom   14 type  2   force =    -0.00000311   -0.00000258    0.00001362
     atom   15 type  2   force =     0.00000479    0.00000517    0.00001186
     atom   16 type  1   force =     0.00003379    0.00001984    0.00000797
     atom   17 type  2   force =     0.00001000   -0.00001581    0.00000626
     atom   18 type  2   force =     0.00000626    0.00000175    0.00000337
     atom   19 type  1   force =     0.00002193    0.00000205    0.00001246
     atom   20 type  2   force =     0.00003216    0.00000630    0.00000861
     atom   21 type  1   force =     0.00004134   -0.00002805    0.00003478
     atom   22 type  2   force =     0.00000159    0.00001701    0.00003257
     atom   23 type  2   force =     0.00000814    0.00001178   -0.00001062
     atom   24 type  1   force =     0.00002816   -0.00000708    0.00006169
     atom   25 type  2   force =    -0.00000332   -0.00001088    0.00001883
     atom   26 type  2   force =     0.00000848    0.00000056    0.00000921
     atom   27 type  1   force =    -0.00001068    0.00000897    0.00000296
     atom   28 type  2   force =    -0.00000576   -0.00001434    0.00001361
     atom   29 type  2   force =    -0.00000149    0.00000893    0.00000343
     atom   30 type  1   force =    -0.00007006    0.00002946    0.00002863
     atom   31 type  2   force =    -0.00001378    0.00001589    0.00001178
     atom   32 type  2   force =    -0.00000863   -0.00000131   -0.00000242
     atom   33 type  1   force =    -0.00000431   -0.00000271    0.00005888
     atom   34 type  2   force =    -0.00001779    0.00000156    0.00000992
     atom   35 type  2   force =    -0.00001036   -0.00001520    0.00002013
     atom   36 type  3   force =     0.00001235    0.00000339    0.00000015

     Total force =     0.004964     Total SCF correction =     0.000249
     Energy error            =      5.9E-05 Ry
     Gradient error          =      1.5E-03 Ry/Bohr

     bfgs converged in  33 scf cycles and  32 bfgs steps
     (criteria: energy <  1.0E-04 Ry, force <  1.0E-02 Ry/Bohr)

     End of BFGS Geometry Optimization

     Final energy             =   -2205.7085723046 Ry

     File ./MoS2-V-O.bfgs deleted, as requested
Begin final coordinates

ATOMIC_POSITIONS (angstrom)
Mo            6.5394737916        1.7526099480        2.8241250768
S             8.1134523897        0.8448299492        4.4283290683
S             8.1179029100        0.8390678850        1.2404813011
Mo            8.1053357622        4.4855166213        2.7760368637
S             6.5062693181        3.6454066581        4.3767028052
S             6.5432366301        3.5511830574        1.1744613412
Mo            6.5232953661        7.1951118602        2.7212021710
S             8.0682206123        6.3055359894        4.3618491276
S             8.1333901227        6.3117026400        1.1685684060
Mo            8.1168465251        9.9336972377        2.8288779774
S             6.5156430619        8.9624997574        4.3890856234
S             6.5737573479        9.0448617494        1.1804947167
Mo            3.4034434311        1.7518339524        2.8151602641
S             4.9676886286        0.8105680478        4.4036761052
S             4.9741383095        0.8364502030        1.2257841173
Mo            4.9717732655        4.5111715213        2.7199283320
S             3.4346364279        3.6399488146        4.3697015840
S             3.4022951627        3.5526065282        1.1699775465
Mo            3.4268109090        7.1900922192        2.7192702499
S             4.9766181466        6.3091824707        1.0902439202
Mo            4.9748118458        9.9021239593        2.7897750309
S             3.4356691313        8.9561280080        4.3852084609
S             3.3817160897        9.0407076444        1.1772397330
Mo            0.2447124137        1.7370495776        2.8281711506
S             1.8358649948        0.8393968859        4.4234406166
S             1.8225294425        0.8334011412        1.2323673603
Mo            1.8404563324        4.4860310169        2.7714974886
S             0.2466592629        3.6026779628        4.3784085487
S             0.2439383608        3.5488896121        1.2073212065
Mo            0.2459993405        7.2045207697        2.7967186483
S             1.8812622577        6.3037151684        4.3605205289
S             1.8133890947        6.3125463599        1.1635998282
Mo            1.8352593577        9.9285402705        2.8239709054
S             0.2495750206        9.0200421896        4.4149741369
S             0.2452671142        9.0465486322        1.2307398052
H             4.9640132786        6.3163612127        3.6868514901
End final coordinates



     Writing all to output data dir ./MoS2-V-O.save/
 
     init_run     :      3.09s CPU      3.26s WALL (       1 calls)
     electrons    :   3044.24s CPU   3342.66s WALL (      33 calls)
     update_pot   :     44.71s CPU     46.57s WALL (      32 calls)
     forces       :     44.53s CPU     47.69s WALL (      33 calls)

     Called by init_run:
     wfcinit      :      0.39s CPU      0.42s WALL (       1 calls)
     potinit      :      2.03s CPU      2.11s WALL (       1 calls)
     hinit0       :      0.17s CPU      0.19s WALL (       1 calls)

     Called by electrons:
     c_bands      :    363.49s CPU    367.08s WALL (     282 calls)
     sum_band     :     90.03s CPU     98.76s WALL (     282 calls)
     v_of_rho     :    119.91s CPU    138.26s WALL (     308 calls)
     newd         :     49.31s CPU     55.57s WALL (     308 calls)
     mix_rho      :   2436.40s CPU   2696.30s WALL (     282 calls)

     Called by c_bands:
     init_us_2    :      6.15s CPU      6.38s WALL (     565 calls)
     init_us_2:cp :      6.15s CPU      6.38s WALL (     565 calls)
     regterg      :    343.31s CPU    346.66s WALL (     282 calls)

     Called by *egterg:
     rdiaghg      :     31.13s CPU     31.34s WALL (    1767 calls)
     h_psi        :    193.57s CPU    195.20s WALL (    1807 calls)
     s_psi        :     25.35s CPU     25.43s WALL (    1807 calls)
     g_psi        :      1.37s CPU      1.38s WALL (    1524 calls)

     Called by h_psi:
     h_psi:calbec :     27.53s CPU     27.63s WALL (    1807 calls)
     vloc_psi     :    138.01s CPU    139.42s WALL (    1807 calls)
     add_vuspsi   :     24.73s CPU     24.83s WALL (    1807 calls)

     General routines
     calbec       :     38.54s CPU     38.69s WALL (    2221 calls)
     fft          :     79.61s CPU     92.97s WALL (   20708 calls)
     ffts         :   1092.68s CPU   1344.09s WALL (  597540 calls)
     fftw         :    119.23s CPU    120.44s WALL (  179074 calls)
     interpolate  :      2.20s CPU      2.53s WALL (     308 calls)
 
     Parallel routines
 
     PWSCF        :  52m23.32s CPU  57m29.14s WALL

 
   This run was terminated on:   5:10:25   4Nov2023            

=------------------------------------------------------------------------------=
   JOB DONE.
=------------------------------------------------------------------------------=
