
     Program PWSCF v.7.2 starts on  4Nov2023 at  7:50:15 

     This program is part of the open-source Quantum ESPRESSO suite
     for quantum simulation of materials; please cite
         "P. Giannozzi et al., J. Phys.:Condens. Matter 21 395502 (2009);
         "P. Giannozzi et al., J. Phys.:Condens. Matter 29 465901 (2017);
         "P. Giannozzi et al., J. Chem. Phys. 152 154105 (2020);
          URL http://www.quantum-espresso.org", 
     in publications or presentations arising from this work. More details at
     http://www.quantum-espresso.org/quote

     Parallel version (MPI & OpenMP), running on      48 processor cores
     Number of MPI processes:                48
     Threads/MPI process:                     1

     MPI processes distributed on     1 nodes
     87541 MiB available memory on the printing compute node when the environment starts
 
     Waiting for input...
     Reading input from standard input
Warning: card &CELL ignored
Warning: card CELL_DYNAMICS = 'BFGS', ignored
Warning: card CELL_DOFREE = '2DXY' ignored
Warning: card / ignored

     Current dimensions of program PWSCF are:
     Max number of different atomic species (ntypx) = 10
     Max number of k-points (npk) =  40000
     Max angular momentum in pseudopotentials (lmaxx) =  4

     IMPORTANT: XC functional enforced from input :
     Exchange-correlation= RVV10
                           (   1   4  13   4  26   0   0)
     Any further DFT definition will be discarded
     Please, verify this is what you really want


     gamma-point specific algorithms are used
     signal trapping enabled: kill the code with -SIGUSR1 to stop cleanly the simulation 
 
     R & G space division:  proc/nbgrp/npool/nimage =      48
     Subspace diagonalization in iterative solution of the eigenvalue problem:
     one sub-group per band group will be used
     scalapack distributed-memory algorithm (size of sub-group:  2*  2 procs)

 
     Parallelization info
     --------------------
     sticks:   dense  smooth     PW     G-vecs:    dense   smooth      PW
     Min         243     194     47                49060    35090    4376
     Max         246     196     50                49086    35128    4410
     Sum       11735    9389   2349              2355467  1685513  210763
 
     Using Slab Decomposition
 


     bravais-lattice index     =            0
     lattice parameter (alat)  =      17.8707  a.u.
     unit-cell volume          =   17436.2743 (a.u.)^3
     number of atoms/cell      =           36
     number of atomic types    =            3
     number of electrons       =       307.00
     number of Kohn-Sham states=          185
     kinetic-energy cutoff     =      80.0000  Ry
     charge density cutoff     =     400.0000  Ry
     scf convergence threshold =      1.0E-06
     mixing beta               =       0.7000
     number of iterations used =            8  local-TF  mixing
     energy convergence thresh.=      1.0E-04
     force convergence thresh. =      1.0E-02
     Exchange-correlation= RVV10
                           (   1   4  13   4  26   0   0)
     nstep                     =          200


     celldm(1)=  17.870686  celldm(2)=   0.000000  celldm(3)=   0.000000
     celldm(4)=   0.000000  celldm(5)=   0.000000  celldm(6)=   0.000000

     crystal axes: (cart. coord. in units of alat)
               a(1) = (   1.000000   0.000000   0.000000 )  
               a(2) = (   0.000000   1.155671   0.000000 )  
               a(3) = (   0.000000   0.000000   2.643601 )  

     reciprocal axes: (cart. coord. in units 2 pi/alat)
               b(1) = (  1.000000  0.000000  0.000000 )  
               b(2) = (  0.000000  0.865298  0.000000 )  
               b(3) = (  0.000000  0.000000  0.378272 )  


     PseudoPot. # 1 for Mo read from file:
     ../pseudo/Mo_ONCV_PBE-1.0.oncvpsp.upf
     MD5 check sum: 1b5d28e075c9ccadda658a603575cd1f
     Pseudo is Norm-conserving, Zval = 14.0
     Generated using ONCVPSP code by D. R. Hamann
     Using radial grid of 1526 points,  6 beta functions with: 
                l(1) =   0
                l(2) =   0
                l(3) =   1
                l(4) =   1
                l(5) =   2
                l(6) =   2

     PseudoPot. # 2 for S  read from file:
     ../pseudo/s_pbe_v1.4.uspp.F.UPF
     MD5 check sum: 88d86576ff6df21479756cfb9bdac1df
     Pseudo is Ultrasoft + core correction, Zval =  6.0
     Generated by new atomic code, or converted to UPF format
     Using radial grid of  907 points,  6 beta functions with: 
                l(1) =   0
                l(2) =   0
                l(3) =   1
                l(4) =   1
                l(5) =   2
                l(6) =   2
     Q(r) pseudized with  8 coefficients,  rinner =    1.300   1.300   1.300
                                                       1.300   1.300

     PseudoPot. # 3 for H  read from file:
     ../pseudo/H_ONCV_PBE-1.0.oncvpsp.upf
     MD5 check sum: 1790becc920ee074925cf490c71280fe
     Pseudo is Norm-conserving, Zval =  1.0
     Generated using ONCVPSP code by D. R. Hamann
     Using radial grid of 1166 points,  2 beta functions with: 
                l(1) =   0
                l(2) =   0

     atomic species   valence    mass     pseudopotential
        Mo            14.00    95.94000     Mo( 1.00)
        S              6.00    32.06500     S ( 1.00)
        H              1.00     1.00794     H ( 1.00)

     No symmetry found



   Cartesian axes

     site n.     atom                  positions (alat units)
         1           Mo  tau(   1) = (   0.6952221   0.1890506   0.2985846  )
         2           S   tau(   2) = (   0.8646417   0.0856217   0.4689279  )
         3           S   tau(   3) = (   0.8663890   0.0857843   0.1351291  )
         4           Mo  tau(   4) = (   0.8560186   0.4753274   0.2873942  )
         5           S   tau(   5) = (   0.6873294   0.3936244   0.4596353  )
         6           S   tau(   6) = (   0.6929804   0.3713468   0.1185692  )
         7           Mo  tau(   7) = (   0.6862796   0.7633098   0.2825370  )
         8           S   tau(   8) = (   0.8545980   0.6708292   0.4486168  )
         9           S   tau(   9) = (   0.8545123   0.6666874   0.1146125  )
        10           Mo  tau(  10) = (   0.8629403   1.0471007   0.3006803  )
        11           S   tau(  11) = (   0.6868280   0.9456650   0.4634891  )
        12           S   tau(  12) = (   0.6998113   0.9568511   0.1205389  )
        13           Mo  tau(  13) = (   0.3618216   0.1847309   0.2935964  )
        14           S   tau(  14) = (   0.5260962   0.0863870   0.4600448  )
        15           S   tau(  15) = (   0.5348379   0.0894875   0.1297123  )
        16           Mo  tau(  16) = (   0.5265817   0.4772436   0.2784130  )
        17           S   tau(  17) = (   0.3624753   0.3882513   0.4525556  )
        18           S   tau(  18) = (   0.3635411   0.3752055   0.1119148  )
        19           Mo  tau(  19) = (   0.3652268   0.7630864   0.2781795  )
        20           S   tau(  20) = (   0.5269494   0.6690381   0.1096838  )
        21           Mo  tau(  21) = (   0.5300192   1.0470394   0.2900995  )
        22           S   tau(  22) = (   0.3670346   0.9457522   0.4574073  )
        23           S   tau(  23) = (   0.3604225   0.9585725   0.1159032  )
        24           Mo  tau(  24) = (   0.0313099   0.1847895   0.3013130  )
        25           S   tau(  25) = (   0.1956761   0.0838230   0.4650863  )
        26           S   tau(  26) = (   0.1967693   0.0903508   0.1278874  )
        27           Mo  tau(  27) = (   0.1967578   0.4753919   0.2813011  )
        28           S   tau(  28) = (   0.0287851   0.3864324   0.4586755  )
        29           S   tau(  29) = (   0.0244514   0.3729871   0.1239344  )
        30           Mo  tau(  30) = (   0.0286728   0.7631204   0.2856894  )
        31           S   tau(  31) = (   0.2011512   0.6675435   0.4465001  )
        32           S   tau(  32) = (   0.1969214   0.6672839   0.1104564  )
        33           Mo  tau(  33) = (   0.1950294   1.0511147   0.2932237  )
        34           S   tau(  34) = (   0.0312912   0.9612169   0.4667423  )
        35           S   tau(  35) = (   0.0292670   0.9563028   0.1216485  )
        36           H   tau(  36) = (   0.5555556   0.8988550   0.5391074  )

     number of k points=     1  Gaussian smearing, width (Ry)=  0.0100
                       cart. coord. in units 2pi/alat
        k(    1) = (   0.0000000   0.0000000   0.0000000), wk =   2.0000000

     Dense  grid:  1177734 G-vectors     FFT dimensions: ( 120, 135, 320)

     Smooth grid:   842757 G-vectors     FFT dimensions: ( 108, 120, 270)

     Estimated max dynamical RAM per process >     146.59 MB

     Estimated total dynamical RAM >       6.87 GB

     Initial potential from superposition of free atoms

     starting charge     306.9873, renormalised to     307.0000

     negative rho (up, down):  1.415E-04 0.000E+00


---------------------------------------------------------------------------------
Carrying out rVV10 run using the following parameters:
Nqs =      20    Nr_points =    1024   r_max =   100.000
b_value =  6.30000    beta =  0.00901
     q_mesh =  0.00010000  0.00030000  0.00058939  0.00100810
               0.00161396  0.00249058  0.00375900  0.00559430
               0.00824984  0.01209221  0.01765183  0.02569619
               0.03733578  0.05417739  0.07854596  0.11380545
               0.16482331  0.23864234  0.34545298  0.50000000

Gradients computed in Reciprocal space

---------------------------------------------------------------------------------


     Starting wfcs are  213 randomized atomic wfcs

     total cpu time spent up to now is        2.7 secs

     Self-consistent Calculation

     iteration #  1     ecut=    80.00 Ry     beta= 0.70
     Davidson diagonalization with overlap
     ethr =  1.00E-02,  avg # of iterations =  2.0

     Threshold (ethr) on eigenvalues was too large:
     Diagonalizing with lowered threshold

     Davidson diagonalization with overlap
     ethr =  3.83E-04,  avg # of iterations =  4.0

     negative rho (up, down):  1.689E-08 0.000E+00

     total cpu time spent up to now is       19.8 secs

     total energy              =   -2205.60040581 Ry
     estimated scf accuracy    <       1.45908241 Ry

     iteration #  2     ecut=    80.00 Ry     beta= 0.70
     Davidson diagonalization with overlap
     ethr =  4.75E-04,  avg # of iterations =  2.0

     total cpu time spent up to now is       22.2 secs

     total energy              =   -2205.47128311 Ry
     estimated scf accuracy    <       0.58810128 Ry

     iteration #  3     ecut=    80.00 Ry     beta= 0.70
     Davidson diagonalization with overlap
     ethr =  1.92E-04,  avg # of iterations =  5.0

     total cpu time spent up to now is       24.6 secs

     total energy              =   -2205.51652950 Ry
     estimated scf accuracy    <       0.16160957 Ry

     iteration #  4     ecut=    80.00 Ry     beta= 0.70
     Davidson diagonalization with overlap
     ethr =  5.26E-05,  avg # of iterations =  8.0

     total cpu time spent up to now is       27.2 secs

     total energy              =   -2205.53266034 Ry
     estimated scf accuracy    <       0.03906507 Ry

     iteration #  5     ecut=    80.00 Ry     beta= 0.70
     Davidson diagonalization with overlap
     ethr =  1.27E-05,  avg # of iterations = 20.0

     total cpu time spent up to now is       30.1 secs

     total energy              =   -2205.53327700 Ry
     estimated scf accuracy    <       0.02211502 Ry

     iteration #  6     ecut=    80.00 Ry     beta= 0.70
     Davidson diagonalization with overlap
     ethr =  7.20E-06,  avg # of iterations =  1.0

     total cpu time spent up to now is       32.1 secs

     total energy              =   -2205.53267307 Ry
     estimated scf accuracy    <       0.01256241 Ry

     iteration #  7     ecut=    80.00 Ry     beta= 0.70
     Davidson diagonalization with overlap
     ethr =  4.09E-06,  avg # of iterations =  1.0

     total cpu time spent up to now is       34.2 secs

     total energy              =   -2205.53091350 Ry
     estimated scf accuracy    <       0.00863222 Ry

     iteration #  8     ecut=    80.00 Ry     beta= 0.70
     Davidson diagonalization with overlap
     ethr =  2.81E-06,  avg # of iterations =  2.0

     negative rho (up, down):  5.186E-03 0.000E+00

     total cpu time spent up to now is       38.3 secs

     total energy              =   -2205.53031542 Ry
     estimated scf accuracy    <       0.00442835 Ry

     iteration #  9     ecut=    80.00 Ry     beta= 0.70
     Davidson diagonalization with overlap
     ethr =  1.44E-06,  avg # of iterations =  2.0

     negative rho (up, down):  1.964E-02 0.000E+00

     total cpu time spent up to now is       43.7 secs

     total energy              =   -2205.53008306 Ry
     estimated scf accuracy    <       0.00260444 Ry

     iteration # 10     ecut=    80.00 Ry     beta= 0.70
     Davidson diagonalization with overlap
     ethr =  8.48E-07,  avg # of iterations =  2.0

     negative rho (up, down):  3.152E-02 0.000E+00

     total cpu time spent up to now is       48.6 secs

     total energy              =   -2205.53015699 Ry
     estimated scf accuracy    <       0.00133864 Ry

     iteration # 11     ecut=    80.00 Ry     beta= 0.70
     Davidson diagonalization with overlap
     ethr =  4.36E-07,  avg # of iterations =  2.0

     negative rho (up, down):  2.241E-02 0.000E+00

     total cpu time spent up to now is       53.3 secs

     total energy              =   -2205.53022320 Ry
     estimated scf accuracy    <       0.00038196 Ry

     iteration # 12     ecut=    80.00 Ry     beta= 0.70
     Davidson diagonalization with overlap
     ethr =  1.24E-07,  avg # of iterations =  6.0

     negative rho (up, down):  8.319E-03 0.000E+00

     total cpu time spent up to now is       60.6 secs

     total energy              =   -2205.53027696 Ry
     estimated scf accuracy    <       0.00008291 Ry

     iteration # 13     ecut=    80.00 Ry     beta= 0.70
     Davidson diagonalization with overlap
     ethr =  2.70E-08,  avg # of iterations =  9.0

     negative rho (up, down):  1.604E-03 0.000E+00

     total cpu time spent up to now is       66.9 secs

     total energy              =   -2205.53030486 Ry
     estimated scf accuracy    <       0.00001190 Ry

     iteration # 14     ecut=    80.00 Ry     beta= 0.70
     Davidson diagonalization with overlap
     ethr =  3.88E-09,  avg # of iterations =  5.0

     negative rho (up, down):  5.405E-04 0.000E+00

     total cpu time spent up to now is       75.8 secs

     total energy              =   -2205.53030878 Ry
     estimated scf accuracy    <       0.00000193 Ry

     iteration # 15     ecut=    80.00 Ry     beta= 0.70
     Davidson diagonalization with overlap
     ethr =  6.29E-10,  avg # of iterations =  4.0

     negative rho (up, down):  1.375E-04 0.000E+00

     total cpu time spent up to now is       77.9 secs

     End of self-consistent calculation

          k = 0.0000 0.0000 0.0000 (105382 PWs)   bands (ev):

   -62.8565 -62.8395 -62.8313 -62.8271 -62.8144 -62.8090 -62.8037 -62.7932
   -62.7824 -62.6941 -62.6670 -62.6258 -37.1928 -37.1301 -37.1181 -37.1112
   -37.1025 -37.0871 -37.0747 -37.0498 -37.0411 -37.0379 -37.0215 -37.0154
   -37.0052 -36.9989 -36.9916 -36.9886 -36.9857 -36.9821 -36.9749 -36.9650
   -36.9335 -36.9196 -36.8958 -36.8907 -36.8783 -36.8713 -36.8644 -36.8460
   -36.8286 -36.8253 -36.8168 -36.7991 -36.7975 -36.7461 -36.6507 -36.6271
   -16.1309 -15.5813 -15.0986 -15.0495 -14.9404 -14.8672 -14.6398 -14.4961
   -14.4543 -14.4086 -14.3786 -14.3284 -14.3042 -14.2679 -14.1701 -14.1079
   -14.0825 -14.0736 -14.0026 -13.8686 -13.8349 -13.8005 -13.7672  -8.7097
    -7.6461  -7.4528  -7.2872  -7.2677  -7.2185  -7.1937  -7.1094  -7.0460
    -6.8114  -6.7484  -6.7287  -6.7050  -6.5196  -6.4890  -6.4797  -6.4024
    -6.3080  -6.2269  -6.0892  -5.9542  -5.9336  -5.8790  -5.8029  -5.7914
    -5.7424  -5.6956  -5.6560  -5.6222  -5.5852  -5.5476  -5.4949  -5.4728
    -5.4323  -5.3524  -5.1705  -5.1355  -5.0337  -5.0062  -4.9524  -4.9071
    -4.8860  -4.8107  -4.7027  -4.5448  -4.4356  -4.3349  -4.2731  -4.1991
    -4.1869  -4.0769  -4.0217  -3.8557  -3.8003  -3.7404  -3.7164  -3.6658
    -3.6194  -3.5685  -3.5238  -3.4952  -3.4624  -3.4394  -3.4054  -3.3730
    -3.3307  -3.1837  -3.0969  -2.9248  -2.8819  -2.8394  -2.7397  -2.6998
    -2.6820  -2.6332  -2.6263  -2.5971  -2.5315  -2.2380  -2.0034  -1.9591
    -1.9154  -0.8457  -0.7191  -0.6529  -0.1551  -0.1254  -0.0345  -0.0097
     0.0508   0.1394   0.1876   0.2246   0.2650   0.3136   0.4020   0.4562
     0.4933   0.5493   0.5774   0.6059   0.6609   0.6985   0.7538   0.7771
     0.7793   0.8258   0.8404   0.8790   0.9707   1.0209   1.0527   1.2826
     1.4664

     the Fermi energy is    -0.8648 ev

!    total energy              =   -2205.53030978 Ry
     estimated scf accuracy    <       0.00000084 Ry
     smearing contrib. (-TS)   =      -0.00782120 Ry
     internal energy E=F+TS    =   -2205.52248858 Ry

     The total energy is F=E-TS. E is the sum of the following terms:
     one-electron contribution =  -18053.87630323 Ry
     hartree contribution      =    9013.94327444 Ry
     xc contribution           =    -385.33006943 Ry
     ewald contribution        =    7219.74060963 Ry

     convergence has been achieved in  15 iterations

     negative rho (up, down):  1.375E-04 0.000E+00

     Forces acting on atoms (cartesian axes, Ry/au):

     atom    1 type  1   force =     0.01273400   -0.02918580    0.00428340
     atom    2 type  2   force =    -0.01263565    0.01902473    0.00225540
     atom    3 type  2   force =    -0.01203909    0.00627011   -0.00273371
     atom    4 type  1   force =     0.00860241   -0.00170940    0.00015178
     atom    5 type  2   force =    -0.00110027   -0.00692714   -0.00675869
     atom    6 type  2   force =     0.00155849    0.01135482    0.00086934
     atom    7 type  1   force =     0.00593955   -0.01177554   -0.01904916
     atom    8 type  2   force =     0.00170516   -0.00686854    0.01795646
     atom    9 type  2   force =     0.01635258    0.00294104    0.00848497
     atom   10 type  1   force =     0.01468199    0.02411725   -0.05118110
     atom   11 type  2   force =    -0.04723403   -0.03198806    0.04227284
     atom   12 type  2   force =    -0.00091997    0.00160265    0.00456752
     atom   13 type  1   force =     0.00511348    0.00185022   -0.00746726
     atom   14 type  2   force =     0.00752019    0.00001207    0.01380420
     atom   15 type  2   force =    -0.01212898    0.00463745   -0.00821823
     atom   16 type  1   force =     0.00239148    0.00642820    0.00358652
     atom   17 type  2   force =     0.00581462    0.00106954    0.00102227
     atom   18 type  2   force =    -0.00323795   -0.00596638    0.01444645
     atom   19 type  1   force =     0.00671852    0.00147036   -0.01158594
     atom   20 type  2   force =     0.00331019   -0.00480424    0.00135248
     atom   21 type  1   force =    -0.01099158    0.01586064   -0.02401168
     atom   22 type  2   force =     0.00640034   -0.00847972    0.00420107
     atom   23 type  2   force =    -0.00019198    0.00127873    0.00892198
     atom   24 type  1   force =    -0.00877158    0.00199134   -0.01935639
     atom   25 type  2   force =     0.01526391    0.01914018    0.00790934
     atom   26 type  2   force =    -0.01131456   -0.00203410   -0.00475600
     atom   27 type  1   force =    -0.00600791   -0.00521536    0.00831455
     atom   28 type  2   force =     0.00034318   -0.00110369   -0.00578676
     atom   29 type  2   force =     0.00261496    0.00064341   -0.00336399
     atom   30 type  1   force =    -0.00723611    0.01523018   -0.00614872
     atom   31 type  2   force =     0.00090080   -0.00153693    0.01640100
     atom   32 type  2   force =    -0.01134078    0.00384236    0.00578477
     atom   33 type  1   force =     0.00767616   -0.00229579   -0.00713922
     atom   34 type  2   force =     0.00380748   -0.04193345   -0.01159121
     atom   35 type  2   force =    -0.00959000    0.00630777    0.01336181
     atom   36 type  3   force =     0.02529096    0.01675110    0.00919992
     The non-local contrib.  to forces
     atom    1 type  1   force =    -0.00028566    0.03769040   -0.01203258
     atom    2 type  2   force =    -0.00783940    0.00678019   -0.26464096
     atom    3 type  2   force =    -0.01544157   -0.00480196    0.27200808
     atom    4 type  1   force =    -0.00091282    0.00720283    0.00402117
     atom    5 type  2   force =     0.00552312   -0.03415531   -0.25336673
     atom    6 type  2   force =    -0.00189038    0.01002927    0.26282492
     atom    7 type  1   force =    -0.02798169   -0.00264814   -0.01230416
     atom    8 type  2   force =     0.00403159   -0.00583432   -0.24986656
     atom    9 type  2   force =     0.01294294   -0.01294239    0.27657328
     atom   10 type  1   force =    -0.00156518   -0.00354903   -0.00853355
     atom   11 type  2   force =    -0.20790571   -0.06624947   -0.05311976
     atom   12 type  2   force =    -0.01443623   -0.01341173    0.26497319
     atom   13 type  1   force =    -0.00356633    0.02305259   -0.00705328
     atom   14 type  2   force =     0.00993111   -0.01471140   -0.25482549
     atom   15 type  2   force =    -0.01398063   -0.00777936    0.26274201
     atom   16 type  1   force =    -0.00238007    0.03155749   -0.02723955
     atom   17 type  2   force =     0.00274889   -0.02953941   -0.24940039
     atom   18 type  2   force =    -0.00324894   -0.00529573    0.27383619
     atom   19 type  1   force =     0.01895422   -0.01162136   -0.00809208
     atom   20 type  2   force =     0.00120713   -0.01787850    0.26407110
     atom   21 type  1   force =     0.00403305    0.02625388    0.00990432
     atom   22 type  2   force =     0.02063724   -0.01030955   -0.19040407
     atom   23 type  2   force =     0.00726264   -0.01111606    0.26853959
     atom   24 type  1   force =     0.00682479    0.01954011   -0.00992816
     atom   25 type  2   force =     0.00990205    0.00647704   -0.25827220
     atom   26 type  2   force =    -0.00226398   -0.01363430    0.26430191
     atom   27 type  1   force =    -0.00258597    0.01156745    0.00928351
     atom   28 type  2   force =    -0.00454915   -0.02296106   -0.27294451
     atom   29 type  2   force =     0.00574840    0.00189749    0.26235400
     atom   30 type  1   force =     0.00342776    0.00883007    0.01171586
     atom   31 type  2   force =    -0.00770409   -0.00034100   -0.25180201
     atom   32 type  2   force =    -0.00782546   -0.01265234    0.27280425
     atom   33 type  1   force =    -0.00622142    0.00669919    0.00003506
     atom   34 type  2   force =     0.00544613   -0.03987928   -0.26144745
     atom   35 type  2   force =    -0.00416625   -0.00615786    0.27496505
     atom   36 type  3   force =     0.02866423    0.01347612   -0.01918928
     The ionic contribution  to forces
     atom    1 type  1   force =     0.44791889    0.37184227    5.65913932
     atom    2 type  2   force =    -0.59135712    0.50325133   39.28339019
     atom    3 type  2   force =    -0.14210103    0.04947281  -36.09472415
     atom    4 type  1   force =     0.16329242    0.47501629    0.65930369
     atom    5 type  2   force =    -0.93944159    1.44485951   38.75403579
     atom    6 type  2   force =     0.35535357   -0.51181725  -38.02599048
     atom    7 type  1   force =    -2.30439920   -3.11544230    2.00290743
     atom    8 type  2   force =    -0.84188107   -0.10354575   37.36104712
     atom    9 type  2   force =     0.37108931   -0.06968600  -38.03180896
     atom   10 type  1   force =    -0.84305094   -0.15075411    5.48950104
     atom   11 type  2   force =     0.65110756   -1.16762468   38.45950536
     atom   12 type  2   force =     0.48644294    0.71416185  -37.96214337
     atom   13 type  1   force =     0.40947748    1.11413338    2.82441049
     atom   14 type  2   force =     0.03798050    0.24090704   38.48216366
     atom   15 type  2   force =     0.15442617   -0.01056015  -36.84141954
     atom   16 type  1   force =    -0.03782327    3.76508679    0.40997479
     atom   17 type  2   force =     0.77887714    1.45904571   37.94052062
     atom   18 type  2   force =    -0.17261495   -0.65667666  -38.56361333
     atom   19 type  1   force =     2.39707832   -2.69253622    0.25002560
     atom   20 type  2   force =     0.22278354   -0.25230743  -38.55021674
     atom   21 type  1   force =    -0.04252812    0.54818049    0.41614133
     atom   22 type  2   force =    -0.26401921   -1.52987330   38.13579598
     atom   23 type  2   force =    -0.13408653    0.68454086  -38.37700486
     atom   24 type  1   force =    -0.54082513    1.20528958    5.86003182
     atom   25 type  2   force =     0.60142833    0.36205359   39.27448487
     atom   26 type  2   force =    -0.30552024    0.09359486  -37.33669902
     atom   27 type  1   force =    -0.03076911    0.31730631   -2.25154183
     atom   28 type  2   force =     0.05617166    0.98681763   38.22261020
     atom   29 type  2   force =    -0.26325660   -0.43488863  -37.25269369
     atom   30 type  1   force =    -0.30729318   -0.97854997   -0.10045464
     atom   31 type  2   force =     1.12581515   -0.15109932   37.31359896
     atom   32 type  2   force =    -0.50324938   -0.03424334  -38.65380106
     atom   33 type  1   force =     0.61456814   -0.72804365    1.95235662
     atom   34 type  2   force =     0.26629726   -1.41339378   39.34939065
     atom   35 type  2   force =    -0.29391423    0.48770224  -37.83801195
     atom   36 type  3   force =    -0.58197748   -0.82221999    7.77978806
     The local contribution  to forces
     atom    1 type  1   force =    -0.43462518   -0.43911515   -5.64177048
     atom    2 type  2   force =     0.58640313   -0.49095255  -39.03664374
     atom    3 type  2   force =     0.14483798   -0.03869742   35.84146126
     atom    4 type  1   force =    -0.15338057   -0.48411068   -0.66222326
     atom    5 type  2   force =     0.93355823   -1.41967503  -38.52728132
     atom    6 type  2   force =    -0.35202223    0.51406455   37.78510678
     atom    7 type  1   force =     2.33867655    3.10684791   -2.00851853
     atom    8 type  2   force =     0.83973293    0.10205329  -37.11287137
     atom    9 type  2   force =    -0.36709682    0.08479173   37.78493208
     atom   10 type  1   force =     0.85937703    0.17862100   -5.53096542
     atom   11 type  2   force =    -0.50454288    1.19765220  -38.37153753
     atom   12 type  2   force =    -0.47404027   -0.70015838   37.72312075
     atom   13 type  1   force =    -0.40093784   -1.13554950   -2.82382721
     atom   14 type  2   force =    -0.03978065   -0.22669354  -38.23333380
     atom   15 type  2   force =    -0.15329583    0.02244771   36.59151221
     atom   16 type  1   force =     0.04254523   -3.79054007   -0.37823788
     atom   17 type  2   force =    -0.77594004   -1.43011514  -37.70979812
     atom   18 type  2   force =     0.17242332    0.65628736   38.32546102
     atom   19 type  1   force =    -2.40965697    2.70602909   -0.25252670
     atom   20 type  2   force =    -0.22079246    0.26481992   38.30868609
     atom   21 type  1   force =     0.02765567   -0.55846263   -0.44885264
     atom   22 type  2   force =     0.25198457    1.53139316  -37.95747009
     atom   23 type  2   force =     0.12715423   -0.67313135   38.13871966
     atom   24 type  1   force =     0.52506401   -1.22310837   -5.86833447
     atom   25 type  2   force =    -0.59601766   -0.34904239  -39.02849229
     atom   26 type  2   force =     0.29657146   -0.08281508   37.08895958
     atom   27 type  1   force =     0.02700951   -0.33421380    2.25145290
     atom   28 type  2   force =    -0.05158684   -0.96672620  -37.97585673
     atom   29 type  2   force =     0.26064416    0.43418535   37.00783714
     atom   30 type  1   force =     0.29659194    0.98514250    0.08357710
     atom   31 type  2   force =    -1.11774698    0.14982843  -37.06536831
     atom   32 type  2   force =     0.49951630    0.04995806   38.40804309
     atom   33 type  1   force =    -0.60086514    0.71911890   -1.95838381
     atom   34 type  2   force =    -0.26823743    1.41023853  -39.11983256
     atom   35 type  2   force =     0.28840093   -0.47587940   37.59816156
     atom   36 type  3   force =     0.57862873    0.82552612   -7.75133943
     The core correction contribution to forces
     atom    1 type  1   force =     0.00000000    0.00000000    0.00000000
     atom    2 type  2   force =     0.00020202   -0.00022911    0.02043901
     atom    3 type  2   force =     0.00070906    0.00015712   -0.02097005
     atom    4 type  1   force =     0.00000000    0.00000000    0.00000000
     atom    5 type  2   force =    -0.00058495    0.00191661    0.02034567
     atom    6 type  2   force =     0.00024517   -0.00100393   -0.02085666
     atom    7 type  1   force =     0.00000000    0.00000000    0.00000000
     atom    8 type  2   force =    -0.00005978    0.00048535    0.02011801
     atom    9 type  2   force =    -0.00043831    0.00073667   -0.02096907
     atom   10 type  1   force =     0.00000000    0.00000000    0.00000000
     atom   11 type  2   force =     0.01417111    0.00443926    0.00787898
     atom   12 type  2   force =     0.00122818    0.00118700   -0.02093854
     atom   13 type  1   force =     0.00000000    0.00000000    0.00000000
     atom   14 type  2   force =    -0.00056821    0.00036982    0.02019793
     atom   15 type  2   force =     0.00074912    0.00045534   -0.02066331
     atom   16 type  1   force =     0.00000000    0.00000000    0.00000000
     atom   17 type  2   force =    -0.00002814    0.00156765    0.02019186
     atom   18 type  2   force =     0.00006534   -0.00033767   -0.02101974
     atom   19 type  1   force =     0.00000000    0.00000000    0.00000000
     atom   20 type  2   force =     0.00005096    0.00061471   -0.02110993
     atom   21 type  1   force =     0.00000000    0.00000000    0.00000000
     atom   22 type  2   force =    -0.00215590    0.00041903    0.01665809
     atom   23 type  2   force =    -0.00055201    0.00102935   -0.02092791
     atom   24 type  1   force =     0.00000000    0.00000000    0.00000000
     atom   25 type  2   force =    -0.00013807   -0.00040479    0.02056573
     atom   26 type  2   force =    -0.00015985    0.00078614   -0.02090807
     atom   27 type  1   force =     0.00000000    0.00000000    0.00000000
     atom   28 type  2   force =     0.00029986    0.00171809    0.02084955
     atom   29 type  2   force =    -0.00051794   -0.00053233   -0.02052212
     atom   30 type  1   force =     0.00000000    0.00000000    0.00000000
     atom   31 type  2   force =     0.00043947    0.00006643    0.02040656
     atom   32 type  2   force =     0.00014531    0.00074334   -0.02098255
     atom   33 type  1   force =     0.00000000    0.00000000    0.00000000
     atom   34 type  2   force =     0.00016975    0.00126238    0.02054258
     atom   35 type  2   force =     0.00000326    0.00074140   -0.02125969
     atom   36 type  3   force =     0.00000000    0.00000000    0.00000000
     The Hubbard contrib.    to forces
     atom    1 type  1   force =     0.00000000    0.00000000    0.00000000
     atom    2 type  2   force =     0.00000000    0.00000000    0.00000000
     atom    3 type  2   force =     0.00000000    0.00000000    0.00000000
     atom    4 type  1   force =     0.00000000    0.00000000    0.00000000
     atom    5 type  2   force =     0.00000000    0.00000000    0.00000000
     atom    6 type  2   force =     0.00000000    0.00000000    0.00000000
     atom    7 type  1   force =     0.00000000    0.00000000    0.00000000
     atom    8 type  2   force =     0.00000000    0.00000000    0.00000000
     atom    9 type  2   force =     0.00000000    0.00000000    0.00000000
     atom   10 type  1   force =     0.00000000    0.00000000    0.00000000
     atom   11 type  2   force =     0.00000000    0.00000000    0.00000000
     atom   12 type  2   force =     0.00000000    0.00000000    0.00000000
     atom   13 type  1   force =     0.00000000    0.00000000    0.00000000
     atom   14 type  2   force =     0.00000000    0.00000000    0.00000000
     atom   15 type  2   force =     0.00000000    0.00000000    0.00000000
     atom   16 type  1   force =     0.00000000    0.00000000    0.00000000
     atom   17 type  2   force =     0.00000000    0.00000000    0.00000000
     atom   18 type  2   force =     0.00000000    0.00000000    0.00000000
     atom   19 type  1   force =     0.00000000    0.00000000    0.00000000
     atom   20 type  2   force =     0.00000000    0.00000000    0.00000000
     atom   21 type  1   force =     0.00000000    0.00000000    0.00000000
     atom   22 type  2   force =     0.00000000    0.00000000    0.00000000
     atom   23 type  2   force =     0.00000000    0.00000000    0.00000000
     atom   24 type  1   force =     0.00000000    0.00000000    0.00000000
     atom   25 type  2   force =     0.00000000    0.00000000    0.00000000
     atom   26 type  2   force =     0.00000000    0.00000000    0.00000000
     atom   27 type  1   force =     0.00000000    0.00000000    0.00000000
     atom   28 type  2   force =     0.00000000    0.00000000    0.00000000
     atom   29 type  2   force =     0.00000000    0.00000000    0.00000000
     atom   30 type  1   force =     0.00000000    0.00000000    0.00000000
     atom   31 type  2   force =     0.00000000    0.00000000    0.00000000
     atom   32 type  2   force =     0.00000000    0.00000000    0.00000000
     atom   33 type  1   force =     0.00000000    0.00000000    0.00000000
     atom   34 type  2   force =     0.00000000    0.00000000    0.00000000
     atom   35 type  2   force =     0.00000000    0.00000000    0.00000000
     atom   36 type  3   force =     0.00000000    0.00000000    0.00000000
     The SCF correction term to forces
     atom    1 type  1   force =    -0.00027358    0.00039297   -0.00102871
     atom    2 type  2   force =    -0.00004379    0.00017118   -0.00026495
     atom    3 type  2   force =    -0.00004306    0.00013586   -0.00048471
     atom    4 type  1   force =    -0.00039614    0.00017847   -0.00092566
     atom    5 type  2   force =    -0.00015459    0.00012339   -0.00046795
     atom    6 type  2   force =    -0.00012717    0.00007848   -0.00019108
     atom    7 type  1   force =    -0.00035564   -0.00053672   -0.00110975
     atom    8 type  2   force =    -0.00011802   -0.00003082   -0.00044659
     atom    9 type  2   force =    -0.00014405    0.00003734   -0.00021820
     atom   10 type  1   force =    -0.00007844   -0.00020432   -0.00115902
     atom   11 type  2   force =    -0.00006364   -0.00020907   -0.00043005
     atom   12 type  2   force =    -0.00011412   -0.00017980   -0.00042036
     atom   13 type  1   force =     0.00014065    0.00021004   -0.00097311
     atom   14 type  2   force =    -0.00004207    0.00013644   -0.00037395
     atom   15 type  2   force =    -0.00002732    0.00007021   -0.00036545
     atom   16 type  1   force =     0.00005007    0.00032029   -0.00088669
     atom   17 type  2   force =     0.00015725    0.00010703   -0.00046756
     atom   18 type  2   force =     0.00013775    0.00005261   -0.00019353
     atom   19 type  1   force =     0.00034342   -0.00040485   -0.00096861
     atom   20 type  2   force =     0.00006151   -0.00005665   -0.00005388
     atom   21 type  1   force =    -0.00015170   -0.00011480   -0.00118054
     atom   22 type  2   force =    -0.00004588   -0.00011276   -0.00035469
     atom   23 type  2   force =     0.00003017   -0.00004776   -0.00038034
     atom   24 type  1   force =     0.00016524    0.00026632   -0.00110143
     atom   25 type  2   force =     0.00008974    0.00005302   -0.00035262
     atom   26 type  2   force =     0.00005852    0.00003059   -0.00038625
     atom   27 type  1   force =     0.00033814    0.00012098   -0.00085589
     atom   28 type  2   force =     0.00000815    0.00004414   -0.00042112
     atom   29 type  2   force =    -0.00000258   -0.00002217   -0.00031517
     atom   30 type  1   force =     0.00003785   -0.00019612   -0.00096289
     atom   31 type  2   force =     0.00009773    0.00000483   -0.00041005
     atom   32 type  2   force =     0.00007293    0.00003294   -0.00025481
     atom   33 type  1   force =     0.00019505   -0.00007393   -0.00112294
     atom   34 type  2   force =     0.00013224   -0.00016500   -0.00022028
     atom   35 type  2   force =     0.00008678   -0.00010230   -0.00046901
     atom   36 type  3   force =    -0.00002405   -0.00003485   -0.00003528

     Total force =     0.140209     Total SCF correction =     0.004224

     BFGS Geometry Optimization
     Energy error            =      0.0E+00 Ry
     Gradient error          =      5.1E-02 Ry/Bohr

     number of scf cycles    =   1
     number of bfgs steps    =   0

     energy             new  =   -2205.5303097799 Ry

     new trust radius        =       0.0710019877 bohr
     new conv_thr            =       0.0000010000 Ry


ATOMIC_POSITIONS (angstrom)
Mo            6.5812869495        1.7723617676        2.8259097070
S             8.1700228434        0.8197714801        4.4357318575
S             8.1868622731        0.8145597460        1.2764368068
Mo            8.0997147637        4.4941523709        2.7178987136
S             6.4993270211        3.7187458054        4.3430841029
S             6.5541745142        3.5177462661        1.1217402627
Mo            6.4931247692        7.2122059380        2.6618041016
S             8.0826300596        6.3402363170        4.2519637146
S             8.0895710589        6.3062586492        1.0883530513
Mo            8.1683884243        9.9149427099        2.8163778897
S             6.4701724252        8.9259994623        4.4054753572
S             6.6174603737        9.0495592964        1.1423243325
Mo            3.4243656000        1.7479349440        2.7725196571
S             4.9791450041        0.8169475949        4.3578379603
S             5.0514153741        0.8487161409        1.2223095622
Mo            4.9810221958        4.5165796585        2.6347824539
S             3.4309186274        3.6721656599        4.2802505427
S             3.4362071315        3.5450714274        1.0659964148
Mo            3.4574170262        7.2171026181        2.6245458470
S             4.9849858725        6.3243899893        1.0379694324
Mo            5.0064474256        9.9099931417        2.7306945281
S             3.4743450310        8.9392639920        4.3278144223
S             3.4083275721        9.0656666610        1.1007896065
Mo            0.2914487661        1.7485633054        2.8392017466
S             1.8585395259        0.8028225561        4.4023948820
S             1.8548126252        0.8533495192        1.2068840880
Mo            1.8575120589        4.4929069093        2.6645972483
S             0.2723954544        3.6538147773        4.3345218795
S             0.2326149860        3.5275897030        1.1702377384
Mo            0.2673229674        7.2247055592        2.6984426635
S             1.9027149304        6.3119855248        4.2311231563
S             1.8562369326        6.3123771002        1.0476204515
Mo            1.8484087090        9.9389242749        2.7691683408
S             0.2979277319        9.0678075994        4.4077356596
S             0.2716965899        9.0468636430        1.1574715453
H             5.2671389534        8.5091198578        5.1030778249



     Writing config-only to output data dir ./MoS2-V-O.save/
     NEW-OLD atomic charge density approx. for the potential

     negative rho (up, down):  1.452E-04 0.000E+00

     total cpu time spent up to now is       81.2 secs

     Self-consistent Calculation

     iteration #  1     ecut=    80.00 Ry     beta= 0.70
     Davidson diagonalization with overlap
     c_bands:  1 eigenvalues not converged
     ethr =  1.00E-06,  avg # of iterations = 20.0

     negative rho (up, down):  1.333E-04 0.000E+00

     total cpu time spent up to now is       96.6 secs

     total energy              =   -2205.54575116 Ry
     estimated scf accuracy    <       0.00225507 Ry

     iteration #  2     ecut=    80.00 Ry     beta= 0.70
     Davidson diagonalization with overlap
     c_bands:  1 eigenvalues not converged
     ethr =  7.35E-07,  avg # of iterations = 20.0

     negative rho (up, down):  1.258E-04 0.000E+00

     total cpu time spent up to now is      109.4 secs

     total energy              =   -2205.54581291 Ry
     estimated scf accuracy    <       0.00047214 Ry

     iteration #  3     ecut=    80.00 Ry     beta= 0.70
     Davidson diagonalization with overlap
     c_bands:  1 eigenvalues not converged
     ethr =  1.54E-07,  avg # of iterations = 20.0

     negative rho (up, down):  1.244E-04 0.000E+00

     total cpu time spent up to now is      126.8 secs

     total energy              =   -2205.54584637 Ry
     estimated scf accuracy    <       0.00021182 Ry

     iteration #  4     ecut=    80.00 Ry     beta= 0.70
     Davidson diagonalization with overlap
     ethr =  6.90E-08,  avg # of iterations =  2.0

     negative rho (up, down):  1.209E-04 0.000E+00

     total cpu time spent up to now is      142.8 secs

     total energy              =   -2205.54586346 Ry
     estimated scf accuracy    <       0.00002337 Ry

     iteration #  5     ecut=    80.00 Ry     beta= 0.70
     Davidson diagonalization with overlap
     ethr =  7.61E-09,  avg # of iterations = 16.0

     negative rho (up, down):  1.165E-04 0.000E+00

     total cpu time spent up to now is      159.8 secs

     total energy              =   -2205.54586958 Ry
     estimated scf accuracy    <       0.00000581 Ry

     iteration #  6     ecut=    80.00 Ry     beta= 0.70
     Davidson diagonalization with overlap
     ethr =  1.89E-09,  avg # of iterations =  2.0

     negative rho (up, down):  1.114E-04 0.000E+00

     total cpu time spent up to now is      174.7 secs

     total energy              =   -2205.54587005 Ry
     estimated scf accuracy    <       0.00000145 Ry

     iteration #  7     ecut=    80.00 Ry     beta= 0.70
     Davidson diagonalization with overlap
     ethr =  4.72E-10,  avg # of iterations =  5.0

     negative rho (up, down):  1.379E-04 0.000E+00

     total cpu time spent up to now is      176.9 secs

     End of self-consistent calculation

          k = 0.0000 0.0000 0.0000 (105382 PWs)   bands (ev):

   -62.8502 -62.8333 -62.8272 -62.8215 -62.8132 -62.8096 -62.8034 -62.7944
   -62.7799 -62.7053 -62.6698 -62.6389 -37.1917 -37.1222 -37.1140 -37.1077
   -37.1002 -37.0790 -37.0658 -37.0430 -37.0376 -37.0297 -37.0190 -37.0151
   -37.0051 -36.9989 -36.9911 -36.9891 -36.9826 -36.9798 -36.9765 -36.9658
   -36.9333 -36.9175 -36.8954 -36.8916 -36.8756 -36.8696 -36.8652 -36.8516
   -36.8350 -36.8271 -36.8201 -36.8085 -36.7989 -36.7553 -36.6615 -36.6332
   -16.1362 -15.6035 -15.0945 -15.0510 -14.9423 -14.8586 -14.6368 -14.4840
   -14.4464 -14.3973 -14.3765 -14.3357 -14.3129 -14.2703 -14.1682 -14.1113
   -14.0852 -14.0727 -14.0112 -13.8546 -13.8205 -13.8045 -13.7937  -8.7270
    -7.6399  -7.4439  -7.2716  -7.2616  -7.2166  -7.1817  -7.1220  -7.0569
    -6.8027  -6.7403  -6.7203  -6.6933  -6.5199  -6.4964  -6.4772  -6.3760
    -6.3115  -6.2294  -6.1019  -5.9473  -5.9315  -5.8714  -5.7984  -5.7937
    -5.7396  -5.7020  -5.6581  -5.6284  -5.5908  -5.5450  -5.4982  -5.4640
    -5.4212  -5.3234  -5.1542  -5.1317  -5.0195  -4.9910  -4.9590  -4.9197
    -4.8848  -4.8227  -4.7038  -4.5512  -4.4435  -4.3041  -4.2837  -4.2032
    -4.1895  -4.0836  -4.0360  -3.8633  -3.7988  -3.7496  -3.7147  -3.6645
    -3.6212  -3.5655  -3.5231  -3.4834  -3.4654  -3.4380  -3.4064  -3.3814
    -3.3247  -3.1898  -3.0947  -2.9240  -2.8679  -2.8243  -2.7478  -2.7012
    -2.6776  -2.6367  -2.6314  -2.5977  -2.5359  -2.2292  -2.0028  -1.9653
    -1.9415  -0.8663  -0.7271  -0.6508  -0.1378  -0.1236  -0.0164  -0.0148
     0.0664   0.1449   0.1796   0.2379   0.2640   0.3331   0.4102   0.4516
     0.4965   0.5546   0.5912   0.6155   0.6648   0.6944   0.7397   0.7689
     0.7881   0.8334   0.8448   0.8872   1.0026   1.0237   1.0434   1.2842
     1.3905

     the Fermi energy is    -0.8815 ev

!    total energy              =   -2205.54586985 Ry
     estimated scf accuracy    <       0.00000060 Ry
     smearing contrib. (-TS)   =      -0.00744821 Ry
     internal energy E=F+TS    =   -2205.53842164 Ry

     The total energy is F=E-TS. E is the sum of the following terms:
     one-electron contribution =  -18051.26427617 Ry
     hartree contribution      =    9012.65217005 Ry
     xc contribution           =    -385.33687312 Ry
     ewald contribution        =    7218.41055760 Ry

     convergence has been achieved in   7 iterations

     negative rho (up, down):  1.379E-04 0.000E+00

     Forces acting on atoms (cartesian axes, Ry/au):

     atom    1 type  1   force =     0.00374744   -0.01647331    0.00067168
     atom    2 type  2   force =    -0.00684525    0.01116120   -0.00101759
     atom    3 type  2   force =    -0.00891213    0.00823028   -0.01184347
     atom    4 type  1   force =     0.00711264   -0.00013870    0.00155455
     atom    5 type  2   force =     0.00065619   -0.00785830   -0.00624087
     atom    6 type  2   force =     0.00139087    0.00697519    0.00279387
     atom    7 type  1   force =     0.00502037   -0.00952437   -0.00467804
     atom    8 type  2   force =     0.00115795   -0.00535973    0.01071056
     atom    9 type  2   force =     0.01475871    0.00190541    0.00373375
     atom   10 type  1   force =     0.00643541    0.01466962   -0.02172434
     atom   11 type  2   force =    -0.02640157   -0.02330530    0.02362660
     atom   12 type  2   force =    -0.00107429    0.00228517   -0.00085376
     atom   13 type  1   force =     0.00421876    0.00123176   -0.00225865
     atom   14 type  2   force =     0.00496603   -0.00117758    0.00804675
     atom   15 type  2   force =    -0.00921332    0.00587788   -0.01007363
     atom   16 type  1   force =     0.00304593    0.00530550    0.00312873
     atom   17 type  2   force =     0.00525150    0.00061434    0.00097704
     atom   18 type  2   force =    -0.00245985   -0.00356491    0.01170869
     atom   19 type  1   force =     0.00391220    0.00139225   -0.00410982
     atom   20 type  2   force =     0.00272246   -0.00483792   -0.00336810
     atom   21 type  1   force =    -0.00776350    0.00605002   -0.00497169
     atom   22 type  2   force =     0.00009013   -0.00376150   -0.00516600
     atom   23 type  2   force =    -0.00102471    0.00116547    0.00173901
     atom   24 type  1   force =    -0.00558065    0.00147710   -0.00872127
     atom   25 type  2   force =     0.01051447    0.01480072    0.00099783
     atom   26 type  2   force =    -0.00799892   -0.00155614   -0.00552793
     atom   27 type  1   force =    -0.00392016   -0.00231440    0.00742482
     atom   28 type  2   force =    -0.00026269   -0.00244233   -0.00462357
     atom   29 type  2   force =     0.00241512    0.00161573   -0.00477050
     atom   30 type  1   force =    -0.00507116    0.00606996    0.00365208
     atom   31 type  2   force =     0.00070664    0.00016763    0.00862514
     atom   32 type  2   force =    -0.00949376    0.00299240    0.00492034
     atom   33 type  1   force =     0.00522987   -0.00205268    0.00379229
     atom   34 type  2   force =    -0.00081067   -0.02959360   -0.01617685
     atom   35 type  2   force =    -0.00485159    0.00766092    0.00315957
     atom   36 type  3   force =     0.01833154    0.01231223    0.01486278
     The non-local contrib.  to forces
     atom    1 type  1   force =     0.00126245    0.03232896   -0.01252450
     atom    2 type  2   force =    -0.00364783    0.00357107   -0.26428666
     atom    3 type  2   force =    -0.01155264   -0.00459764    0.26492835
     atom    4 type  1   force =     0.00075723    0.00798508    0.00328568
     atom    5 type  2   force =     0.00672328   -0.03550088   -0.25443983
     atom    6 type  2   force =    -0.00158187    0.00591011    0.26525291
     atom    7 type  1   force =    -0.02811661   -0.00158162   -0.01646642
     atom    8 type  2   force =     0.00465872   -0.00541347   -0.25487260
     atom    9 type  2   force =     0.01156591   -0.01399027    0.27361481
     atom   10 type  1   force =     0.00126514   -0.00052434   -0.01092337
     atom   11 type  2   force =    -0.21163513   -0.05906074   -0.06965389
     atom   12 type  2   force =    -0.01374872   -0.01277897    0.26432721
     atom   13 type  1   force =    -0.00304651    0.02328831   -0.00731361
     atom   14 type  2   force =     0.00756317   -0.01420154   -0.25699521
     atom   15 type  2   force =    -0.01148356   -0.00749933    0.26042122
     atom   16 type  1   force =    -0.00418466    0.03197562   -0.03033744
     atom   17 type  2   force =     0.00234918   -0.02914790   -0.24978831
     atom   18 type  2   force =    -0.00260971   -0.00357767    0.27271304
     atom   19 type  1   force =     0.01940171   -0.01126060   -0.01017353
     atom   20 type  2   force =     0.00101808   -0.01679739    0.26212432
     atom   21 type  1   force =     0.00223085    0.02790729    0.00742203
     atom   22 type  2   force =     0.00754764   -0.00469296   -0.20063888
     atom   23 type  2   force =     0.00724828   -0.01110273    0.26446577
     atom   24 type  1   force =     0.00492845    0.02008132   -0.00908312
     atom   25 type  2   force =     0.00660444    0.00291485   -0.26264636
     atom   26 type  2   force =     0.00019725   -0.01278297    0.26394560
     atom   27 type  1   force =    -0.00401824    0.01010911    0.00836199
     atom   28 type  2   force =    -0.00511172   -0.02254008   -0.27257414
     atom   29 type  2   force =     0.00498685    0.00124735    0.26183465
     atom   30 type  1   force =     0.00313537    0.01021767    0.01065025
     atom   31 type  2   force =    -0.00788476    0.00042401   -0.25821162
     atom   32 type  2   force =    -0.00552983   -0.01243241    0.27331813
     atom   33 type  1   force =    -0.00627025    0.00534460   -0.00127355
     atom   34 type  2   force =     0.00422277   -0.03043465   -0.26527533
     atom   35 type  2   force =    -0.00176781   -0.00466577    0.26896835
     atom   36 type  3   force =     0.03443751    0.01485090   -0.02218300
     The ionic contribution  to forces
     atom    1 type  1   force =     0.17881163    0.68773079    5.82921250
     atom    2 type  2   force =    -0.46110697    0.28615842   39.39637532
     atom    3 type  2   force =    -0.14708163    0.16502145  -36.24657193
     atom    4 type  1   force =     0.03554989    0.51443052    0.76923600
     atom    5 type  2   force =    -0.94488045    1.42913988   38.67275924
     atom    6 type  2   force =     0.30801364   -0.54839369  -37.91924287
     atom    7 type  1   force =    -2.22316883   -2.77682868    1.78198358
     atom    8 type  2   force =    -0.87240608   -0.03144691   37.44867268
     atom    9 type  2   force =     0.36688554   -0.11982513  -37.99538844
     atom   10 type  1   force =    -1.13131160   -0.47635717    4.93021193
     atom   11 type  2   force =     0.92074449   -1.07172888   38.38082930
     atom   12 type  2   force =     0.42205902    0.63369685  -37.84802578
     atom   13 type  1   force =     0.38077846    1.12663973    2.80113498
     atom   14 type  2   force =    -0.00252222    0.20576067   38.57940141
     atom   15 type  2   force =     0.17796749    0.10250007  -36.91373687
     atom   16 type  1   force =    -0.04087390    3.66152176    0.59016976
     atom   17 type  2   force =     0.78743630    1.44819634   37.94482617
     atom   18 type  2   force =    -0.15390165   -0.57987038  -38.46154785
     atom   19 type  1   force =     2.29491024   -2.77776956    0.09808216
     atom   20 type  2   force =     0.18168876   -0.28674914  -38.57229522
     atom   21 type  1   force =     0.22527591    0.32840085    0.13753678
     atom   22 type  2   force =    -0.25180932   -1.51998945   38.14889924
     atom   23 type  2   force =    -0.15815430    0.62496789  -38.37009135
     atom   24 type  1   force =    -0.31714409    1.09728546    5.65814785
     atom   25 type  2   force =     0.49687684    0.29795071   39.27853887
     atom   26 type  2   force =    -0.25538240    0.11087656  -37.31813683
     atom   27 type  1   force =     0.08686265    0.49641854   -1.96038999
     atom   28 type  2   force =     0.06124452    0.93422362   38.25309170
     atom   29 type  2   force =    -0.23790124   -0.36833696  -37.30575155
     atom   30 type  1   force =    -0.23667119   -1.15559023   -0.03093726
     atom   31 type  2   force =     1.13936438   -0.10992063   37.32944330
     atom   32 type  2   force =    -0.46693776   -0.08857959  -38.55697664
     atom   33 type  1   force =     0.56578274   -0.60518502    2.19289431
     atom   34 type  2   force =     0.12011578   -1.22915640   39.29195047
     atom   35 type  2   force =    -0.18352620    0.42538679  -37.83031618
     atom   36 type  3   force =    -0.66558845   -0.83057909    7.81601120
     The local contribution  to forces
     atom    1 type  1   force =    -0.17603494   -0.73696277   -5.81691283
     atom    2 type  2   force =     0.45782135   -0.27828432  -39.15401232
     atom    3 type  2   force =     0.14922087   -0.15255678   35.99043273
     atom    4 type  1   force =    -0.02901129   -0.52269219   -0.77190658
     atom    5 type  2   force =     0.93952082   -1.40358055  -38.44523089
     atom    6 type  2   force =    -0.30519038    0.55020478   37.67734339
     atom    7 type  1   force =     2.25645981    2.76894182   -1.77128353
     atom    8 type  2   force =     0.86911775    0.03106096  -37.20376069
     atom    9 type  2   force =    -0.36327142    0.13509524   37.74612263
     atom   10 type  1   force =     1.13694835    0.49190484   -4.94246456
     atom   11 type  2   force =    -0.75043921    1.10321691  -38.29564153
     atom   12 type  2   force =    -0.41045358   -0.61961528   37.60338319
     atom   13 type  1   force =    -0.37365239   -1.14900130   -2.79702513
     atom   14 type  2   force =     0.00047478   -0.19307535  -38.33505195
     atom   15 type  2   force =    -0.17635593   -0.08978228   36.66356581
     atom   16 type  1   force =     0.04815377   -3.68834254   -0.55765426
     atom   17 type  2   force =    -0.78458937   -1.42008304  -37.71458719
     atom   18 type  2   force =     0.15397042    0.58013433   38.22122348
     atom   19 type  1   force =    -2.31056685    2.79071100   -0.09308999
     atom   20 type  2   force =    -0.17998917    0.29824186   38.32749214
     atom   21 type  1   force =    -0.23541799   -0.34994168   -0.15111003
     atom   22 type  2   force =     0.24576072    1.52093084  -37.97089326
     atom   23 type  2   force =     0.15042175   -0.61356308   38.12785177
     atom   24 type  1   force =     0.30651620   -1.11619372   -5.65871614
     atom   25 type  2   force =    -0.49297032   -0.28582343  -39.03592456
     atom   26 type  2   force =     0.24737206   -0.10048387   37.06927419
     atom   27 type  1   force =    -0.08698568   -0.50900964    1.95850337
     atom   28 type  2   force =    -0.05671925   -0.91586400  -38.00639226
     atom   29 type  2   force =     0.23578329    0.36905827   37.05943178
     atom   30 type  1   force =     0.22841834    1.15180548    0.02296139
     atom   31 type  2   force =    -1.13135678    0.10961949  -37.08353395
     atom   32 type  2   force =     0.46284172    0.10341061   38.30921783
     atom   33 type  1   force =    -0.55453847    0.59789772   -2.18887365
     atom   34 type  2   force =    -0.12520541    1.22906336  -39.06395235
     atom   35 type  2   force =     0.18042049   -0.41359801   37.58539912
     atom   36 type  3   force =     0.64950192    0.82805561   -7.77902922
     The core correction contribution to forces
     atom    1 type  1   force =     0.00000000    0.00000000    0.00000000
     atom    2 type  2   force =     0.00010464   -0.00023270    0.02047741
     atom    3 type  2   force =     0.00052289    0.00026513   -0.02082910
     atom    4 type  1   force =     0.00000000    0.00000000    0.00000000
     atom    5 type  2   force =    -0.00063450    0.00194212    0.02033681
     atom    6 type  2   force =     0.00021555   -0.00085357   -0.02088021
     atom    7 type  1   force =     0.00000000    0.00000000    0.00000000
     atom    8 type  2   force =    -0.00010083    0.00049181    0.02029356
     atom    9 type  2   force =    -0.00032761    0.00071781   -0.02091458
     atom   10 type  1   force =     0.00000000    0.00000000    0.00000000
     atom   11 type  2   force =     0.01484411    0.00426130    0.00800263
     atom   12 type  2   force =     0.00114196    0.00111157   -0.02092082
     atom   13 type  1   force =     0.00000000    0.00000000    0.00000000
     atom   14 type  2   force =    -0.00050668    0.00033080    0.02028932
     atom   15 type  2   force =     0.00067269    0.00056062   -0.02061379
     atom   16 type  1   force =     0.00000000    0.00000000    0.00000000
     atom   17 type  2   force =    -0.00000751    0.00151910    0.02019986
     atom   18 type  2   force =     0.00003164   -0.00036755   -0.02099855
     atom   19 type  1   force =     0.00000000    0.00000000    0.00000000
     atom   20 type  2   force =     0.00003209    0.00053509   -0.02108205
     atom   21 type  1   force =     0.00000000    0.00000000    0.00000000
     atom   22 type  2   force =    -0.00146997    0.00012739    0.01711490
     atom   23 type  2   force =    -0.00058733    0.00100417   -0.02084105
     atom   24 type  1   force =     0.00000000    0.00000000    0.00000000
     atom   25 type  2   force =    -0.00004213   -0.00026903    0.02067051
     atom   26 type  2   force =    -0.00025018    0.00074096   -0.02087606
     atom   27 type  1   force =     0.00000000    0.00000000    0.00000000
     atom   28 type  2   force =     0.00031907    0.00162447    0.02088524
     atom   29 type  2   force =    -0.00046386   -0.00045847   -0.02054656
     atom   30 type  1   force =     0.00000000    0.00000000    0.00000000
     atom   31 type  2   force =     0.00044394    0.00008821    0.02056924
     atom   32 type  2   force =     0.00002488    0.00068015   -0.02097720
     atom   33 type  1   force =     0.00000000    0.00000000    0.00000000
     atom   34 type  2   force =     0.00011726    0.00094108    0.02069875
     atom   35 type  2   force =    -0.00000565    0.00063240   -0.02112096
     atom   36 type  3   force =     0.00000000    0.00000000    0.00000000
     The Hubbard contrib.    to forces
     atom    1 type  1   force =     0.00000000    0.00000000    0.00000000
     atom    2 type  2   force =     0.00000000    0.00000000    0.00000000
     atom    3 type  2   force =     0.00000000    0.00000000    0.00000000
     atom    4 type  1   force =     0.00000000    0.00000000    0.00000000
     atom    5 type  2   force =     0.00000000    0.00000000    0.00000000
     atom    6 type  2   force =     0.00000000    0.00000000    0.00000000
     atom    7 type  1   force =     0.00000000    0.00000000    0.00000000
     atom    8 type  2   force =     0.00000000    0.00000000    0.00000000
     atom    9 type  2   force =     0.00000000    0.00000000    0.00000000
     atom   10 type  1   force =     0.00000000    0.00000000    0.00000000
     atom   11 type  2   force =     0.00000000    0.00000000    0.00000000
     atom   12 type  2   force =     0.00000000    0.00000000    0.00000000
     atom   13 type  1   force =     0.00000000    0.00000000    0.00000000
     atom   14 type  2   force =     0.00000000    0.00000000    0.00000000
     atom   15 type  2   force =     0.00000000    0.00000000    0.00000000
     atom   16 type  1   force =     0.00000000    0.00000000    0.00000000
     atom   17 type  2   force =     0.00000000    0.00000000    0.00000000
     atom   18 type  2   force =     0.00000000    0.00000000    0.00000000
     atom   19 type  1   force =     0.00000000    0.00000000    0.00000000
     atom   20 type  2   force =     0.00000000    0.00000000    0.00000000
     atom   21 type  1   force =     0.00000000    0.00000000    0.00000000
     atom   22 type  2   force =     0.00000000    0.00000000    0.00000000
     atom   23 type  2   force =     0.00000000    0.00000000    0.00000000
     atom   24 type  1   force =     0.00000000    0.00000000    0.00000000
     atom   25 type  2   force =     0.00000000    0.00000000    0.00000000
     atom   26 type  2   force =     0.00000000    0.00000000    0.00000000
     atom   27 type  1   force =     0.00000000    0.00000000    0.00000000
     atom   28 type  2   force =     0.00000000    0.00000000    0.00000000
     atom   29 type  2   force =     0.00000000    0.00000000    0.00000000
     atom   30 type  1   force =     0.00000000    0.00000000    0.00000000
     atom   31 type  2   force =     0.00000000    0.00000000    0.00000000
     atom   32 type  2   force =     0.00000000    0.00000000    0.00000000
     atom   33 type  1   force =     0.00000000    0.00000000    0.00000000
     atom   34 type  2   force =     0.00000000    0.00000000    0.00000000
     atom   35 type  2   force =     0.00000000    0.00000000    0.00000000
     atom   36 type  3   force =     0.00000000    0.00000000    0.00000000
     The SCF correction term to forces
     atom    1 type  1   force =    -0.00029040    0.00042760    0.00088011
     atom    2 type  2   force =    -0.00001513   -0.00005338    0.00041226
     atom    3 type  2   force =    -0.00002031    0.00009600    0.00018009
     atom    4 type  1   force =    -0.00018188    0.00013578    0.00092306
     atom    5 type  2   force =    -0.00007165    0.00013903    0.00031742
     atom    6 type  2   force =    -0.00006476    0.00010545    0.00030424
     atom    7 type  1   force =    -0.00015271   -0.00005800    0.00107193
     atom    8 type  2   force =    -0.00011030   -0.00005423    0.00036122
     atom    9 type  2   force =    -0.00009239   -0.00009435    0.00028294
     atom   10 type  1   force =    -0.00046517   -0.00035582    0.00143526
     atom   11 type  2   force =     0.00008548    0.00000400    0.00007369
     atom   12 type  2   force =    -0.00007166   -0.00013110    0.00036604
     atom   13 type  1   force =     0.00014050    0.00030292    0.00092872
     atom   14 type  2   force =    -0.00004172    0.00000572    0.00038678
     atom   15 type  2   force =    -0.00001270    0.00009669    0.00027360
     atom   16 type  1   force =    -0.00004798    0.00014855    0.00093428
     atom   17 type  2   force =     0.00006422    0.00012773    0.00031012
     atom   18 type  2   force =     0.00005076    0.00011425    0.00030218
     atom   19 type  1   force =     0.00016840   -0.00029070    0.00105515
     atom   20 type  2   force =    -0.00002598   -0.00007045    0.00037631
     atom   21 type  1   force =     0.00014904   -0.00031855    0.00116314
     atom   22 type  2   force =     0.00006236   -0.00013944    0.00033561
     atom   23 type  2   force =     0.00004820   -0.00014289    0.00033748
     atom   24 type  1   force =     0.00012010    0.00030194    0.00091374
     atom   25 type  2   force =     0.00004696    0.00002552    0.00034297
     atom   26 type  2   force =     0.00006566    0.00009108    0.00024879
     atom   27 type  1   force =     0.00022242    0.00016548    0.00093305
     atom   28 type  2   force =     0.00000600    0.00011155    0.00034950
     atom   29 type  2   force =     0.00001139    0.00010343    0.00024479
     atom   30 type  1   force =     0.00004763   -0.00036507    0.00096131
     atom   31 type  2   force =     0.00014117   -0.00004556    0.00034177
     atom   32 type  2   force =     0.00010854   -0.00008848    0.00032182
     atom   33 type  1   force =     0.00025715   -0.00011209    0.00102880
     atom   34 type  2   force =    -0.00005977   -0.00000911    0.00038522
     atom   35 type  2   force =     0.00002890   -0.00009661    0.00021285
     atom   36 type  3   force =    -0.00001814   -0.00001730    0.00004741

     Total force =     0.088051     Total SCF correction =     0.004098
     Energy error            =      1.6E-02 Ry
     Gradient error          =      3.0E-02 Ry/Bohr

     number of scf cycles    =   2
     number of bfgs steps    =   1

     energy             old  =   -2205.5303097799 Ry
     energy             new  =   -2205.5458698488 Ry

     CASE: energy            _new < energy            _old

     new trust radius        =       0.0781021864 bohr
     new conv_thr            =       0.0000000296 Ry


ATOMIC_POSITIONS (angstrom)
Mo            6.5856476729        1.7561159147        2.8269096509
S             8.1632166886        0.8306967784        4.4351711442
S             8.1784824477        0.8217694585        1.2667481816
Mo            8.1062928253        4.4938558732        2.7191478330
S             6.4997272353        3.7117593281        4.3373984228
S             6.5554473467        3.5245156858        1.1240502953
Mo            6.4977533700        7.2033694428        2.6560164411
S             8.0837342259        6.3352372733        4.2624151423
S             8.1030571361        6.3080903107        1.0922392842
Mo            8.1750929179        9.9292054036        2.7935686038
S             6.4440853929        8.9040309585        4.4288208490
S             6.6165082151        9.0515460174        1.1421458067
Mo            3.4282684929        1.7491134624        2.7699140419
S             4.9839029997        0.8160152452        4.3657242544
S             5.0427869324        0.8538825545        1.2134257417
Mo            4.9836981702        4.5214876544        2.6376544801
S             3.4357168570        3.6727694547        4.2811367536
S             3.4339034768        3.5415938867        1.0768562324
Mo            3.4612519906        7.2183669324        2.6200230714
S             4.9875056288        6.3200299267        1.0354465428
Mo            4.9990926169        9.9165206801        2.7241325494
S             3.4751148743        8.9353563341        4.3241768604
S             3.4074941645        9.0667302585        1.1031419505
Mo            0.2860669123        1.7499517432        2.8301748079
S             1.8685416815        0.8166461178        4.4040490737
S             1.8472359181        0.8518937521        1.2019822023
Mo            1.8537483210        4.4905028041        2.6713914189
S             0.2722246258        3.6517578966        4.3302245579
S             0.2348152007        3.5289409755        1.1660882864
Mo            0.2625126149        7.2311801131        2.7006673591
S             1.9033734936        6.3119507317        4.2397513958
S             1.8474721496        6.3151689454        1.0521528558
Mo            1.8533929091        9.9370462544        2.7713961261
S             0.2977004367        9.0397680821        4.3936447272
S             0.2668034842        9.0536260362        1.1614346674
H             5.2844331415        8.5207096792        5.1158659377



     Writing config-only to output data dir ./MoS2-V-O.save/
     NEW-OLD atomic charge density approx. for the potential

     negative rho (up, down):  1.492E-04 0.000E+00

     total cpu time spent up to now is      180.2 secs

     Self-consistent Calculation

     iteration #  1     ecut=    80.00 Ry     beta= 0.70
     Davidson diagonalization with overlap
     ethr =  1.00E-06,  avg # of iterations = 13.0

     negative rho (up, down):  1.242E-04 0.000E+00

     total cpu time spent up to now is      195.1 secs

     total energy              =   -2205.55590553 Ry
     estimated scf accuracy    <       0.00243345 Ry

     iteration #  2     ecut=    80.00 Ry     beta= 0.70
     Davidson diagonalization with overlap
     ethr =  7.93E-07,  avg # of iterations =  2.0

     negative rho (up, down):  1.084E-04 0.000E+00

     total cpu time spent up to now is      209.1 secs

     total energy              =   -2205.55600001 Ry
     estimated scf accuracy    <       0.00052477 Ry

     iteration #  3     ecut=    80.00 Ry     beta= 0.70
     Davidson diagonalization with overlap
     ethr =  1.71E-07,  avg # of iterations =  4.0

     negative rho (up, down):  9.902E-05 0.000E+00

     total cpu time spent up to now is      225.4 secs

     total energy              =   -2205.55604329 Ry
     estimated scf accuracy    <       0.00024002 Ry

     iteration #  4     ecut=    80.00 Ry     beta= 0.70
     Davidson diagonalization with overlap
     ethr =  7.82E-08,  avg # of iterations =  2.0

     negative rho (up, down):  9.325E-05 0.000E+00

     total cpu time spent up to now is      242.2 secs

     total energy              =   -2205.55606363 Ry
     estimated scf accuracy    <       0.00001243 Ry

     iteration #  5     ecut=    80.00 Ry     beta= 0.70
     Davidson diagonalization with overlap
     ethr =  4.05E-09,  avg # of iterations =  6.0

     negative rho (up, down):  9.214E-05 0.000E+00

     total cpu time spent up to now is      256.6 secs

     total energy              =   -2205.55607148 Ry
     estimated scf accuracy    <       0.00000450 Ry

     iteration #  6     ecut=    80.00 Ry     beta= 0.70
     Davidson diagonalization with overlap
     ethr =  1.46E-09,  avg # of iterations =  2.0

     negative rho (up, down):  9.297E-05 0.000E+00

     total cpu time spent up to now is      273.9 secs

     total energy              =   -2205.55607158 Ry
     estimated scf accuracy    <       0.00000093 Ry

     iteration #  7     ecut=    80.00 Ry     beta= 0.70
     Davidson diagonalization with overlap
     ethr =  3.04E-10,  avg # of iterations =  6.0

     negative rho (up, down):  9.644E-05 0.000E+00

     total cpu time spent up to now is      286.3 secs

     total energy              =   -2205.55607170 Ry
     estimated scf accuracy    <       0.00000017 Ry

     iteration #  8     ecut=    80.00 Ry     beta= 0.70
     Davidson diagonalization with overlap
     ethr =  5.51E-11,  avg # of iterations =  5.0

     negative rho (up, down):  1.040E-04 0.000E+00

     total cpu time spent up to now is      296.5 secs

     total energy              =   -2205.55607165 Ry
     estimated scf accuracy    <       0.00000005 Ry

     iteration #  9     ecut=    80.00 Ry     beta= 0.70
     Davidson diagonalization with overlap
     ethr =  1.47E-11,  avg # of iterations =  4.0

     negative rho (up, down):  1.384E-04 0.000E+00

     total cpu time spent up to now is      298.6 secs

     End of self-consistent calculation

          k = 0.0000 0.0000 0.0000 (105382 PWs)   bands (ev):

   -62.8447 -62.8295 -62.8260 -62.8131 -62.8106 -62.8064 -62.8001 -62.7946
   -62.7745 -62.7168 -62.6712 -62.6518 -37.1901 -37.1184 -37.1101 -37.1029
   -37.0975 -37.0741 -37.0569 -37.0368 -37.0358 -37.0193 -37.0135 -37.0096
   -37.0051 -36.9981 -36.9904 -36.9885 -36.9796 -36.9767 -36.9754 -36.9644
   -36.9318 -36.9155 -36.8987 -36.8900 -36.8737 -36.8717 -36.8612 -36.8555
   -36.8354 -36.8293 -36.8239 -36.8132 -36.7978 -36.7633 -36.6701 -36.6374
   -16.1503 -15.6355 -15.0888 -15.0580 -14.9376 -14.8466 -14.6359 -14.4763
   -14.4352 -14.3894 -14.3816 -14.3348 -14.3077 -14.2693 -14.1664 -14.1190
   -14.0852 -14.0634 -14.0137 -13.8529 -13.8141 -13.8062 -13.7954  -8.7469
    -7.6342  -7.4368  -7.2599  -7.2573  -7.2092  -7.1701  -7.1233  -7.0633
    -6.7980  -6.7339  -6.7108  -6.6812  -6.5138  -6.5058  -6.4699  -6.3485
    -6.3179  -6.2335  -6.1128  -5.9394  -5.9316  -5.8635  -5.8049  -5.7840
    -5.7360  -5.6987  -5.6523  -5.6225  -5.5993  -5.5429  -5.4982  -5.4562
    -5.4083  -5.3008  -5.1376  -5.1289  -5.0114  -4.9747  -4.9581  -4.9280
    -4.8863  -4.8301  -4.7077  -4.5518  -4.4530  -4.2945  -4.2763  -4.2090
    -4.1855  -4.0843  -4.0402  -3.8721  -3.7971  -3.7547  -3.7071  -3.6580
    -3.6242  -3.5639  -3.5239  -3.4722  -3.4636  -3.4304  -3.4055  -3.3853
    -3.3128  -3.1991  -3.0912  -2.9238  -2.8527  -2.8071  -2.7508  -2.7070
    -2.6721  -2.6439  -2.6315  -2.5945  -2.5360  -2.2237  -1.9997  -1.9711
    -1.9561  -0.8888  -0.7313  -0.6491  -0.1293  -0.1143  -0.0282  -0.0046
     0.0919   0.1510   0.1651   0.2497   0.2697   0.3413   0.4193   0.4468
     0.5004   0.5567   0.6017   0.6236   0.6725   0.6914   0.7301   0.7701
     0.7891   0.8348   0.8688   0.8936   1.0223   1.0269   1.0349   1.2799
     1.3921

     the Fermi energy is    -0.8996 ev

!    total energy              =   -2205.55607151 Ry
     estimated scf accuracy    <       0.00000001 Ry
     smearing contrib. (-TS)   =      -0.00701764 Ry
     internal energy E=F+TS    =   -2205.54905387 Ry

     The total energy is F=E-TS. E is the sum of the following terms:
     one-electron contribution =  -18047.78808724 Ry
     hartree contribution      =    9010.93492863 Ry
     xc contribution           =    -385.34480288 Ry
     ewald contribution        =    7216.64890761 Ry

     convergence has been achieved in   9 iterations

     negative rho (up, down):  1.384E-04 0.000E+00

     Forces acting on atoms (cartesian axes, Ry/au):

     atom    1 type  1   force =    -0.00354003   -0.00394969   -0.00460674
     atom    2 type  2   force =    -0.00145503    0.00367408   -0.00232058
     atom    3 type  2   force =    -0.00527004    0.00845657   -0.01597146
     atom    4 type  1   force =     0.00481879    0.00070823    0.00081212
     atom    5 type  2   force =     0.00237955   -0.00788478   -0.00436626
     atom    6 type  2   force =     0.00115050    0.00311507    0.00412077
     atom    7 type  1   force =     0.00262236   -0.00654515    0.00344252
     atom    8 type  2   force =     0.00063939   -0.00466431    0.00585150
     atom    9 type  2   force =     0.01123971    0.00099597    0.00068835
     atom   10 type  1   force =    -0.00093600    0.00707961   -0.00223358
     atom   11 type  2   force =    -0.00027049   -0.01273559    0.00446291
     atom   12 type  2   force =    -0.00164100    0.00189641   -0.00149243
     atom   13 type  1   force =     0.00230566    0.00056232    0.00019232
     atom   14 type  2   force =     0.00208687   -0.00211814    0.00342396
     atom   15 type  2   force =    -0.00631391    0.00411085   -0.00839234
     atom   16 type  1   force =     0.00325468    0.00373587    0.00199279
     atom   17 type  2   force =     0.00456611    0.00054541    0.00157690
     atom   18 type  2   force =    -0.00149785   -0.00044913    0.00859487
     atom   19 type  1   force =     0.00148364    0.00057681   -0.00121474
     atom   20 type  2   force =     0.00225857   -0.00346753   -0.00495676
     atom   21 type  1   force =    -0.00283903   -0.00123273    0.00468992
     atom   22 type  2   force =    -0.00556956    0.00022625   -0.00929255
     atom   23 type  2   force =    -0.00160061    0.00086547   -0.00215825
     atom   24 type  1   force =    -0.00304057    0.00103791   -0.00301493
     atom   25 type  2   force =     0.00514714    0.00957765   -0.00296589
     atom   26 type  2   force =    -0.00360540   -0.00136202   -0.00293884
     atom   27 type  1   force =    -0.00122387    0.00013714    0.00461160
     atom   28 type  2   force =    -0.00065526   -0.00332190   -0.00174511
     atom   29 type  2   force =     0.00238605    0.00241945   -0.00436995
     atom   30 type  1   force =    -0.00227488   -0.00148858    0.00569371
     atom   31 type  2   force =     0.00099338    0.00104081    0.00320562
     atom   32 type  2   force =    -0.00670140    0.00209654    0.00521991
     atom   33 type  1   force =     0.00134077   -0.00075748    0.00560117
     atom   34 type  2   force =    -0.00458222   -0.01500363   -0.01389856
     atom   35 type  2   force =     0.00030648    0.00684203   -0.00275723
     atom   36 type  3   force =     0.00403749    0.00528023    0.02451527
     The non-local contrib.  to forces
     atom    1 type  1   force =     0.00215993    0.02722268   -0.01222475
     atom    2 type  2   force =     0.00035786   -0.00012637   -0.26270480
     atom    3 type  2   force =    -0.00710368   -0.00512893    0.26027332
     atom    4 type  1   force =     0.00255725    0.00882913    0.00292699
     atom    5 type  2   force =     0.00787544   -0.03592853   -0.25482593
     atom    6 type  2   force =    -0.00125211    0.00205506    0.26739224
     atom    7 type  1   force =    -0.02741088   -0.00003384   -0.01985895
     atom    8 type  2   force =     0.00563312   -0.00528712   -0.25801297
     atom    9 type  2   force =     0.00844380   -0.01523205    0.27117108
     atom   10 type  1   force =     0.00311439    0.00215207   -0.01190214
     atom   11 type  2   force =    -0.21144710   -0.04976232   -0.08452258
     atom   12 type  2   force =    -0.01318931   -0.01302414    0.26652635
     atom   13 type  1   force =    -0.00245029    0.02389472   -0.00705610
     atom   14 type  2   force =     0.00465657   -0.01398510   -0.25848337
     atom   15 type  2   force =    -0.00885100   -0.00931288    0.25986579
     atom   16 type  1   force =    -0.00621100    0.03250866   -0.03322036
     atom   17 type  2   force =     0.00172179   -0.02839206   -0.24985834
     atom   18 type  2   force =    -0.00161836   -0.00128629    0.27151203
     atom   19 type  1   force =     0.01945909   -0.01029794   -0.01108797
     atom   20 type  2   force =     0.00082739   -0.01449032    0.26168951
     atom   21 type  1   force =     0.00007127    0.02887556    0.00556903
     atom   22 type  2   force =    -0.00541968    0.00060777   -0.20826649
     atom   23 type  2   force =     0.00719500   -0.01144436    0.26193248
     atom   24 type  1   force =     0.00317691    0.02079603   -0.00747171
     atom   25 type  2   force =     0.00280462   -0.00195205   -0.26538057
     atom   26 type  2   force =     0.00338745   -0.01171230    0.26550901
     atom   27 type  1   force =    -0.00558508    0.00856436    0.00768733
     atom   28 type  2   force =    -0.00535327   -0.02168394   -0.27112619
     atom   29 type  2   force =     0.00421281    0.00025474    0.26238331
     atom   30 type  1   force =     0.00281601    0.01158529    0.01056267
     atom   31 type  2   force =    -0.00800294    0.00070047   -0.26310329
     atom   32 type  2   force =    -0.00191944   -0.01213311    0.27452577
     atom   33 type  1   force =    -0.00558709    0.00368113   -0.00153670
     atom   34 type  2   force =     0.00376878   -0.01910444   -0.26507090
     atom   35 type  2   force =     0.00094483   -0.00498956    0.26557794
     atom   36 type  3   force =     0.04132189    0.01610106   -0.02613817
     The ionic contribution  to forces
     atom    1 type  1   force =    -0.05767623    0.93707811    5.87122521
     atom    2 type  2   force =    -0.33223760    0.08139622   39.48567045
     atom    3 type  2   force =    -0.13982290    0.23965649  -36.46699995
     atom    4 type  1   force =    -0.12524190    0.51050293    0.85989441
     atom    5 type  2   force =    -0.94663388    1.40126017   38.56431283
     atom    6 type  2   force =     0.26380529   -0.57404532  -37.80008766
     atom    7 type  1   force =    -2.19276641   -2.36902488    1.59688795
     atom    8 type  2   force =    -0.91582755    0.02442593   37.56790740
     atom    9 type  2   force =     0.33617031   -0.13584506  -37.97955016
     atom   10 type  1   force =    -1.42123801   -0.76887034    4.40573308
[...]
     atom   27 type  1   force =    -0.00039814    0.01173827    0.00478227
     atom   28 type  2   force =    -0.00230300   -0.01662173   -0.26907523
     atom   29 type  2   force =    -0.00038816   -0.00983952    0.26411336
     atom   30 type  1   force =     0.00546657    0.01355535    0.00677568
     atom   31 type  2   force =    -0.01343050    0.00428854   -0.26602506
     atom   32 type  2   force =     0.00543563   -0.01759028    0.26854985
     atom   33 type  1   force =     0.00065346    0.00472324    0.00106872
     atom   34 type  2   force =    -0.00939440   -0.00583217   -0.26570482
     atom   35 type  2   force =     0.00178678   -0.01013362    0.26558784
     atom   36 type  3   force =     0.00871900   -0.01692697   -0.05657763
     The ionic contribution  to forces
     atom    1 type  1   force =     0.00480496    1.01866961    1.84990552
     atom    2 type  2   force =    -0.14921613    0.42804678   39.03508635
     atom    3 type  2   force =     0.13384290   -0.18545449  -37.45509350
     atom    4 type  1   force =    -0.65306748    1.13197422    0.57132415
     atom    5 type  2   force =    -0.89300659    1.51010066   37.94788420
     atom    6 type  2   force =     0.30077267   -0.09294940  -38.14089395
     atom    7 type  1   force =    -2.08637322   -2.82895422    3.18777200
     atom    8 type  2   force =    -1.32498444    0.00021215   37.96078374
     atom    9 type  2   force =     0.26288473    0.15616964  -37.35459897
     atom   10 type  1   force =    -0.14670484   -0.98365259    4.59421801
     atom   11 type  2   force =    -0.15167891   -2.14320774   36.75681256
     atom   12 type  2   force =     0.40138093    0.14224436  -37.58137362
     atom   13 type  1   force =     0.00995022    0.70062381    1.59457605
     atom   14 type  2   force =    -0.12122151    0.30781748   38.53701111
     atom   15 type  2   force =     0.03492110   -0.12847805  -38.01805174
     atom   16 type  1   force =     0.76544599    3.88280093   -0.39705568
     atom   17 type  2   force =     0.93026184    1.29325358   38.26802934
     atom   18 type  2   force =    -0.28925444   -0.23060316  -38.55651218
     atom   19 type  1   force =     2.31911705   -1.81159013    2.84507229
     atom   20 type  2   force =     0.16407296    0.09529451  -38.64430469
     atom   21 type  1   force =    -0.38019827   -0.76509508    0.12419888
     atom   22 type  2   force =     0.30395072   -1.62961690   38.38550555
     atom   23 type  2   force =    -0.30349135    0.07752490  -37.71438803
     atom   24 type  1   force =     0.01570882    0.41950213    2.43261567
     atom   25 type  2   force =     0.22265998    0.15288922   38.93289635
     atom   26 type  2   force =    -0.17646080   -0.27441071  -37.51941549
     atom   27 type  1   force =     0.02791950    0.93158385   -0.10819258
     atom   28 type  2   force =    -0.04372326    0.66919701   38.30490664
     atom   29 type  2   force =    -0.09242575    0.00673656  -37.88224570
     atom   30 type  1   force =    -0.12735004   -0.88345120    3.11209999
     atom   31 type  2   force =     1.16563401    0.11349131   38.16774272
     atom   32 type  2   force =    -0.41060339    0.26574414  -37.67899598
     atom   33 type  1   force =     0.51826883   -0.80067691    3.74452546
     atom   34 type  2   force =     0.05921718   -0.69341303   39.16680306
     atom   35 type  2   force =    -0.07822876   -0.01888307  -37.08330610
     atom   36 type  3   force =    -0.21282518    0.16655982    8.61465857
     The local contribution  to forces
     atom    1 type  1   force =    -0.00249895   -1.04521114   -1.84255472
     atom    2 type  2   force =     0.15078291   -0.40863069  -38.79700311
     atom    3 type  2   force =    -0.13099280    0.19608753   37.20660602
     atom    4 type  1   force =     0.64872560   -1.13670059   -0.57240740
     atom    5 type  2   force =     0.88431804   -1.48752025  -37.71631383
     atom    6 type  2   force =    -0.29656494    0.09988659   37.89628013
     atom    7 type  1   force =     2.11917553    2.83517895   -3.17084152
     atom    8 type  2   force =     1.32203681   -0.00104857  -37.72216865
     atom    9 type  2   force =    -0.25405763   -0.14096130   37.10076695
     atom   10 type  1   force =     0.13331829    0.97564672   -4.58562894
     atom   11 type  2   force =     0.19635420    2.02936154  -36.97273621
     atom   12 type  2   force =    -0.39241875   -0.13329835   37.32938793
     atom   13 type  1   force =    -0.01072093   -0.73021618   -1.59214346
     atom   14 type  2   force =     0.11809621   -0.29382674  -38.30351984
     atom   15 type  2   force =    -0.03423916    0.13700757   37.77712466
     atom   16 type  1   force =    -0.77388843   -3.92734836    0.41307348
     atom   17 type  2   force =    -0.92581039   -1.26701629  -38.03314963
     atom   18 type  2   force =     0.29021361    0.23651324   38.31619284
     atom   19 type  1   force =    -2.35360850    1.82348533   -2.81800442
     atom   20 type  2   force =    -0.16515244   -0.08254839   38.40309045
     atom   21 type  1   force =     0.38778020    0.74764899   -0.12051162
     atom   22 type  2   force =    -0.30303146    1.62902852  -38.14992900
     atom   23 type  2   force =     0.29117052   -0.06998462   37.46790363
     atom   24 type  1   force =    -0.01824415   -0.44465419   -2.43095513
     atom   25 type  2   force =    -0.22129373   -0.13912669  -38.68946173
     atom   26 type  2   force =     0.17339498    0.28433781   37.27179520
     atom   27 type  1   force =    -0.02754009   -0.94380255    0.10393265
     atom   28 type  2   force =     0.04536119   -0.65422777  -38.05642541
     atom   29 type  2   force =     0.09197706    0.00362736   37.63904834
     atom   30 type  1   force =     0.12220791    0.86944119   -3.12041429
     atom   31 type  2   force =    -1.15464743   -0.11704147  -37.92341293
     atom   32 type  2   force =     0.40628581   -0.25016570   37.43216762
     atom   33 type  1   force =    -0.51924885    0.79627620   -3.74618454
     atom   34 type  2   force =    -0.05144604    0.69852528  -38.92241188
     atom   35 type  2   force =     0.07806961    0.02822217   36.83679124
     atom   36 type  3   force =     0.20549118   -0.15003167   -8.55834291
     The core correction contribution to forces
     atom    1 type  1   force =     0.00000000    0.00000000    0.00000000
     atom    2 type  2   force =     0.00010163    0.00149274    0.02029442
     atom    3 type  2   force =     0.00011312    0.00042224   -0.02101227
     atom    4 type  1   force =     0.00000000    0.00000000    0.00000000
     atom    5 type  2   force =    -0.00081625    0.00134468    0.02013276
     atom    6 type  2   force =     0.00034015    0.00009511   -0.02077806
     atom    7 type  1   force =     0.00000000    0.00000000    0.00000000
     atom    8 type  2   force =    -0.00028572   -0.00021514    0.02033034
     atom    9 type  2   force =     0.00064491    0.00099205   -0.02098924
     atom   10 type  1   force =     0.00000000    0.00000000    0.00000000
     atom   11 type  2   force =     0.00309597   -0.00754491   -0.00831901
     atom   12 type  2   force =     0.00088379    0.00075781   -0.02119264
     atom   13 type  1   force =     0.00000000    0.00000000    0.00000000
     atom   14 type  2   force =    -0.00028785    0.00072470    0.02010959
     atom   15 type  2   force =     0.00004877    0.00038836   -0.02071910
     atom   16 type  1   force =     0.00000000    0.00000000    0.00000000
     atom   17 type  2   force =     0.00052700    0.00142115    0.02036527
     atom   18 type  2   force =    -0.00029576   -0.00016431   -0.02068096
     atom   19 type  1   force =     0.00000000    0.00000000    0.00000000
     atom   20 type  2   force =     0.00010359    0.00065815   -0.02119598
     atom   21 type  1   force =     0.00000000    0.00000000    0.00000000
     atom   22 type  2   force =    -0.00022671   -0.00045250    0.02004027
     atom   23 type  2   force =    -0.00101121    0.00047225   -0.02086567
     atom   24 type  1   force =     0.00000000    0.00000000    0.00000000
     atom   25 type  2   force =     0.00015346    0.00072759    0.02066481
     atom   26 type  2   force =    -0.00024096    0.00032827   -0.02095062
     atom   27 type  1   force =     0.00000000    0.00000000    0.00000000
     atom   28 type  2   force =     0.00017299    0.00105084    0.02096503
     atom   29 type  2   force =    -0.00001166    0.00033084   -0.02071256
     atom   30 type  1   force =     0.00000000    0.00000000    0.00000000
     atom   31 type  2   force =     0.00072360   -0.00007022    0.02071965
     atom   32 type  2   force =    -0.00057338    0.00102742   -0.02083200
     atom   33 type  1   force =     0.00000000    0.00000000    0.00000000
     atom   34 type  2   force =     0.00060067    0.00004561    0.02073827
     atom   35 type  2   force =    -0.00016203    0.00058504   -0.02097368
     atom   36 type  3   force =     0.00000000    0.00000000    0.00000000
     The Hubbard contrib.    to forces
     atom    1 type  1   force =     0.00000000    0.00000000    0.00000000
     atom    2 type  2   force =     0.00000000    0.00000000    0.00000000
     atom    3 type  2   force =     0.00000000    0.00000000    0.00000000
     atom    4 type  1   force =     0.00000000    0.00000000    0.00000000
     atom    5 type  2   force =     0.00000000    0.00000000    0.00000000
     atom    6 type  2   force =     0.00000000    0.00000000    0.00000000
     atom    7 type  1   force =     0.00000000    0.00000000    0.00000000
     atom    8 type  2   force =     0.00000000    0.00000000    0.00000000
     atom    9 type  2   force =     0.00000000    0.00000000    0.00000000
     atom   10 type  1   force =     0.00000000    0.00000000    0.00000000
     atom   11 type  2   force =     0.00000000    0.00000000    0.00000000
     atom   12 type  2   force =     0.00000000    0.00000000    0.00000000
     atom   13 type  1   force =     0.00000000    0.00000000    0.00000000
     atom   14 type  2   force =     0.00000000    0.00000000    0.00000000
     atom   15 type  2   force =     0.00000000    0.00000000    0.00000000
     atom   16 type  1   force =     0.00000000    0.00000000    0.00000000
     atom   17 type  2   force =     0.00000000    0.00000000    0.00000000
     atom   18 type  2   force =     0.00000000    0.00000000    0.00000000
     atom   19 type  1   force =     0.00000000    0.00000000    0.00000000
     atom   20 type  2   force =     0.00000000    0.00000000    0.00000000
     atom   21 type  1   force =     0.00000000    0.00000000    0.00000000
     atom   22 type  2   force =     0.00000000    0.00000000    0.00000000
     atom   23 type  2   force =     0.00000000    0.00000000    0.00000000
     atom   24 type  1   force =     0.00000000    0.00000000    0.00000000
     atom   25 type  2   force =     0.00000000    0.00000000    0.00000000
     atom   26 type  2   force =     0.00000000    0.00000000    0.00000000
     atom   27 type  1   force =     0.00000000    0.00000000    0.00000000
     atom   28 type  2   force =     0.00000000    0.00000000    0.00000000
     atom   29 type  2   force =     0.00000000    0.00000000    0.00000000
     atom   30 type  1   force =     0.00000000    0.00000000    0.00000000
     atom   31 type  2   force =     0.00000000    0.00000000    0.00000000
     atom   32 type  2   force =     0.00000000    0.00000000    0.00000000
     atom   33 type  1   force =     0.00000000    0.00000000    0.00000000
     atom   34 type  2   force =     0.00000000    0.00000000    0.00000000
     atom   35 type  2   force =     0.00000000    0.00000000    0.00000000
     atom   36 type  3   force =     0.00000000    0.00000000    0.00000000
     The SCF correction term to forces
     atom    1 type  1   force =     0.00000612    0.00001624   -0.00001936
     atom    2 type  2   force =    -0.00000612    0.00000360   -0.00000209
     atom    3 type  2   force =    -0.00000333    0.00001804    0.00000113
     atom    4 type  1   force =    -0.00001419   -0.00003075   -0.00002773
     atom    5 type  2   force =    -0.00000174   -0.00000347   -0.00001602
     atom    6 type  2   force =    -0.00000460   -0.00000202    0.00000413
     atom    7 type  1   force =     0.00000299   -0.00002917   -0.00000315
     atom    8 type  2   force =    -0.00000376   -0.00000962   -0.00000628
     atom    9 type  2   force =    -0.00000719   -0.00002289   -0.00000233
     atom   10 type  1   force =    -0.00001813    0.00003757    0.00001845
     atom   11 type  2   force =     0.00000370    0.00001059   -0.00000588
     atom   12 type  2   force =    -0.00000599    0.00001011    0.00000457
     atom   13 type  1   force =     0.00001806    0.00002152   -0.00005183
     atom   14 type  2   force =     0.00001430    0.00000619   -0.00001339
     atom   15 type  2   force =     0.00000254    0.00001016   -0.00000228
     atom   16 type  1   force =     0.00000866   -0.00003079   -0.00002116
     atom   17 type  2   force =     0.00001177    0.00000513   -0.00001903
     atom   18 type  2   force =     0.00000686   -0.00000038   -0.00000496
     atom   19 type  1   force =     0.00000739   -0.00003559   -0.00001215
     atom   20 type  2   force =     0.00000149   -0.00002507   -0.00000162
     atom   21 type  1   force =     0.00001872    0.00004587   -0.00001477
     atom   22 type  2   force =    -0.00000378    0.00000792   -0.00000813
     atom   23 type  2   force =     0.00000337    0.00001460   -0.00000321
     atom   24 type  1   force =    -0.00001998    0.00001761   -0.00003646
     atom   25 type  2   force =    -0.00000846   -0.00000024   -0.00000889
     atom   26 type  2   force =     0.00000136    0.00001358   -0.00000884
     atom   27 type  1   force =     0.00001275   -0.00002719   -0.00003348
     atom   28 type  2   force =    -0.00001024   -0.00000245   -0.00001257
     atom   29 type  2   force =    -0.00000240   -0.00000559   -0.00000522
     atom   30 type  1   force =    -0.00001005   -0.00001895    0.00001453
     atom   31 type  2   force =     0.00000001   -0.00000867   -0.00000378
     atom   32 type  2   force =     0.00000682   -0.00002157   -0.00000695
     atom   33 type  1   force =    -0.00000657    0.00002956   -0.00001069
     atom   34 type  2   force =    -0.00000650    0.00000898    0.00000977
     atom   35 type  2   force =     0.00000209    0.00001342   -0.00000099
     atom   36 type  3   force =     0.00000135    0.00000119   -0.00000033

     Total force =     0.008254     Total SCF correction =     0.000162
     Energy error            =      9.0E-05 Ry
     Gradient error          =      2.4E-03 Ry/Bohr

     bfgs converged in  35 scf cycles and  34 bfgs steps
     (criteria: energy <  1.0E-04 Ry, force <  1.0E-02 Ry/Bohr)

     End of BFGS Geometry Optimization

     Final energy             =   -2205.5968260904 Ry

     File ./MoS2-V-O.bfgs deleted, as requested
Begin final coordinates

ATOMIC_POSITIONS (angstrom)
Mo            6.5278485290        1.7266964930        2.7382197499
S             8.1093489288        0.8642597691        4.3741181962
S             8.1180214152        0.8073953617        1.1784823413
Mo            8.1021926817        4.4498714982        2.7023338706
S             6.4694533344        3.6412206910        4.2722533987
S             6.5440781478        3.5287074539        1.0859122793
Mo            6.4692288016        7.1865217764        2.6746807469
S             8.0510533812        6.2608470530        4.2944714047
S             8.1103289203        6.3029382821        1.1279564702
Mo            8.1266552024        9.9379084659        2.8026935793
S             6.4772013050        8.9762052561        4.3006174652
S             6.5787287877        9.0290857885        1.1473228516
Mo            3.3933711868        1.7311295640        2.7316016213
S             4.9537489967        0.8136225333        4.3280445121
S             4.9626407577        0.8115354777        1.1305937504
Mo            4.9358270957        4.4803528093        2.6048629179
S             3.4270983657        3.6379261282        4.2831494410
S             3.3786642236        3.5235236159        1.0686609781
Mo            3.4712358276        7.1383427311        2.6670386104
S             4.9915626911        6.2895558689        1.0314842026
Mo            4.9580049679        9.9145975166        2.7172905185
S             3.4493515861        8.9191854359        4.3244612412
S             3.3657224897        9.0012892229        1.1281187707
Mo            0.2436394261        1.7253650690        2.7617966223
S             1.8355146107        0.8353686602        4.3640089853
S             1.8099434403        0.7982291759        1.1676916462
Mo            1.8282964217        4.4632143034        2.6907069561
S             0.2464962674        3.5877722227        4.3072879271
S             0.2358503055        3.5287938608        1.1235746709
Mo            0.2386840778        7.1949682342        2.7547949069
S             1.8992130341        6.2636811826        4.2990708513
S             1.8169144021        6.3112964373        1.1128521547
Mo            1.8257503668        9.9066289230        2.7820119563
S             0.2610006547        9.0015810511        4.3850674547
S             0.2319579151        9.0257396219        1.1988438843
H             6.2814740217        9.3658444317        5.6130106153
End final coordinates



     Writing all to output data dir ./MoS2-V-O.save/
 
     init_run     :      2.38s CPU      2.58s WALL (       1 calls)
     electrons    :   3218.95s CPU   3527.04s WALL (      35 calls)
     update_pot   :     47.40s CPU     49.38s WALL (      34 calls)
     forces       :     47.46s CPU     51.04s WALL (      35 calls)

     Called by init_run:
     wfcinit      :      0.37s CPU      0.43s WALL (       1 calls)
     potinit      :      1.32s CPU      1.41s WALL (       1 calls)
     hinit0       :      0.17s CPU      0.19s WALL (       1 calls)

     Called by electrons:
     c_bands      :    364.82s CPU    368.80s WALL (     299 calls)
     sum_band     :     95.09s CPU    103.97s WALL (     299 calls)
     v_of_rho     :    124.55s CPU    143.90s WALL (     322 calls)
     newd         :     51.31s CPU     57.72s WALL (     322 calls)
     mix_rho      :   2598.13s CPU   2865.94s WALL (     299 calls)

     Called by c_bands:
     init_us_2    :      6.58s CPU      6.85s WALL (     599 calls)
     init_us_2:cp :      6.58s CPU      6.85s WALL (     599 calls)
     regterg      :    343.10s CPU    346.80s WALL (     299 calls)

     Called by *egterg:
     rdiaghg      :     28.60s CPU     28.83s WALL (    1671 calls)
     h_psi        :    197.53s CPU    199.25s WALL (    1718 calls)
     s_psi        :     25.40s CPU     25.52s WALL (    1718 calls)
     g_psi        :      1.34s CPU      1.36s WALL (    1418 calls)

     Called by h_psi:
     h_psi:calbec :     27.41s CPU     27.51s WALL (    1718 calls)
     vloc_psi     :    141.96s CPU    143.43s WALL (    1718 calls)
     add_vuspsi   :     24.94s CPU     25.07s WALL (    1718 calls)

     General routines
     calbec       :     39.08s CPU     39.23s WALL (    2157 calls)
     fft          :     82.77s CPU     96.84s WALL (   21683 calls)
     ffts         :   1165.83s CPU   1424.23s WALL (  631175 calls)
     fftw         :    124.46s CPU    125.54s WALL (  183371 calls)
     interpolate  :      2.25s CPU      2.59s WALL (     322 calls)
 
     Parallel routines
 
     PWSCF        :  55m23.16s CPU      1h 0m WALL

 
   This run was terminated on:   8:50:55   4Nov2023            

=------------------------------------------------------------------------------=
   JOB DONE.
=------------------------------------------------------------------------------=
