
     Program PWSCF v.7.2 starts on  4Nov2023 at  0:49: 2 

     This program is part of the open-source Quantum ESPRESSO suite
     for quantum simulation of materials; please cite
         "P. Giannozzi et al., J. Phys.:Condens. Matter 21 395502 (2009);
         "P. Giannozzi et al., J. Phys.:Condens. Matter 29 465901 (2017);
         "P. Giannozzi et al., J. Chem. Phys. 152 154105 (2020);
          URL http://www.quantum-espresso.org", 
     in publications or presentations arising from this work. More details at
     http://www.quantum-espresso.org/quote

     Parallel version (MPI & OpenMP), running on      48 processor cores
     Number of MPI processes:                48
     Threads/MPI process:                     1

     MPI processes distributed on     1 nodes
     65194 MiB available memory on the printing compute node when the environment starts
 
     Waiting for input...
     Reading input from standard input
Warning: card &CELL ignored
Warning: card CELL_DYNAMICS = 'BFGS', ignored
Warning: card CELL_DOFREE = '2DXY' ignored
Warning: card / ignored

     Current dimensions of program PWSCF are:
     Max number of different atomic species (ntypx) = 10
     Max number of k-points (npk) =  40000
     Max angular momentum in pseudopotentials (lmaxx) =  4

     IMPORTANT: XC functional enforced from input :
     Exchange-correlation= RVV10
                           (   1   4  13   4  26   0   0)
     Any further DFT definition will be discarded
     Please, verify this is what you really want


     gamma-point specific algorithms are used
     signal trapping enabled: kill the code with -SIGUSR1 to stop cleanly the simulation 
 
     R & G space division:  proc/nbgrp/npool/nimage =      48
     Subspace diagonalization in iterative solution of the eigenvalue problem:
     one sub-group per band group will be used
     scalapack distributed-memory algorithm (size of sub-group:  2*  2 procs)

 
     Parallelization info
     --------------------
     sticks:   dense  smooth     PW     G-vecs:    dense   smooth      PW
     Min         243     194     47                49060    35090    4376
     Max         246     196     50                49086    35128    4410
     Sum       11735    9389   2349              2355467  1685513  210763
 
     Using Slab Decomposition
 


     bravais-lattice index     =            0
     lattice parameter (alat)  =      17.8707  a.u.
     unit-cell volume          =   17436.2743 (a.u.)^3
     number of atoms/cell      =           36
     number of atomic types    =            3
     number of electrons       =       307.00
     number of Kohn-Sham states=          185
     kinetic-energy cutoff     =      80.0000  Ry
     charge density cutoff     =     400.0000  Ry
     scf convergence threshold =      1.0E-06
     mixing beta               =       0.7000
     number of iterations used =            8  local-TF  mixing
     energy convergence thresh.=      1.0E-04
     force convergence thresh. =      1.0E-02
     Exchange-correlation= RVV10
                           (   1   4  13   4  26   0   0)
     nstep                     =          200


     celldm(1)=  17.870686  celldm(2)=   0.000000  celldm(3)=   0.000000
     celldm(4)=   0.000000  celldm(5)=   0.000000  celldm(6)=   0.000000

     crystal axes: (cart. coord. in units of alat)
               a(1) = (   1.000000   0.000000   0.000000 )  
               a(2) = (   0.000000   1.155671   0.000000 )  
               a(3) = (   0.000000   0.000000   2.643601 )  

     reciprocal axes: (cart. coord. in units 2 pi/alat)
               b(1) = (  1.000000  0.000000  0.000000 )  
               b(2) = (  0.000000  0.865298  0.000000 )  
               b(3) = (  0.000000  0.000000  0.378272 )  


     PseudoPot. # 1 for Mo read from file:
     ../pseudo/Mo_ONCV_PBE-1.0.oncvpsp.upf
     MD5 check sum: 1b5d28e075c9ccadda658a603575cd1f
     Pseudo is Norm-conserving, Zval = 14.0
     Generated using ONCVPSP code by D. R. Hamann
     Using radial grid of 1526 points,  6 beta functions with: 
                l(1) =   0
                l(2) =   0
                l(3) =   1
                l(4) =   1
                l(5) =   2
                l(6) =   2

     PseudoPot. # 2 for S  read from file:
     ../pseudo/s_pbe_v1.4.uspp.F.UPF
     MD5 check sum: 88d86576ff6df21479756cfb9bdac1df
     Pseudo is Ultrasoft + core correction, Zval =  6.0
     Generated by new atomic code, or converted to UPF format
     Using radial grid of  907 points,  6 beta functions with: 
                l(1) =   0
                l(2) =   0
                l(3) =   1
                l(4) =   1
                l(5) =   2
                l(6) =   2
     Q(r) pseudized with  8 coefficients,  rinner =    1.300   1.300   1.300
                                                       1.300   1.300

     PseudoPot. # 3 for H  read from file:
     ../pseudo/H_ONCV_PBE-1.0.oncvpsp.upf
     MD5 check sum: 1790becc920ee074925cf490c71280fe
     Pseudo is Norm-conserving, Zval =  1.0
     Generated using ONCVPSP code by D. R. Hamann
     Using radial grid of 1166 points,  2 beta functions with: 
                l(1) =   0
                l(2) =   0

     atomic species   valence    mass     pseudopotential
        Mo            14.00    95.94000     Mo( 1.00)
        S              6.00    32.06500     S ( 1.00)
        H              1.00     1.00794     H ( 1.00)

     No symmetry found



   Cartesian axes

     site n.     atom                  positions (alat units)
         1           Mo  tau(   1) = (   0.6952221   0.1890506   0.2985846  )
         2           S   tau(   2) = (   0.8646417   0.0856217   0.4689279  )
         3           S   tau(   3) = (   0.8663890   0.0857843   0.1351291  )
         4           Mo  tau(   4) = (   0.8560186   0.4753274   0.2873942  )
         5           S   tau(   5) = (   0.6873294   0.3936244   0.4596353  )
         6           S   tau(   6) = (   0.6929804   0.3713468   0.1185692  )
         7           Mo  tau(   7) = (   0.6862796   0.7633098   0.2825370  )
         8           S   tau(   8) = (   0.8545980   0.6708292   0.4486168  )
         9           S   tau(   9) = (   0.8545123   0.6666874   0.1146125  )
        10           Mo  tau(  10) = (   0.8629403   1.0471007   0.3006803  )
        11           S   tau(  11) = (   0.6868280   0.9456650   0.4634891  )
        12           S   tau(  12) = (   0.6998113   0.9568511   0.1205389  )
        13           Mo  tau(  13) = (   0.3618216   0.1847309   0.2935964  )
        14           S   tau(  14) = (   0.5260962   0.0863870   0.4600448  )
        15           S   tau(  15) = (   0.5348379   0.0894875   0.1297123  )
        16           Mo  tau(  16) = (   0.5265817   0.4772436   0.2784130  )
        17           S   tau(  17) = (   0.3624753   0.3882513   0.4525556  )
        18           S   tau(  18) = (   0.3635411   0.3752055   0.1119148  )
        19           Mo  tau(  19) = (   0.3652268   0.7630864   0.2781795  )
        20           S   tau(  20) = (   0.5269494   0.6690381   0.1096838  )
        21           Mo  tau(  21) = (   0.5300192   1.0470394   0.2900995  )
        22           S   tau(  22) = (   0.3670346   0.9457522   0.4574073  )
        23           S   tau(  23) = (   0.3604225   0.9585725   0.1159032  )
        24           Mo  tau(  24) = (   0.0313099   0.1847895   0.3013130  )
        25           S   tau(  25) = (   0.1956761   0.0838230   0.4650863  )
        26           S   tau(  26) = (   0.1967693   0.0903508   0.1278874  )
        27           Mo  tau(  27) = (   0.1967578   0.4753919   0.2813011  )
        28           S   tau(  28) = (   0.0287851   0.3864324   0.4586755  )
        29           S   tau(  29) = (   0.0244514   0.3729871   0.1239344  )
        30           Mo  tau(  30) = (   0.0286728   0.7631204   0.2856894  )
        31           S   tau(  31) = (   0.2011512   0.6675435   0.4465001  )
        32           S   tau(  32) = (   0.1969214   0.6672839   0.1104564  )
        33           Mo  tau(  33) = (   0.1950294   1.0511147   0.2932237  )
        34           S   tau(  34) = (   0.0312912   0.9612169   0.4667423  )
        35           S   tau(  35) = (   0.0292670   0.9563028   0.1216485  )
        36           H   tau(  36) = (   0.5555556   0.3852236   0.5407634  )

     number of k points=     1  Gaussian smearing, width (Ry)=  0.0100
                       cart. coord. in units 2pi/alat
        k(    1) = (   0.0000000   0.0000000   0.0000000), wk =   2.0000000

     Dense  grid:  1177734 G-vectors     FFT dimensions: ( 120, 135, 320)

     Smooth grid:   842757 G-vectors     FFT dimensions: ( 108, 120, 270)

     Estimated max dynamical RAM per process >     146.59 MB

     Estimated total dynamical RAM >       6.87 GB

     Initial potential from superposition of free atoms

     starting charge     306.9873, renormalised to     307.0000

     negative rho (up, down):  1.415E-04 0.000E+00


---------------------------------------------------------------------------------
Carrying out rVV10 run using the following parameters:
Nqs =      20    Nr_points =    1024   r_max =   100.000
b_value =  6.30000    beta =  0.00901
     q_mesh =  0.00010000  0.00030000  0.00058939  0.00100810
               0.00161396  0.00249058  0.00375900  0.00559430
               0.00824984  0.01209221  0.01765183  0.02569619
               0.03733578  0.05417739  0.07854596  0.11380545
               0.16482331  0.23864234  0.34545298  0.50000000

Gradients computed in Reciprocal space

---------------------------------------------------------------------------------


     Starting wfcs are  213 randomized atomic wfcs

     total cpu time spent up to now is        2.8 secs

     Self-consistent Calculation

     iteration #  1     ecut=    80.00 Ry     beta= 0.70
     Davidson diagonalization with overlap
     ethr =  1.00E-02,  avg # of iterations =  2.0

     Threshold (ethr) on eigenvalues was too large:
     Diagonalizing with lowered threshold

     Davidson diagonalization with overlap
     ethr =  3.80E-04,  avg # of iterations =  4.0

     negative rho (up, down):  1.665E-08 0.000E+00

     total cpu time spent up to now is       17.6 secs

     total energy              =   -2205.59531772 Ry
     estimated scf accuracy    <       1.45160072 Ry

     iteration #  2     ecut=    80.00 Ry     beta= 0.70
     Davidson diagonalization with overlap
     ethr =  4.73E-04,  avg # of iterations =  4.0

     total cpu time spent up to now is       20.2 secs

     total energy              =   -2205.47014451 Ry
     estimated scf accuracy    <       0.58546367 Ry

     iteration #  3     ecut=    80.00 Ry     beta= 0.70
     Davidson diagonalization with overlap
     ethr =  1.91E-04,  avg # of iterations =  2.0

     total cpu time spent up to now is       22.7 secs

     total energy              =   -2205.51225609 Ry
     estimated scf accuracy    <       0.15827386 Ry

     iteration #  4     ecut=    80.00 Ry     beta= 0.70
     Davidson diagonalization with overlap
     c_bands:  1 eigenvalues not converged
     ethr =  5.16E-05,  avg # of iterations = 20.0

     total cpu time spent up to now is       26.1 secs

     total energy              =   -2205.52927420 Ry
     estimated scf accuracy    <       0.03322957 Ry

     iteration #  5     ecut=    80.00 Ry     beta= 0.70
     Davidson diagonalization with overlap
     ethr =  1.08E-05,  avg # of iterations = 13.0

     total cpu time spent up to now is       28.8 secs

     total energy              =   -2205.52978112 Ry
     estimated scf accuracy    <       0.02130945 Ry

     iteration #  6     ecut=    80.00 Ry     beta= 0.70
     Davidson diagonalization with overlap
     ethr =  6.94E-06,  avg # of iterations =  1.0

     total cpu time spent up to now is       31.2 secs

     total energy              =   -2205.52909376 Ry
     estimated scf accuracy    <       0.01329490 Ry

     iteration #  7     ecut=    80.00 Ry     beta= 0.70
     Davidson diagonalization with overlap
     ethr =  4.33E-06,  avg # of iterations =  1.0

     total cpu time spent up to now is       33.6 secs

     total energy              =   -2205.52714376 Ry
     estimated scf accuracy    <       0.00912465 Ry

     iteration #  8     ecut=    80.00 Ry     beta= 0.70
     Davidson diagonalization with overlap
     ethr =  2.97E-06,  avg # of iterations =  2.0

     negative rho (up, down):  5.473E-03 0.000E+00

     total cpu time spent up to now is       38.3 secs

     total energy              =   -2205.52663472 Ry
     estimated scf accuracy    <       0.00446177 Ry

     iteration #  9     ecut=    80.00 Ry     beta= 0.70
     Davidson diagonalization with overlap
     ethr =  1.45E-06,  avg # of iterations =  2.0

     negative rho (up, down):  3.276E-02 0.000E+00

     total cpu time spent up to now is       43.3 secs

     total energy              =   -2205.52644613 Ry
     estimated scf accuracy    <       0.00258740 Ry

     iteration # 10     ecut=    80.00 Ry     beta= 0.70
     Davidson diagonalization with overlap
     ethr =  8.43E-07,  avg # of iterations =  2.0

     negative rho (up, down):  3.164E-02 0.000E+00

     total cpu time spent up to now is       47.8 secs

     total energy              =   -2205.52646210 Ry
     estimated scf accuracy    <       0.00121155 Ry

     iteration # 11     ecut=    80.00 Ry     beta= 0.70
     Davidson diagonalization with overlap
     ethr =  3.95E-07,  avg # of iterations =  2.0

     negative rho (up, down):  2.151E-02 0.000E+00

     total cpu time spent up to now is       52.7 secs

     total energy              =   -2205.52650478 Ry
     estimated scf accuracy    <       0.00034261 Ry

     iteration # 12     ecut=    80.00 Ry     beta= 0.70
     Davidson diagonalization with overlap
     ethr =  1.12E-07,  avg # of iterations =  6.0

     negative rho (up, down):  8.425E-03 0.000E+00

     total cpu time spent up to now is       59.3 secs

     total energy              =   -2205.52654818 Ry
     estimated scf accuracy    <       0.00015084 Ry

     iteration # 13     ecut=    80.00 Ry     beta= 0.70
     Davidson diagonalization with overlap
     ethr =  4.91E-08,  avg # of iterations =  2.0

     negative rho (up, down):  1.354E-03 0.000E+00

     total cpu time spent up to now is       67.3 secs

     total energy              =   -2205.52658441 Ry
     estimated scf accuracy    <       0.00001430 Ry

     iteration # 14     ecut=    80.00 Ry     beta= 0.70
     Davidson diagonalization with overlap
     c_bands:  2 eigenvalues not converged
     ethr =  4.66E-09,  avg # of iterations = 20.0

     negative rho (up, down):  6.729E-04 0.000E+00

     total cpu time spent up to now is       78.8 secs

     total energy              =   -2205.52659422 Ry
     estimated scf accuracy    <       0.00000699 Ry

     iteration # 15     ecut=    80.00 Ry     beta= 0.70
     Davidson diagonalization with overlap
     c_bands:  1 eigenvalues not converged
     ethr =  2.28E-09,  avg # of iterations = 20.0

     negative rho (up, down):  1.374E-04 0.000E+00

     total cpu time spent up to now is       81.8 secs

     End of self-consistent calculation

          k = 0.0000 0.0000 0.0000 (105382 PWs)   bands (ev):

   -62.8779 -62.8663 -62.8528 -62.8468 -62.8165 -62.7965 -62.7953 -62.7755
   -62.7588 -62.7112 -62.6955 -62.5381 -37.2053 -37.1462 -37.1346 -37.1141
   -37.1061 -37.0847 -37.0721 -37.0579 -37.0534 -37.0462 -37.0384 -37.0236
   -37.0110 -37.0058 -36.9998 -36.9842 -36.9814 -36.9787 -36.9772 -36.9610
   -36.9342 -36.9152 -36.9037 -36.8893 -36.8810 -36.8640 -36.8570 -36.8471
   -36.8362 -36.8331 -36.8184 -36.7926 -36.7347 -36.6897 -36.6390 -36.6083
   -16.1467 -15.6345 -15.0944 -15.0399 -14.9249 -14.8587 -14.6823 -14.5259
   -14.4243 -14.4072 -14.3532 -14.3110 -14.2890 -14.2728 -14.1898 -14.1170
   -14.0804 -14.0651 -14.0034 -13.8613 -13.8102 -13.7962 -13.7708  -8.8622
    -7.5960  -7.4515  -7.2910  -7.2446  -7.1812  -7.1677  -7.1374  -7.0248
    -6.8130  -6.7920  -6.7350  -6.7099  -6.5824  -6.4938  -6.4126  -6.3972
    -6.3474  -6.2002  -6.1135  -5.9476  -5.9208  -5.8968  -5.8676  -5.7533
    -5.7254  -5.7020  -5.6603  -5.6547  -5.5943  -5.5625  -5.5167  -5.4557
    -5.3840  -5.3696  -5.1441  -5.0955  -5.0660  -4.9804  -4.9568  -4.9277
    -4.9192  -4.8390  -4.6573  -4.5471  -4.4235  -4.3209  -4.2697  -4.2162
    -4.1425  -4.0326  -3.9768  -3.8707  -3.7966  -3.7564  -3.7280  -3.6850
    -3.5994  -3.5748  -3.5112  -3.5069  -3.4615  -3.4371  -3.4143  -3.3707
    -3.3256  -3.1611  -3.1210  -2.9029  -2.8576  -2.7711  -2.7656  -2.6956
    -2.6837  -2.6312  -2.6169  -2.5868  -2.5346  -2.2759  -2.0038  -1.9590
    -1.8639  -0.8254  -0.7069  -0.6680  -0.1635  -0.1300  -0.0399   0.0310
     0.0678   0.1258   0.2019   0.2306   0.2829   0.3212   0.3759   0.4306
     0.4899   0.5607   0.5716   0.6297   0.6729   0.7021   0.7497   0.7694
     0.8030   0.8197   0.8936   0.9013   0.9681   1.0225   1.0757   1.3125
     1.4103

     the Fermi energy is    -0.8495 ev

!    total energy              =   -2205.52659396 Ry
     estimated scf accuracy    <       0.00000074 Ry
     smearing contrib. (-TS)   =      -0.00830247 Ry
     internal energy E=F+TS    =   -2205.51829148 Ry

     The total energy is F=E-TS. E is the sum of the following terms:
     one-electron contribution =  -18053.70994012 Ry
     hartree contribution      =    9013.89117611 Ry
     xc contribution           =    -385.34529005 Ry
     ewald contribution        =    7219.64576257 Ry

     convergence has been achieved in  15 iterations

     negative rho (up, down):  1.374E-04 0.000E+00

     Forces acting on atoms (cartesian axes, Ry/au):

     atom    1 type  1   force =     0.00987175   -0.02888698    0.00484301
     atom    2 type  2   force =    -0.01373162    0.01536641    0.00090404
     atom    3 type  2   force =    -0.00929449    0.00870879   -0.00404114
     atom    4 type  1   force =     0.03212363    0.02490019   -0.03293241
     atom    5 type  2   force =    -0.03847690   -0.02983482    0.04139793
     atom    6 type  2   force =     0.00471345    0.01160808    0.00005756
     atom    7 type  1   force =     0.00740434   -0.01206258   -0.01112018
     atom    8 type  2   force =     0.00452749    0.00089074    0.02155867
     atom    9 type  2   force =     0.01249315    0.00221092    0.01364568
     atom   10 type  1   force =    -0.01141089    0.01042419   -0.02591779
     atom   11 type  2   force =     0.00437158   -0.00310015   -0.00635215
     atom   12 type  2   force =    -0.00184351    0.00157891    0.00589923
     atom   13 type  1   force =     0.00609925    0.00524769   -0.00791047
     atom   14 type  2   force =     0.00785410    0.00018802    0.01437153
     atom   15 type  2   force =    -0.01171751    0.00347878   -0.00915471
     atom   16 type  1   force =    -0.00883556    0.01516974   -0.03348966
     atom   17 type  2   force =     0.00822693   -0.00279077    0.00812923
     atom   18 type  2   force =    -0.00416555   -0.00548779    0.01388026
     atom   19 type  1   force =     0.00605190   -0.00545833   -0.00415619
     atom   20 type  2   force =     0.00328284   -0.00548510    0.00045767
     atom   21 type  1   force =    -0.00469278    0.00632062   -0.00123563
     atom   22 type  2   force =    -0.00249120   -0.00251023   -0.00325567
     atom   23 type  2   force =    -0.00065795    0.00215638    0.00910041
     atom   24 type  1   force =    -0.01097060   -0.00317756   -0.02091528
     atom   25 type  2   force =     0.01624371    0.01831810    0.00767077
     atom   26 type  2   force =    -0.01219424   -0.00127945   -0.00444817
     atom   27 type  1   force =    -0.01053197    0.00427050    0.00587447
     atom   28 type  2   force =     0.00088116   -0.00082120   -0.00811519
     atom   29 type  2   force =     0.00068106    0.00009172   -0.00194814
     atom   30 type  1   force =    -0.00292922    0.01184851   -0.00482986
     atom   31 type  2   force =     0.00043822    0.00057369    0.01729694
     atom   32 type  2   force =    -0.00911293    0.00426627    0.00837426
     atom   33 type  1   force =     0.01303877   -0.00477860   -0.00917268
     atom   34 type  2   force =     0.00295817   -0.04288725   -0.01012968
     atom   35 type  2   force =    -0.00838042    0.00623267    0.01509188
     atom   36 type  3   force =     0.02017584   -0.00529011    0.01057143
     The non-local contrib.  to forces
     atom    1 type  1   force =    -0.00016782    0.03367485   -0.01127570
     atom    2 type  2   force =    -0.01057855    0.00423533   -0.26864660
     atom    3 type  2   force =    -0.01214011   -0.00487972    0.27072504
     atom    4 type  1   force =    -0.00389159    0.00028559    0.00266200
     atom    5 type  2   force =    -0.21692916   -0.06253238   -0.03484355
     atom    6 type  2   force =    -0.00298753    0.01009562    0.26512125
     atom    7 type  1   force =    -0.02499596    0.00012798   -0.01668518
     atom    8 type  2   force =     0.00901321    0.00950754   -0.24727029
     atom    9 type  2   force =     0.00802817   -0.01446199    0.27797961
     atom   10 type  1   force =     0.00501683   -0.00166669   -0.00083029
     atom   11 type  2   force =     0.01405179    0.00419103   -0.26000889
     atom   12 type  2   force =    -0.01243283   -0.01657089    0.26273379
     atom   13 type  1   force =    -0.00041518    0.01895126   -0.00694801
     atom   14 type  2   force =     0.01098921   -0.00458715   -0.25741213
     atom   15 type  2   force =    -0.01143414   -0.00316198    0.26212126
     atom   16 type  1   force =     0.00363538    0.04376672   -0.00423063
     atom   17 type  2   force =     0.02382293   -0.03705668   -0.18773097
     atom   18 type  2   force =    -0.00406318   -0.00362860    0.27392516
     atom   19 type  1   force =     0.01513856   -0.00566687   -0.01218946
     atom   20 type  2   force =    -0.00060686   -0.02129267    0.26503053
     atom   21 type  1   force =     0.00131157    0.02253768    0.00549104
     atom   22 type  2   force =    -0.00671700    0.00371518   -0.25893269
     atom   23 type  2   force =     0.00637359   -0.01409085    0.26724571
     atom   24 type  1   force =     0.00909044    0.01028556   -0.00976871
     atom   25 type  2   force =     0.00918937    0.00750582   -0.25858459
     atom   26 type  2   force =    -0.00457689   -0.01361328    0.26411014
     atom   27 type  1   force =    -0.00257295    0.01033918    0.00890386
     atom   28 type  2   force =     0.00022538   -0.02475675   -0.26705837
     atom   29 type  2   force =     0.00475192    0.00657291    0.26646467
     atom   30 type  1   force =     0.00073383    0.01924341    0.00997178
     atom   31 type  2   force =    -0.00735973    0.00556181   -0.25089246
     atom   32 type  2   force =    -0.00471723   -0.01292838    0.27323285
     atom   33 type  1   force =    -0.00564325    0.00646503    0.00590936
     atom   34 type  2   force =    -0.00095045   -0.03603677   -0.27259380
     atom   35 type  2   force =    -0.00308894   -0.01135461    0.27009202
     atom   36 type  3   force =     0.03358802    0.00146250   -0.02363714
     The ionic contribution  to forces
     atom    1 type  1   force =     0.64959926   -0.16573059    5.29217997
     atom    2 type  2   force =    -0.57038600    0.28942700   39.27677977
     atom    3 type  2   force =    -0.13858404   -0.02152703  -36.10171350
     atom    4 type  1   force =     0.37698142    0.69305570    0.44377606
     atom    5 type  2   force =     0.33976692    1.58041724   37.96134347
     atom    6 type  2   force =     0.38821866   -0.50569176  -38.13879993
     atom    7 type  1   force =    -2.53830417   -2.56076989    2.47612058
     atom    8 type  2   force =    -0.88317101    0.15140361   37.37386149
     atom    9 type  2   force =     0.36647094    0.00005701  -38.02309392
     atom   10 type  1   force =    -1.04362293   -0.37519951    5.67857463
     atom   11 type  2   force =    -0.53877196   -1.59251106   39.14838140
     atom   12 type  2   force =     0.45238365    0.69501219  -37.85183362
     atom   13 type  1   force =     0.21635927    0.68058388    2.55895040
     atom   14 type  2   force =     0.02665142   -0.34594953   38.44901684
     atom   15 type  2   force =     0.15366601   -0.12481521  -36.85830809
     atom   16 type  1   force =    -0.12880026    4.30017950   -0.43318168
     atom   17 type  2   force =     0.08940103    1.51140713   37.61920777
     atom   18 type  2   force =    -0.20776243   -0.64899499  -38.65519291
     atom   19 type  1   force =     2.62746583   -2.25869501    0.58276311
     atom   20 type  2   force =     0.22403422   -0.14172386  -38.53032873
     atom   21 type  1   force =     0.02978347   -0.04856493    1.13775999
     atom   22 type  2   force =     0.42864077   -1.70392848   38.44053133
     atom   23 type  2   force =    -0.09788307    0.66753762  -38.28572413
     atom   24 type  1   force =    -0.52352829    1.02785932    5.79333281
     atom   25 type  2   force =     0.58812414    0.19141195   39.26986164
     atom   26 type  2   force =    -0.30874369    0.03213012  -37.34365380
     atom   27 type  1   force =    -0.17132461    0.48741607   -2.39844127
     atom   28 type  2   force =     0.08257546    1.00683235   38.19698569
     atom   29 type  2   force =    -0.25749983   -0.42988017  -37.29130599
     atom   30 type  1   force =    -0.32798836   -0.80582292   -0.02945899
     atom   31 type  2   force =     1.14937140    0.03974947   37.32050073
     atom   32 type  2   force =    -0.49980307    0.02508956  -38.64686106
     atom   33 type  1   force =     0.74850420   -0.90751123    2.08590491
     atom   34 type  2   force =     0.24277351   -1.43956229   39.37072786
     atom   35 type  2   force =    -0.29870374    0.47968617  -37.80022228
     atom   36 type  3   force =    -0.64589409    0.21762256    7.91155944
     The local contribution  to forces
     atom    1 type  1   force =    -0.63957601    0.10303094   -5.27505331
     atom    2 type  2   force =     0.56698931   -0.27802764  -39.02771168
     atom    3 type  2   force =     0.14090934    0.03499214   35.84847110
     atom    4 type  1   force =    -0.34066648   -0.66853246   -0.47849917
     atom    5 type  2   force =    -0.17584610   -1.55139214  -37.89164122
     atom    6 type  2   force =    -0.38068617    0.50821149   37.89524537
     atom    7 type  1   force =     2.57108671    2.54892437   -2.46973942
     atom    8 type  2   force =     0.87914036   -0.16003132  -37.12480262
     atom    9 type  2   force =    -0.36171148    0.01572619   37.78025480
     atom   10 type  1   force =     1.02732848    0.38735503   -5.70259373
     atom   11 type  2   force =     0.52979552    1.58588281  -38.91512675
     atom   12 type  2   force =    -0.44289013   -0.67816227   37.61632390
     atom   13 type  1   force =    -0.20992768   -0.69435347   -2.55883439
     atom   14 type  2   force =    -0.02917175    0.35113040  -38.19738794
     atom   15 type  2   force =    -0.15456505    0.13119822   36.60827378
     atom   16 type  1   force =     0.11623468   -4.32938113    0.40474950
     atom   17 type  2   force =    -0.10308318   -1.47916023  -37.43991371
     atom   18 type  2   force =     0.20743346    0.64757211   38.41671412
     atom   19 type  1   force =    -2.63694040    2.25920010   -0.57393894
     atom   20 type  2   force =    -0.22032949    0.15674209   38.28725763
     atom   21 type  1   force =    -0.03578758    0.03247102   -1.14344190
     atom   22 type  2   force =    -0.42461243    1.69832386  -38.20515780
     atom   23 type  2   force =     0.09134659   -0.65247651   38.04896845
     atom   24 type  1   force =     0.50348310   -1.04136495   -5.80339354
     atom   25 type  2   force =    -0.58102509   -0.18006038  -39.02405046
     atom   26 type  2   force =     0.30116822   -0.02051599   37.09661151
     atom   27 type  1   force =     0.16320363   -0.49363912    2.39635365
     atom   28 type  2   force =    -0.08209489   -0.98472946  -37.95852489
     atom   29 type  2   force =     0.25390245    0.42426192   37.04423018
     atom   30 type  1   force =     0.32430925    0.79844589    0.01553485
     atom   31 type  2   force =    -1.14211553   -0.04464851  -37.07249756
     atom   32 type  2   force =     0.49535790   -0.00871273   38.40351333
     atom   33 type  1   force =    -0.72991911    0.89633850   -2.09993292
     atom   34 type  2   force =    -0.23928366    1.43173450  -39.12915410
     atom   35 type  2   force =     0.29344863   -0.46313126   37.56683128
     atom   36 type  3   force =     0.63248446   -0.22440119   -7.87731536
     The core correction contribution to forces
     atom    1 type  1   force =     0.00000000    0.00000000    0.00000000
     atom    2 type  2   force =     0.00029854   -0.00032308    0.02063006
     atom    3 type  2   force =     0.00053670    0.00011035   -0.02092257
     atom    4 type  1   force =     0.00000000    0.00000000    0.00000000
     atom    5 type  2   force =     0.01461432    0.00354778    0.00667651
     atom    6 type  2   force =     0.00023295   -0.00100395   -0.02098679
     atom    7 type  1   force =     0.00000000    0.00000000    0.00000000
     atom    8 type  2   force =    -0.00029855   -0.00001800    0.01997155
     atom    9 type  2   force =    -0.00019112    0.00082319   -0.02102679
     atom   10 type  1   force =     0.00000000    0.00000000    0.00000000
     atom   11 type  2   force =    -0.00064643   -0.00049892    0.02062514
     atom   12 type  2   force =     0.00113761    0.00136178   -0.02080530
     atom   13 type  1   force =     0.00000000    0.00000000    0.00000000
     atom   14 type  2   force =    -0.00061795   -0.00043775    0.02029009
     atom   15 type  2   force =     0.00061967    0.00024699   -0.02062079
     atom   16 type  1   force =     0.00000000    0.00000000    0.00000000
     atom   17 type  2   force =    -0.00202808    0.00190366    0.01663649
     atom   18 type  2   force =     0.00017341   -0.00042215   -0.02102463
     atom   19 type  1   force =     0.00000000    0.00000000    0.00000000
     atom   20 type  2   force =     0.00014603    0.00077771   -0.02116671
     atom   21 type  1   force =     0.00000000    0.00000000    0.00000000
     atom   22 type  2   force =     0.00015910   -0.00049680    0.02051198
     atom   23 type  2   force =    -0.00052924    0.00119362   -0.02085377
     atom   24 type  1   force =     0.00000000    0.00000000    0.00000000
     atom   25 type  2   force =    -0.00009275   -0.00056080    0.02057721
     atom   26 type  2   force =    -0.00004776    0.00072136   -0.02089407
     atom   27 type  1   force =     0.00000000    0.00000000    0.00000000
     atom   28 type  2   force =     0.00017290    0.00179677    0.02056348
     atom   29 type  2   force =    -0.00047828   -0.00079861   -0.02073371
     atom   30 type  1   force =     0.00000000    0.00000000    0.00000000
     atom   31 type  2   force =     0.00042532   -0.00010862    0.02035861
     atom   32 type  2   force =    -0.00000541    0.00078150   -0.02101081
     atom   33 type  1   force =     0.00000000    0.00000000    0.00000000
     atom   34 type  2   force =     0.00038877    0.00106977    0.02108292
     atom   35 type  2   force =    -0.00003844    0.00102075   -0.02103968
     atom   36 type  3   force =     0.00000000    0.00000000    0.00000000
     The Hubbard contrib.    to forces
     atom    1 type  1   force =     0.00000000    0.00000000    0.00000000
     atom    2 type  2   force =     0.00000000    0.00000000    0.00000000
     atom    3 type  2   force =     0.00000000    0.00000000    0.00000000
     atom    4 type  1   force =     0.00000000    0.00000000    0.00000000
     atom    5 type  2   force =     0.00000000    0.00000000    0.00000000
     atom    6 type  2   force =     0.00000000    0.00000000    0.00000000
     atom    7 type  1   force =     0.00000000    0.00000000    0.00000000
     atom    8 type  2   force =     0.00000000    0.00000000    0.00000000
     atom    9 type  2   force =     0.00000000    0.00000000    0.00000000
     atom   10 type  1   force =     0.00000000    0.00000000    0.00000000
     atom   11 type  2   force =     0.00000000    0.00000000    0.00000000
     atom   12 type  2   force =     0.00000000    0.00000000    0.00000000
     atom   13 type  1   force =     0.00000000    0.00000000    0.00000000
     atom   14 type  2   force =     0.00000000    0.00000000    0.00000000
     atom   15 type  2   force =     0.00000000    0.00000000    0.00000000
     atom   16 type  1   force =     0.00000000    0.00000000    0.00000000
     atom   17 type  2   force =     0.00000000    0.00000000    0.00000000
     atom   18 type  2   force =     0.00000000    0.00000000    0.00000000
     atom   19 type  1   force =     0.00000000    0.00000000    0.00000000
     atom   20 type  2   force =     0.00000000    0.00000000    0.00000000
     atom   21 type  1   force =     0.00000000    0.00000000    0.00000000
     atom   22 type  2   force =     0.00000000    0.00000000    0.00000000
     atom   23 type  2   force =     0.00000000    0.00000000    0.00000000
     atom   24 type  1   force =     0.00000000    0.00000000    0.00000000
     atom   25 type  2   force =     0.00000000    0.00000000    0.00000000
     atom   26 type  2   force =     0.00000000    0.00000000    0.00000000
     atom   27 type  1   force =     0.00000000    0.00000000    0.00000000
     atom   28 type  2   force =     0.00000000    0.00000000    0.00000000
     atom   29 type  2   force =     0.00000000    0.00000000    0.00000000
     atom   30 type  1   force =     0.00000000    0.00000000    0.00000000
     atom   31 type  2   force =     0.00000000    0.00000000    0.00000000
     atom   32 type  2   force =     0.00000000    0.00000000    0.00000000
     atom   33 type  1   force =     0.00000000    0.00000000    0.00000000
     atom   34 type  2   force =     0.00000000    0.00000000    0.00000000
     atom   35 type  2   force =     0.00000000    0.00000000    0.00000000
     atom   36 type  3   force =     0.00000000    0.00000000    0.00000000
     The SCF correction term to forces
     atom    1 type  1   force =     0.00001682    0.00013377   -0.00098773
     atom    2 type  2   force =    -0.00005441    0.00005075   -0.00012729
     atom    3 type  2   force =    -0.00001587    0.00000899   -0.00058100
     atom    4 type  1   force =    -0.00029922    0.00008730   -0.00085110
     atom    5 type  2   force =    -0.00008237    0.00012063   -0.00011707
     atom    6 type  2   force =    -0.00006395   -0.00000736   -0.00050213
     atom    7 type  1   force =    -0.00038174   -0.00034909   -0.00079595
     atom    8 type  2   force =    -0.00015602    0.00002486   -0.00018125
     atom    9 type  2   force =    -0.00010286    0.00006248   -0.00044782
     atom   10 type  1   force =    -0.00013276   -0.00006869   -0.00104819
     atom   11 type  2   force =    -0.00005684   -0.00016806   -0.00020284
     atom   12 type  2   force =    -0.00004131   -0.00006594   -0.00049933
     atom   13 type  1   force =     0.00008334    0.00006197   -0.00105826
     atom   14 type  2   force =     0.00000367    0.00002799   -0.00011511
     atom   15 type  2   force =    -0.00000349    0.00000672   -0.00060066
     atom   16 type  1   force =     0.00009514    0.00060060   -0.00080663
     atom   17 type  2   force =     0.00011473    0.00011130   -0.00005015
     atom   18 type  2   force =     0.00005369   -0.00001821   -0.00052127
     atom   19 type  1   force =     0.00038842   -0.00030060   -0.00077069
     atom   20 type  2   force =     0.00003943    0.00000758   -0.00031484
     atom   21 type  1   force =     0.00000025   -0.00012720   -0.00102456
     atom   22 type  2   force =     0.00003886   -0.00012805   -0.00018828
     atom   23 type  2   force =     0.00003469   -0.00001154   -0.00051564
     atom   24 type  1   force =    -0.00001536    0.00003846   -0.00106564
     atom   25 type  2   force =     0.00004855    0.00001745   -0.00011283
     atom   26 type  2   force =     0.00000639   -0.00000571   -0.00060173
     atom   27 type  1   force =     0.00016246    0.00015032   -0.00092156
     atom   28 type  2   force =     0.00000282    0.00003183   -0.00006090
     atom   29 type  2   force =     0.00000530   -0.00006837   -0.00058308
     atom   30 type  1   force =     0.00001657   -0.00002192   -0.00085729
     atom   31 type  2   force =     0.00011726    0.00001549   -0.00015217
     atom   32 type  2   force =     0.00005539    0.00003227   -0.00047984
     atom   33 type  1   force =     0.00009743   -0.00007495   -0.00103381
     atom   34 type  2   force =     0.00003051   -0.00009651   -0.00017235
     atom   35 type  2   force =     0.00000258    0.00000758   -0.00054924
     atom   36 type  3   force =    -0.00000204    0.00002198   -0.00001531

     Total force =     0.137261     Total SCF correction =     0.003929

     BFGS Geometry Optimization
     Energy error            =      0.0E+00 Ry
     Gradient error          =      4.3E-02 Ry/Bohr

     number of scf cycles    =   1
     number of bfgs steps    =   0

     energy             new  =   -2205.5265939589 Ry

     new trust radius        =       0.0639091316 bohr
     new conv_thr            =       0.0000010000 Ry


ATOMIC_POSITIONS (angstrom)
Mo            6.5797723128        1.7725198981        2.8262058432
S             8.1694428783        0.8178355785        4.4350167509
S             8.1883146530        0.8158502364        1.2757449490
Mo            8.1121616581        4.5082335556        2.7003913107
S             6.4795481575        3.7066235799        4.3685674895
S             6.5558440502        3.5178802887        1.1213106886
Mo            6.4938999032        7.2120540435        2.6659999401
S             8.0841235738        6.3443423519        4.2538699195
S             8.0875287386        6.3058722873        1.0910839812
Mo            8.1545806658        9.9076966590        2.8297466597
S             6.4974809358        8.9412862864        4.3797441217
S             6.6169716557        9.0495467374        1.1430290400
Mo            3.4248872492        1.7497328098        2.7722851216
S             4.9793217007        0.8170407060        4.3581381796
S             5.0516331175        0.8481030014        1.2218139988
Mo            4.9750811030        4.5212054831        2.6151625866
S             3.4321951665        3.6701228748        4.2840113818
S             3.4357162671        3.5453246851        1.0656967968
Mo            3.4570642699        7.2134361147        2.6284775017
S             4.9849713951        6.3240296933        1.0374959208
Mo            5.0097806063        9.9049447789        2.7427470911
S             3.4696398321        8.9424229143        4.3238684839
S             3.4080809950        9.0661310925        1.1008840305
Mo            0.2902850936        1.7458280365        2.8383768187
S             1.8590580153        0.8023875271        4.4022686335
S             1.8543471200        0.8537488613        1.2070469863
Mo            1.8551180300        4.4979266108        2.6633060160
S             0.2726801411        3.6539642647        4.3332897280
S             0.2315916105        3.5272977648        1.1709869699
Mo            0.2696020745        7.2229160568        2.6991405756
S             1.9024701418        6.3131024171        4.2315972672
S             1.8574158593        6.3126014231        1.0489907520
Mo            1.8512464826        9.9376104264        2.7680922810
S             0.2974782930        9.0673028695        4.4085090719
S             0.2723366705        9.0468239001        1.1583870611
H             5.2644321502        3.6401672620        5.1194636280



     Writing config-only to output data dir ./MoS2-V-O.save/
     NEW-OLD atomic charge density approx. for the potential

     negative rho (up, down):  1.450E-04 0.000E+00

     total cpu time spent up to now is       85.3 secs

     Self-consistent Calculation

     iteration #  1     ecut=    80.00 Ry     beta= 0.70
     Davidson diagonalization with overlap
     c_bands:  1 eigenvalues not converged
     ethr =  1.00E-06,  avg # of iterations = 20.0

     negative rho (up, down):  1.425E-04 0.000E+00

     total cpu time spent up to now is      101.6 secs

     total energy              =   -2205.54125735 Ry
     estimated scf accuracy    <       0.00242950 Ry

     iteration #  2     ecut=    80.00 Ry     beta= 0.70
     Davidson diagonalization with overlap
     ethr =  7.91E-07,  avg # of iterations =  2.0

     negative rho (up, down):  1.408E-04 0.000E+00

     total cpu time spent up to now is      121.6 secs

     total energy              =   -2205.54134204 Ry
     estimated scf accuracy    <       0.00048457 Ry

     iteration #  3     ecut=    80.00 Ry     beta= 0.70
     Davidson diagonalization with overlap
     ethr =  1.58E-07,  avg # of iterations =  4.0

     negative rho (up, down):  1.419E-04 0.000E+00

     total cpu time spent up to now is      135.8 secs

     total energy              =   -2205.54138037 Ry
     estimated scf accuracy    <       0.00012738 Ry

     iteration #  4     ecut=    80.00 Ry     beta= 0.70
     Davidson diagonalization with overlap
     ethr =  4.15E-08,  avg # of iterations =  6.0

     negative rho (up, down):  1.386E-04 0.000E+00

     total cpu time spent up to now is      152.5 secs

     total energy              =   -2205.54139791 Ry
     estimated scf accuracy    <       0.00001871 Ry

     iteration #  5     ecut=    80.00 Ry     beta= 0.70
     Davidson diagonalization with overlap
     ethr =  6.10E-09,  avg # of iterations =  8.0

     negative rho (up, down):  1.339E-04 0.000E+00

     total cpu time spent up to now is      170.7 secs

     total energy              =   -2205.54140233 Ry
     estimated scf accuracy    <       0.00000507 Ry

     iteration #  6     ecut=    80.00 Ry     beta= 0.70
     Davidson diagonalization with overlap
     ethr =  1.65E-09,  avg # of iterations =  2.0

     negative rho (up, down):  1.378E-04 0.000E+00

     total cpu time spent up to now is      172.8 secs

     End of self-consistent calculation

          k = 0.0000 0.0000 0.0000 (105382 PWs)   bands (ev):

   -62.8766 -62.8569 -62.8536 -62.8448 -62.8243 -62.8010 -62.7932 -62.7775
   -62.7537 -62.7182 -62.6968 -62.5432 -37.2051 -37.1353 -37.1315 -37.1131
   -37.1068 -37.0852 -37.0648 -37.0590 -37.0486 -37.0409 -37.0348 -37.0217
   -37.0142 -37.0040 -37.0022 -36.9855 -36.9804 -36.9789 -36.9781 -36.9624
   -36.9357 -36.9147 -36.9026 -36.8909 -36.8821 -36.8664 -36.8613 -36.8502
   -36.8372 -36.8354 -36.8170 -36.7949 -36.7395 -36.6908 -36.6407 -36.6171
   -16.1408 -15.6375 -15.0965 -15.0380 -14.9287 -14.8474 -14.6818 -14.5079
   -14.4224 -14.3952 -14.3584 -14.3114 -14.2967 -14.2794 -14.1851 -14.1203
   -14.0810 -14.0705 -14.0141 -13.8476 -13.8118 -13.8041 -13.7874  -8.8416
    -7.5934  -7.4442  -7.2810  -7.2451  -7.1789  -7.1670  -7.1379  -7.0330
    -6.8047  -6.7785  -6.7225  -6.7040  -6.5783  -6.4955  -6.4133  -6.3805
    -6.3547  -6.1955  -6.1183  -5.9429  -5.9012  -5.8892  -5.8606  -5.7539
    -5.7298  -5.7054  -5.6614  -5.6605  -5.5932  -5.5702  -5.5176  -5.4603
    -5.3710  -5.3465  -5.1269  -5.0854  -5.0566  -4.9838  -4.9670  -4.9319
    -4.9278  -4.8528  -4.6434  -4.5686  -4.4074  -4.3101  -4.2600  -4.2171
    -4.1577  -4.0454  -3.9940  -3.8752  -3.7928  -3.7515  -3.7203  -3.6756
    -3.6127  -3.5729  -3.5208  -3.5007  -3.4618  -3.4451  -3.4108  -3.3782
    -3.3320  -3.1667  -3.1299  -2.9025  -2.8513  -2.7604  -2.7580  -2.6974
    -2.6714  -2.6416  -2.6296  -2.5913  -2.5305  -2.2571  -2.0068  -1.9601
    -1.8845  -0.8568  -0.7041  -0.6551  -0.1549  -0.1387  -0.0326   0.0521
     0.0799   0.1335   0.2050   0.2284   0.2917   0.3236   0.3789   0.4326
     0.4896   0.5576   0.5780   0.6340   0.6784   0.6979   0.7423   0.7561
     0.8056   0.8369   0.8814   0.9081   0.9862   1.0199   1.0959   1.3194
     1.3996

     the Fermi energy is    -0.8701 ev

!    total energy              =   -2205.54140246 Ry
     estimated scf accuracy    <       0.00000088 Ry
     smearing contrib. (-TS)   =      -0.00732487 Ry
     internal energy E=F+TS    =   -2205.53407759 Ry

     The total energy is F=E-TS. E is the sum of the following terms:
     one-electron contribution =  -18051.25364562 Ry
     hartree contribution      =    9012.66797102 Ry
     xc contribution           =    -385.35009306 Ry
     ewald contribution        =    7218.40169006 Ry

     convergence has been achieved in   6 iterations

     negative rho (up, down):  1.378E-04 0.000E+00

     Forces acting on atoms (cartesian axes, Ry/au):

     atom    1 type  1   force =     0.00086698   -0.01583988    0.00241964
     atom    2 type  2   force =    -0.00855662    0.00921786   -0.00171038
     atom    3 type  2   force =    -0.00929690    0.00724303   -0.00977024
     atom    4 type  1   force =     0.01419694    0.01706624   -0.01456502
     atom    5 type  2   force =    -0.01795647   -0.01851777    0.02141459
     atom    6 type  2   force =     0.00711095    0.00790174    0.00103313
     atom    7 type  1   force =     0.00960742   -0.01022763   -0.00407959
     atom    8 type  2   force =     0.00405435   -0.00106284    0.01537375
     atom    9 type  2   force =     0.01269994    0.00583402    0.00514950
     atom   10 type  1   force =    -0.00387613    0.00819966   -0.00886936
     atom   11 type  2   force =     0.00366700   -0.00311358   -0.00921198
     atom   12 type  2   force =    -0.00388879    0.00092779    0.00130700
     atom   13 type  1   force =     0.00462777    0.00388437   -0.00204034
     atom   14 type  2   force =     0.00513239   -0.00120418    0.00949838
     atom   15 type  2   force =    -0.00828673    0.00269032   -0.00794412
     atom   16 type  1   force =    -0.00777228    0.00585567   -0.01083262
     atom   17 type  2   force =     0.00362370    0.00185478   -0.00178520
     atom   18 type  2   force =    -0.00544388   -0.00378259    0.00736377
     atom   19 type  1   force =     0.00338943   -0.00684576    0.00086566
     atom   20 type  2   force =     0.00290563   -0.00168522   -0.00722856
     atom   21 type  1   force =    -0.00370206    0.00454193    0.00215062
     atom   22 type  2   force =    -0.00113911   -0.00226511   -0.00407945
     atom   23 type  2   force =     0.00064461    0.00092331    0.00469329
     atom   24 type  1   force =    -0.00687500   -0.00165481   -0.00797327
     atom   25 type  2   force =     0.01136073    0.01394434    0.00011115
     atom   26 type  2   force =    -0.00814264   -0.00128281   -0.00503540
     atom   27 type  1   force =    -0.00382901    0.00138127    0.00941377
     atom   28 type  2   force =    -0.00214669   -0.00078234   -0.00976088
     atom   29 type  2   force =     0.00311005    0.00034529   -0.00719178
     atom   30 type  1   force =    -0.00165104    0.00476751    0.00344186
     atom   31 type  2   force =     0.00050886    0.00098439    0.01147779
     atom   32 type  2   force =    -0.00725265    0.00458848    0.00594939
     atom   33 type  1   force =     0.00565213   -0.00130977    0.00036628
     atom   34 type  2   force =     0.00024699   -0.03086266   -0.01459649
     atom   35 type  2   force =    -0.00621294    0.00724160    0.00806224
     atom   36 type  3   force =     0.01262308   -0.00895666    0.01658289
     The non-local contrib.  to forces
     atom    1 type  1   force =     0.00145382    0.03000658   -0.01395278
     atom    2 type  2   force =    -0.00732377    0.00027999   -0.26823745
     atom    3 type  2   force =    -0.01060747   -0.00722987    0.26573862
     atom    4 type  1   force =     0.00112338    0.00164508    0.00260301
     atom    5 type  2   force =    -0.21586304   -0.06466526   -0.05454061
     atom    6 type  2   force =    -0.00097805    0.00752902    0.26815455
     atom    7 type  1   force =    -0.02422557   -0.00122470   -0.01966625
     atom    8 type  2   force =     0.00987843    0.01168452   -0.24971823
     atom    9 type  2   force =     0.00762985   -0.01185410    0.27211211
     atom   10 type  1   force =     0.00375167   -0.00151648   -0.00181933
     atom   11 type  2   force =     0.01243275    0.00385987   -0.26226013
     atom   12 type  2   force =    -0.01304703   -0.01726338    0.26103995
     atom   13 type  1   force =     0.00087492    0.01967193   -0.00795124
     atom   14 type  2   force =     0.00834165   -0.00545560   -0.26014436
     atom   15 type  2   force =    -0.00905984   -0.00449531    0.26231803
     atom   16 type  1   force =     0.00570654    0.04672969   -0.00616545
     atom   17 type  2   force =     0.01130029   -0.03385234   -0.19677301
     atom   18 type  2   force =    -0.00457997   -0.00168304    0.27036148
     atom   19 type  1   force =     0.01673873   -0.00437453   -0.01476087
     atom   20 type  2   force =    -0.00117550   -0.01808161    0.26084830
     atom   21 type  1   force =     0.00041509    0.02426975    0.00424532
     atom   22 type  2   force =    -0.00471527    0.00309256   -0.25938987
     atom   23 type  2   force =     0.00759246   -0.01494383    0.26462365
     atom   24 type  1   force =     0.00736572    0.01082053   -0.00964420
     atom   25 type  2   force =     0.00567685    0.00407126   -0.26346479
     atom   26 type  2   force =    -0.00135019   -0.01315893    0.26442461
     atom   27 type  1   force =    -0.00471119    0.00879999    0.00832874
     atom   28 type  2   force =     0.00053195   -0.02385015   -0.26844131
     atom   29 type  2   force =     0.00583454    0.00538687    0.26367861
     atom   30 type  1   force =    -0.00073964    0.01981901    0.00853067
     atom   31 type  2   force =    -0.00663902    0.00637446   -0.25487114
     atom   32 type  2   force =    -0.00249952   -0.01250470    0.27160896
     atom   33 type  1   force =    -0.00411039    0.00495765    0.00442608
     atom   34 type  2   force =    -0.00310052   -0.02663173   -0.27659734
     atom   35 type  2   force =    -0.00206623   -0.00994512    0.26636717
     atom   36 type  3   force =     0.03829884    0.00102135   -0.02620378
     The ionic contribution  to forces
     atom    1 type  1   force =     0.49232305    0.47624263    5.46417683
     atom    2 type  2   force =    -0.38165943    0.21260407   39.35844804
     atom    3 type  2   force =    -0.13460887    0.02105321  -36.20423318
     atom    4 type  1   force =    -0.26113487    0.25584291    0.14777842
     atom    5 type  2   force =     0.55741910    1.71513161   37.79792103
     atom    6 type  2   force =     0.37897845   -0.62161261  -37.91775428
     atom    7 type  1   force =    -2.61192191   -2.47699220    2.46764670
     atom    8 type  2   force =    -0.97498652    0.05508943   37.54377907
     atom    9 type  2   force =     0.32870946    0.07566025  -38.05125119
     atom   10 type  1   force =    -0.81250895   -0.39447245    5.41126244
     atom   11 type  2   force =    -0.51846758   -1.62096557   39.10246501
     atom   12 type  2   force =     0.36855644    0.64980919  -37.82247041
     atom   13 type  1   force =     0.16825660    0.68742628    2.52632556
     atom   14 type  2   force =    -0.05542628   -0.32333851   38.54118606
     atom   15 type  2   force =     0.16757443   -0.07026520  -36.90120209
     atom   16 type  1   force =     0.22106030    3.90260297   -0.91555253
     atom   17 type  2   force =     0.13907797    1.53298222   37.60432161
     atom   18 type  2   force =    -0.25972420   -0.66537365  -38.56974423
     atom   19 type  1   force =     2.61009429   -2.23881721    0.64111674
     atom   20 type  2   force =     0.20516608   -0.05078929  -38.59478684
     atom   21 type  1   force =     0.02006387   -0.13081421    1.27637221
     atom   22 type  2   force =     0.43829080   -1.70312144   38.46239946
     atom   23 type  2   force =    -0.07310874    0.63261279  -38.26079285
     atom   24 type  1   force =    -0.35613360    0.93443199    5.59453383
     atom   25 type  2   force =     0.46522920    0.15199071   39.23799742
     atom   26 type  2   force =    -0.26207202    0.03574612  -37.29829890
     atom   27 type  1   force =     0.03230846    0.41231966   -2.03450273
     atom   28 type  2   force =    -0.01885375    0.90881600   38.18929362
     atom   29 type  2   force =    -0.18446141   -0.49374582  -37.34357248
     atom   30 type  1   force =    -0.22511908   -0.80321490    0.03976112
     atom   31 type  2   force =     1.17841877    0.04951793   37.42029426
     atom   32 type  2   force =    -0.44705089    0.02273379  -38.59687655
     atom   33 type  1   force =     0.57075523   -0.66671982    2.18821231
     atom   34 type  2   force =     0.19125507   -1.21257954   39.29606043
     atom   35 type  2   force =    -0.24249801    0.50726408  -37.73007692
     atom   36 type  3   force =    -0.71380146    0.23294461    7.92976301
     The local contribution  to forces
     atom    1 type  1   force =    -0.49258277   -0.52181188   -5.44829713
     atom    2 type  2   force =     0.38047082   -0.20351746  -39.11277672
     atom    3 type  2   force =     0.13547246   -0.00674231   35.94931249
     atom    4 type  1   force =     0.27459036   -0.23976213   -0.16523206
     atom    5 type  2   force =    -0.37410369   -1.67250010  -37.72943322
     atom    6 type  2   force =    -0.37099855    0.62302609   37.67159089
     atom    7 type  1   force =     2.64596190    2.46783350   -2.45223015
     atom    8 type  2   force =     0.96947602   -0.06758322  -37.29893106
     atom    9 type  2   force =    -0.32354998   -0.05864011   37.80519741
     atom   10 type  1   force =     0.80496971    0.40369615   -5.41827966
     atom   11 type  2   force =     0.51038774    1.61413817  -38.87049461
     atom   12 type  2   force =    -0.36054382   -0.63330919   37.58341652
     atom   13 type  1   force =    -0.16464163   -0.70300919   -2.52070203
     atom   14 type  2   force =     0.05268430    0.32789767  -38.29227286
     atom   15 type  2   force =    -0.16726258    0.07716402   36.65133427
     atom   16 type  1   force =    -0.23437480   -3.94287775    0.91036322
     atom   17 type  2   force =    -0.14564626   -1.49886406  -37.42677906
     atom   18 type  2   force =     0.25866358    0.66394283   38.32754664
     atom   19 type  1   force =    -2.62345501    2.23609592   -0.62566417
     atom   20 type  2   force =    -0.20114687    0.06660449   38.34774678
     atom   21 type  1   force =    -0.02408996    0.11035681   -1.27872882
     atom   22 type  2   force =    -0.43484427    1.69805290  -38.22793993
     atom   23 type  2   force =     0.06679660   -0.61816149   38.02148592
     atom   24 type  1   force =     0.34177438   -0.94686696   -5.59288358
     atom   25 type  2   force =    -0.45983367   -0.14176673  -38.99545240
     atom   26 type  2   force =     0.25540022   -0.02452088   37.04964791
     atom   27 type  1   force =    -0.03167399   -0.41919658    2.03541056
     atom   28 type  2   force =     0.01599801   -0.88729576  -37.95148191
     atom   29 type  2   force =     0.18220586    0.48960814   37.09324168
     atom   30 type  1   force =     0.22410443    0.78793349   -0.04481640
     atom   31 type  2   force =    -1.17178261   -0.05475881  -37.17468044
     atom   32 type  2   force =     0.44238928   -0.00642894   38.35211858
     atom   33 type  1   force =    -0.56122951    0.66021206   -2.19223496
     atom   34 type  2   force =    -0.18843950    1.20757808  -39.05552798
     atom   35 type  2   force =     0.23840277   -0.49120780   37.49260110
     atom   36 type  3   force =     0.68811823   -0.24289440   -7.88704431
     The core correction contribution to forces
     atom    1 type  1   force =     0.00000000    0.00000000    0.00000000
     atom    2 type  2   force =     0.00027076   -0.00023060    0.02067200
     atom    3 type  2   force =     0.00046628    0.00023720   -0.02083437
     atom    4 type  1   force =     0.00000000    0.00000000    0.00000000
     atom    5 type  2   force =     0.01491127    0.00375906    0.00697979
     atom    6 type  2   force =     0.00015646   -0.00098219   -0.02100827
     atom    7 type  1   force =     0.00000000    0.00000000    0.00000000
     atom    8 type  2   force =    -0.00036773   -0.00017556    0.02004478
     atom    9 type  2   force =    -0.00017042    0.00078641   -0.02093639
     atom   10 type  1   force =     0.00000000    0.00000000    0.00000000
     atom   11 type  2   force =    -0.00052546   -0.00051293    0.02067966
     atom   12 type  2   force =     0.00109211    0.00135066   -0.02075086
     atom   13 type  1   force =     0.00000000    0.00000000    0.00000000
     atom   14 type  2   force =    -0.00056517   -0.00037224    0.02041243
     atom   15 type  2   force =     0.00053523    0.00033790   -0.02064940
     atom   16 type  1   force =     0.00000000    0.00000000    0.00000000
     atom   17 type  2   force =    -0.00133501    0.00176919    0.01699503
     atom   18 type  2   force =     0.00008973   -0.00052494   -0.02092508
     atom   19 type  1   force =     0.00000000    0.00000000    0.00000000
     atom   20 type  2   force =     0.00016945    0.00074601   -0.02107790
     atom   21 type  1   force =     0.00000000    0.00000000    0.00000000
     atom   22 type  2   force =     0.00006360   -0.00049100    0.02055631
     atom   23 type  2   force =    -0.00055347    0.00120135   -0.02080289
     atom   24 type  1   force =     0.00000000    0.00000000    0.00000000
     atom   25 type  2   force =     0.00001147   -0.00041895    0.02069216
     atom   26 type  2   force =    -0.00016405    0.00069673   -0.02088983
     atom   27 type  1   force =     0.00000000    0.00000000    0.00000000
     atom   28 type  2   force =     0.00008464    0.00167695    0.02066357
     atom   29 type  2   force =    -0.00044432   -0.00078550   -0.02068681
     atom   30 type  1   force =     0.00000000    0.00000000    0.00000000
     atom   31 type  2   force =     0.00037739   -0.00011091    0.02045679
     atom   32 type  2   force =    -0.00011506    0.00073506   -0.02094682
     atom   33 type  1   force =     0.00000000    0.00000000    0.00000000
     atom   34 type  2   force =     0.00042214    0.00075827    0.02121424
     atom   35 type  2   force =    -0.00005921    0.00096669   -0.02093524
     atom   36 type  3   force =     0.00000000    0.00000000    0.00000000
     The Hubbard contrib.    to forces
     atom    1 type  1   force =     0.00000000    0.00000000    0.00000000
     atom    2 type  2   force =     0.00000000    0.00000000    0.00000000
     atom    3 type  2   force =     0.00000000    0.00000000    0.00000000
     atom    4 type  1   force =     0.00000000    0.00000000    0.00000000
     atom    5 type  2   force =     0.00000000    0.00000000    0.00000000
     atom    6 type  2   force =     0.00000000    0.00000000    0.00000000
     atom    7 type  1   force =     0.00000000    0.00000000    0.00000000
     atom    8 type  2   force =     0.00000000    0.00000000    0.00000000
     atom    9 type  2   force =     0.00000000    0.00000000    0.00000000
     atom   10 type  1   force =     0.00000000    0.00000000    0.00000000
     atom   11 type  2   force =     0.00000000    0.00000000    0.00000000
     atom   12 type  2   force =     0.00000000    0.00000000    0.00000000
     atom   13 type  1   force =     0.00000000    0.00000000    0.00000000
     atom   14 type  2   force =     0.00000000    0.00000000    0.00000000
     atom   15 type  2   force =     0.00000000    0.00000000    0.00000000
     atom   16 type  1   force =     0.00000000    0.00000000    0.00000000
     atom   17 type  2   force =     0.00000000    0.00000000    0.00000000
     atom   18 type  2   force =     0.00000000    0.00000000    0.00000000
     atom   19 type  1   force =     0.00000000    0.00000000    0.00000000
     atom   20 type  2   force =     0.00000000    0.00000000    0.00000000
     atom   21 type  1   force =     0.00000000    0.00000000    0.00000000
     atom   22 type  2   force =     0.00000000    0.00000000    0.00000000
     atom   23 type  2   force =     0.00000000    0.00000000    0.00000000
     atom   24 type  1   force =     0.00000000    0.00000000    0.00000000
     atom   25 type  2   force =     0.00000000    0.00000000    0.00000000
     atom   26 type  2   force =     0.00000000    0.00000000    0.00000000
     atom   27 type  1   force =     0.00000000    0.00000000    0.00000000
     atom   28 type  2   force =     0.00000000    0.00000000    0.00000000
     atom   29 type  2   force =     0.00000000    0.00000000    0.00000000
     atom   30 type  1   force =     0.00000000    0.00000000    0.00000000
     atom   31 type  2   force =     0.00000000    0.00000000    0.00000000
     atom   32 type  2   force =     0.00000000    0.00000000    0.00000000
     atom   33 type  1   force =     0.00000000    0.00000000    0.00000000
     atom   34 type  2   force =     0.00000000    0.00000000    0.00000000
     atom   35 type  2   force =     0.00000000    0.00000000    0.00000000
     atom   36 type  3   force =     0.00000000    0.00000000    0.00000000
     The SCF correction term to forces
     atom    1 type  1   force =    -0.00032762   -0.00027676    0.00048468
     atom    2 type  2   force =    -0.00031550    0.00008232    0.00017571
     atom    3 type  2   force =    -0.00001981   -0.00007476    0.00023815
     atom    4 type  1   force =    -0.00038244   -0.00065916    0.00027756
     atom    5 type  2   force =    -0.00032062   -0.00024263    0.00047955
     atom    6 type  2   force =    -0.00004788   -0.00005812    0.00004220
     atom    7 type  1   force =    -0.00020750    0.00015621    0.00016206
     atom    8 type  2   force =     0.00005363   -0.00007756    0.00019115
     atom    9 type  2   force =     0.00008052   -0.00011798    0.00001951
     atom   10 type  1   force =    -0.00008907    0.00049290   -0.00004086
     atom   11 type  2   force =    -0.00016096    0.00036734    0.00039006
     atom   12 type  2   force =     0.00005300    0.00034096    0.00006376
     atom   13 type  1   force =     0.00013737   -0.00020420    0.00027934
     atom   14 type  2   force =     0.00009738    0.00006495    0.00030907
     atom   15 type  2   force =    -0.00007448   -0.00005063    0.00024702
     atom   16 type  1   force =    -0.00016483   -0.00059878    0.00051410
     atom   17 type  2   force =     0.00022621   -0.00017978    0.00044218
     atom   18 type  2   force =     0.00010647   -0.00014334    0.00011693
     atom   19 type  1   force =     0.00001091    0.00025052    0.00016591
     atom   20 type  2   force =    -0.00010805   -0.00016437    0.00003306
     atom   21 type  1   force =    -0.00009157    0.00073004    0.00025386
     atom   22 type  2   force =     0.00006553    0.00020232    0.00028654
     atom   23 type  2   force =    -0.00008275    0.00021495    0.00017143
     atom   24 type  1   force =     0.00011799   -0.00003993    0.00001263
     atom   25 type  2   force =     0.00027636    0.00006849    0.00033071
     atom   26 type  2   force =     0.00004288   -0.00004539    0.00007278
     atom   27 type  1   force =     0.00024721   -0.00054135    0.00016916
     atom   28 type  2   force =     0.00009195   -0.00012893    0.00019711
     atom   29 type  2   force =    -0.00002513   -0.00011794    0.00013919
     atom   30 type  1   force =     0.00010275    0.00023037   -0.00004157
     atom   31 type  2   force =     0.00013382   -0.00003784    0.00027028
     atom   32 type  2   force =     0.00002303    0.00005373    0.00003717
     atom   33 type  1   force =     0.00023629    0.00024080   -0.00004520
     atom   34 type  2   force =     0.00010928    0.00001271    0.00024613
     atom   35 type  2   force =     0.00000723    0.00016421    0.00009809
     atom   36 type  3   force =     0.00000695   -0.00002777    0.00005993

     Total force =     0.085758     Total SCF correction =     0.002419
     Energy error            =      1.5E-02 Ry
     Gradient error          =      3.1E-02 Ry/Bohr

     number of scf cycles    =   2
     number of bfgs steps    =   1

     energy             old  =   -2205.5265939589 Ry
     energy             new  =   -2205.5414024632 Ry

     CASE: energy            _new < energy            _old

     new trust radius        =       0.0703000448 bohr
     new conv_thr            =       0.0000000309 Ry


ATOMIC_POSITIONS (angstrom)
Mo            6.5818127902        1.7550965530        2.8289237798
S             8.1602764088        0.8277856164        4.4336627973
S             8.1790925385        0.8232273921        1.2668040042
Mo            8.1285948932        4.5261900473        2.6835351715
S             6.4590454900        3.6867705877        4.3924301641
S             6.5625837495        3.5262046023        1.1222076541
Mo            6.5031415626        7.2016677943        2.6610300702
S             8.0882074689        6.3435441179        4.2699313068
S             8.1000998359        6.3111846192        1.0973059999
Mo            8.1497478484        9.9161222540        2.8187134544
S             6.5012109219        8.9381994104        4.3709808341
S             6.6133821341        9.0505524483        1.1449275683
Mo            3.4296708466        1.7537647857        2.7694916069
S             4.9847697653        0.8160286761        4.3681993024
S             5.0429630255        0.8508751350        1.2137748139
Mo            4.9672316950        4.5282352371        2.6014466188
S             3.4363932772        3.6713538090        4.2835401673
S             3.4304835761        3.5413488562        1.0738558328
Mo            3.4607755758        7.2068270679        2.6286779079
S             4.9879031949        6.3218598394        1.0313328559
Mo            5.0059783290        9.9096834974        2.7444365756
S             3.4683326018        8.9401438128        4.3199296982
S             3.4085496908        9.0672086535        1.1061174573
Mo            0.2829282659        1.7439868640        2.8287708373
S             1.8709678509        0.8167935243        4.4033698836
S             1.8457385765        0.8524767711        1.2021289038
Mo            1.8504410006        4.4996755665        2.6721804123
S             0.2709475717        3.6531830972        4.3238227741
S             0.2343583303        3.5276070530        1.1645401930
Mo            0.2677967069        7.2285736334        2.7014705216
S             1.9029656625        6.3140250797        4.2437459551
S             1.8499774417        6.3171109115        1.0552103606
Mo            1.8578216563        9.9358564144        2.7672051559
S             0.2980787128        9.0351111223        4.3946150644
S             0.2658893647        9.0538752293        1.1673062385
H             5.2779442070        3.6317629975        5.1351256349



     Writing config-only to output data dir ./MoS2-V-O.save/
     NEW-OLD atomic charge density approx. for the potential

     negative rho (up, down):  1.510E-04 0.000E+00

     total cpu time spent up to now is      176.4 secs

     Self-consistent Calculation

     iteration #  1     ecut=    80.00 Ry     beta= 0.70
     Davidson diagonalization with overlap
     ethr =  1.00E-06,  avg # of iterations = 10.0

     negative rho (up, down):  1.318E-04 0.000E+00

     total cpu time spent up to now is      191.0 secs

     total energy              =   -2205.55175636 Ry
     estimated scf accuracy    <       0.00303881 Ry

     iteration #  2     ecut=    80.00 Ry     beta= 0.70
     Davidson diagonalization with overlap
     ethr =  9.90E-07,  avg # of iterations =  2.0

     negative rho (up, down):  1.205E-04 0.000E+00

     total cpu time spent up to now is      204.9 secs

     total energy              =   -2205.55190946 Ry
     estimated scf accuracy    <       0.00056713 Ry

     iteration #  3     ecut=    80.00 Ry     beta= 0.70
     Davidson diagonalization with overlap
     ethr =  1.85E-07,  avg # of iterations =  5.0

     negative rho (up, down):  1.120E-04 0.000E+00

     total cpu time spent up to now is      223.8 secs

     total energy              =   -2205.55195357 Ry
     estimated scf accuracy    <       0.00014009 Ry

     iteration #  4     ecut=    80.00 Ry     beta= 0.70
     Davidson diagonalization with overlap
     ethr =  4.56E-08,  avg # of iterations =  6.0

     negative rho (up, down):  1.073E-04 0.000E+00

     total cpu time spent up to now is      236.9 secs

     total energy              =   -2205.55197582 Ry
     estimated scf accuracy    <       0.00001505 Ry

     iteration #  5     ecut=    80.00 Ry     beta= 0.70
     Davidson diagonalization with overlap
     ethr =  4.90E-09,  avg # of iterations =  5.0

     negative rho (up, down):  1.057E-04 0.000E+00

     total cpu time spent up to now is      249.5 secs

     total energy              =   -2205.55198097 Ry
     estimated scf accuracy    <       0.00000337 Ry

     iteration #  6     ecut=    80.00 Ry     beta= 0.70
     Davidson diagonalization with overlap
     ethr =  1.10E-09,  avg # of iterations =  2.0

     negative rho (up, down):  1.058E-04 0.000E+00

     total cpu time spent up to now is      268.1 secs

     total energy              =   -2205.55198121 Ry
     estimated scf accuracy    <       0.00000059 Ry

     iteration #  7     ecut=    80.00 Ry     beta= 0.70
     Davidson diagonalization with overlap
     ethr =  1.92E-10,  avg # of iterations =  6.0

     negative rho (up, down):  1.083E-04 0.000E+00

     total cpu time spent up to now is      288.3 secs

     total energy              =   -2205.55198131 Ry
     estimated scf accuracy    <       0.00000010 Ry

     iteration #  8     ecut=    80.00 Ry     beta= 0.70
     Davidson diagonalization with overlap
     ethr =  3.38E-11,  avg # of iterations =  6.0

     negative rho (up, down):  1.383E-04 0.000E+00

     total cpu time spent up to now is      290.9 secs

     End of self-consistent calculation

          k = 0.0000 0.0000 0.0000 (105382 PWs)   bands (ev):

   -62.8749 -62.8570 -62.8466 -62.8335 -62.8281 -62.8048 -62.7888 -62.7775
   -62.7454 -62.7362 -62.6860 -62.5596 -37.2047 -37.1297 -37.1261 -37.1126
   -37.1052 -37.0851 -37.0631 -37.0567 -37.0467 -37.0362 -37.0290 -37.0178
   -37.0099 -37.0048 -36.9935 -36.9865 -36.9797 -36.9764 -36.9742 -36.9600
   -36.9352 -36.9130 -36.9013 -36.8959 -36.8900 -36.8720 -36.8587 -36.8421
   -36.8372 -36.8304 -36.8132 -36.7952 -36.7516 -36.6992 -36.6478 -36.6286
   -16.1365 -15.6424 -15.0977 -15.0402 -14.9297 -14.8347 -14.6795 -14.4899
   -14.4231 -14.3852 -14.3678 -14.3104 -14.3001 -14.2847 -14.1756 -14.1193
   -14.0819 -14.0723 -14.0224 -13.8464 -13.8255 -13.8055 -13.7810  -8.8124
    -7.5910  -7.4387  -7.2710  -7.2471  -7.1785  -7.1622  -7.1349  -7.0405
    -6.7993  -6.7687  -6.7184  -6.6916  -6.5720  -6.4977  -6.4109  -6.3774
    -6.3465  -6.1936  -6.1249  -5.9395  -5.8900  -5.8787  -5.8549  -5.7642
    -5.7230  -5.7051  -5.6588  -5.6515  -5.5988  -5.5740  -5.5136  -5.4610
    -5.3543  -5.3265  -5.1207  -5.0742  -5.0504  -4.9917  -4.9663  -4.9356
    -4.9287  -4.8664  -4.6272  -4.5853  -4.3894  -4.3117  -4.2493  -4.2141
    -4.1744  -4.0513  -4.0043  -3.8835  -3.7974  -3.7346  -3.7120  -3.6608
    -3.6321  -3.5713  -3.5258  -3.4942  -3.4606  -3.4475  -3.4034  -3.3841
    -3.3342  -3.1753  -3.1371  -2.8994  -2.8476  -2.7535  -2.7434  -2.6965
    -2.6774  -2.6408  -2.6402  -2.5901  -2.5241  -2.2409  -2.0068  -1.9565
    -1.9022  -0.9040  -0.7098  -0.6274  -0.1640  -0.1300  -0.0243   0.0815
     0.0824   0.1363   0.1984   0.2277   0.3016   0.3258   0.3811   0.4399
     0.4884   0.5534   0.5869   0.6369   0.6786   0.6961   0.7380   0.7524
     0.8121   0.8588   0.8744   0.9135   0.9940   1.0145   1.1176   1.3117
     1.4049

     the Fermi energy is    -0.9091 ev

!    total energy              =   -2205.55198118 Ry
     estimated scf accuracy    <       0.00000003 Ry
     smearing contrib. (-TS)   =      -0.00637166 Ry
     internal energy E=F+TS    =   -2205.54560952 Ry

     The total energy is F=E-TS. E is the sum of the following terms:
     one-electron contribution =  -18048.21652911 Ry
     hartree contribution      =    9011.16023921 Ry
     xc contribution           =    -385.35546544 Ry
     ewald contribution        =    7216.86614582 Ry

     convergence has been achieved in   8 iterations

     negative rho (up, down):  1.383E-04 0.000E+00

     Forces acting on atoms (cartesian axes, Ry/au):

     atom    1 type  1   force =    -0.00645022   -0.00151383   -0.00267479
     atom    2 type  2   force =    -0.00265581    0.00262564   -0.00194009
     atom    3 type  2   force =    -0.00808236    0.00483589   -0.01131953
     atom    4 type  1   force =     0.00063560    0.00624331    0.00003609
     atom    5 type  2   force =     0.00353715   -0.00805894    0.00292076
     atom    6 type  2   force =     0.00684137    0.00439070    0.00328678
     atom    7 type  1   force =     0.00848616   -0.00574317   -0.00094523
     atom    8 type  2   force =     0.00293279   -0.00304663    0.00950589
     atom    9 type  2   force =     0.01160762    0.00904120   -0.00344638
     atom   10 type  1   force =     0.00083655    0.00525107    0.00161258
     atom   11 type  2   force =     0.00290092   -0.00298817   -0.00926214
     atom   12 type  2   force =    -0.00477425    0.00036355   -0.00052713
     atom   13 type  1   force =     0.00172230    0.00128475    0.00020868
     atom   14 type  2   force =     0.00145427   -0.00236769    0.00513830
     atom   15 type  2   force =    -0.00467084    0.00106499   -0.00496916
     atom   16 type  1   force =    -0.00439087   -0.00054955    0.00610493
     atom   17 type  2   force =    -0.00108258    0.00509658   -0.00678917
     atom   18 type  2   force =    -0.00558634   -0.00123925    0.00138783
     atom   19 type  1   force =     0.00166350   -0.00750395    0.00235402
     atom   20 type  2   force =     0.00254205    0.00106127   -0.00953005
     atom   21 type  1   force =    -0.00176556    0.00233684    0.00172015
     atom   22 type  2   force =     0.00007104   -0.00205065   -0.00253915
     atom   23 type  2   force =     0.00137065   -0.00077839    0.00229697
     atom   24 type  1   force =    -0.00340727    0.00051957   -0.00111526
     atom   25 type  2   force =     0.00517933    0.00836250   -0.00429279
     atom   26 type  2   force =    -0.00301386   -0.00108007   -0.00255735
     atom   27 type  1   force =     0.00110563   -0.00083516    0.00624123
     atom   28 type  2   force =    -0.00537358   -0.00049282   -0.00789984
     atom   29 type  2   force =     0.00489614    0.00131006   -0.00839184
     atom   30 type  1   force =    -0.00026401   -0.00216213    0.00615886
     atom   31 type  2   force =     0.00105991    0.00063607    0.00698516
     atom   32 type  2   force =    -0.00414684    0.00394196    0.00490971
     atom   33 type  1   force =    -0.00097874    0.00161509    0.00416245
     atom   34 type  2   force =    -0.00184911   -0.01454483   -0.01219303
     atom   35 type  2   force =    -0.00290499    0.00678897    0.00233317
     atom   36 type  3   force =     0.00255427   -0.01181479    0.02302938
     The non-local contrib.  to forces
     atom    1 type  1   force =     0.00283600    0.02582559   -0.01625536
     atom    2 type  2   force =    -0.00296311   -0.00460068   -0.26614408
     atom    3 type  2   force =    -0.00792571   -0.00960605    0.26253575
     atom    4 type  1   force =     0.00483313    0.00447187    0.00335190
     atom    5 type  2   force =    -0.21600475   -0.06613050   -0.07271660
     atom    6 type  2   force =    -0.00074040    0.00499283    0.27208614
     atom    7 type  1   force =    -0.02225650   -0.00224669   -0.02173216
     atom    8 type  2   force =     0.01094488    0.01333754   -0.25103610
     atom    9 type  2   force =     0.00609121   -0.00900169    0.26516160
     atom   10 type  1   force =     0.00307090   -0.00073816   -0.00157928
     atom   11 type  2   force =     0.01079799    0.00369598   -0.26332262
     atom   12 type  2   force =    -0.01262011   -0.01815137    0.26140880
     atom   13 type  1   force =     0.00228628    0.02054182   -0.00799799
     atom   14 type  2   force =     0.00438835   -0.00597796   -0.26190922
     atom   15 type  2   force =    -0.00641333   -0.00634564    0.26266824
     atom   16 type  1   force =     0.00797420    0.04912361   -0.00902319
     atom   17 type  2   force =    -0.00131550   -0.03095781   -0.20364258
     atom   18 type  2   force =    -0.00476115    0.00078452    0.26672668
     atom   19 type  1   force =     0.01885152   -0.00157511   -0.01719391
     atom   20 type  2   force =    -0.00167446   -0.01522076    0.25935937
     atom   21 type  1   force =    -0.00062158    0.02561558    0.00363436
     atom   22 type  2   force =    -0.00278766    0.00206363   -0.25871541
     atom   23 type  2   force =     0.00857198   -0.01647329    0.26340888
     atom   24 type  1   force =     0.00539342    0.01117073   -0.00815457
     atom   25 type  2   force =     0.00079124   -0.00077094   -0.26672026
     atom   26 type  2   force =     0.00307404   -0.01186848    0.26659947
     atom   27 type  1   force =    -0.00587747    0.00725356    0.00812846
     atom   28 type  2   force =     0.00101937   -0.02292437   -0.26787738
     atom   29 type  2   force =     0.00621661    0.00431288    0.26374526
     atom   30 type  1   force =    -0.00242156    0.02080839    0.00756656
     atom   31 type  2   force =    -0.00589294    0.00621492   -0.25818274
     atom   32 type  2   force =     0.00116190   -0.01296622    0.27076301
     atom   33 type  1   force =    -0.00268191    0.00355837    0.00412873
     atom   34 type  2   force =    -0.00464518   -0.01340542   -0.27659662
     atom   35 type  2   force =     0.00000750   -0.00992429    0.26374091
     atom   36 type  3   force =     0.04313180    0.00062670   -0.02925577
     The ionic contribution  to forces
     atom    1 type  1   force =     0.38589691    1.15950150    5.54820277
     atom    2 type  2   force =    -0.17693114    0.14191811   39.43349675
     atom    3 type  2   force =    -0.11533094    0.06202754  -36.37295134
     atom    4 type  1   force =    -0.89720384   -0.30357378   -0.22799129
     atom    5 type  2   force =     0.78637881    1.84561001   37.62698680
     atom    6 type  2   force =     0.34698730   -0.72434170  -37.66070147
     atom    7 type  1   force =    -2.83654666   -2.31561135    2.39144864
     atom    8 type  2   force =    -1.09399454   -0.04852365   37.79214593
     atom    9 type  2   force =     0.28409098    0.15665549  -38.13416505
     atom   10 type  1   force =    -0.63475112   -0.39784596    5.17191986
     atom   11 type  2   force =    -0.51850782   -1.65299266   38.98267696
     atom   12 type  2   force =     0.27611935    0.59487113  -37.76260997
     atom   13 type  1   force =     0.08418822    0.62011182    2.47343970
     atom   14 type  2   force =    -0.14619164   -0.31359201   38.67130425
     atom   15 type  2   force =     0.17732727   -0.03350003  -36.99580023
     atom   16 type  1   force =     0.68766018    3.56838245   -1.34549670
     atom   17 type  2   force =     0.20178791    1.52601450   37.58965505
     atom   18 type  2   force =    -0.30401406   -0.65900261  -38.49860938
     atom   19 type  1   force =     2.68582400   -2.14027933    0.69851500
[...]
     atom   27 type  1   force =    -0.00710020    0.00719113    0.00828942
     atom   28 type  2   force =     0.01140944   -0.01594398   -0.26245327
     atom   29 type  2   force =    -0.00163863   -0.00260513    0.26879723
     atom   30 type  1   force =    -0.00152759    0.01914425    0.00623640
     atom   31 type  2   force =    -0.00449742    0.00239647   -0.26417289
     atom   32 type  2   force =     0.00243638   -0.01784667    0.26858919
     atom   33 type  1   force =    -0.00241590    0.00292195    0.00384174
     atom   34 type  2   force =     0.00005225   -0.00575718   -0.27179714
     atom   35 type  2   force =    -0.00065513   -0.01262769    0.26480870
     atom   36 type  3   force =     0.02879801    0.02229274   -0.04222403
     The ionic contribution  to forces
     atom    1 type  1   force =     0.34859488    1.32077374    3.72144281
     atom    2 type  2   force =     0.07235123   -0.03158053   38.87964779
     atom    3 type  2   force =    -0.05710881    0.01428469  -37.39143826
     atom    4 type  1   force =    -1.37729836   -0.62729252   -1.65091273
     atom    5 type  2   force =     0.92384388    2.26791873   37.78583496
     atom    6 type  2   force =    -0.05124626   -0.43657583  -37.22837731
     atom    7 type  1   force =    -3.22182179   -1.88477405    1.42100707
     atom    8 type  2   force =    -1.20955757   -0.01750455   38.17317772
     atom    9 type  2   force =     0.19548003    0.17206593  -38.60178542
     atom   10 type  1   force =    -0.42171296   -0.40447353    2.89210656
     atom   11 type  2   force =    -0.52185515   -1.55513850   38.44494596
     atom   12 type  2   force =     0.04684993    0.36544519  -37.94909574
     atom   13 type  1   force =    -0.05902664    0.38937057    2.27063018
     atom   14 type  2   force =    -0.18925480   -0.54393112   38.52264750
     atom   15 type  2   force =     0.02124608   -0.06117726  -37.36151920
     atom   16 type  1   force =     0.97792187    3.90005541    3.94943488
     atom   17 type  2   force =     0.24346323    1.18382175   38.24403560
     atom   18 type  2   force =    -0.03051704   -0.31161499  -37.92176364
     atom   19 type  1   force =     2.92441470   -1.67493345    3.07219631
     atom   20 type  2   force =    -0.00663901   -0.11467313  -38.21134836
     atom   21 type  1   force =    -0.02718060   -0.63160994    1.33744553
     atom   22 type  2   force =     0.41855066   -1.45741788   38.50108578
     atom   23 type  2   force =    -0.15363428    0.25766219  -37.77472146
     atom   24 type  1   force =    -0.04645457    0.48585385    2.02791763
     atom   25 type  2   force =     0.02554593   -0.00896017   38.74981617
     atom   26 type  2   force =    -0.02792032   -0.05789701  -37.50085869
     atom   27 type  1   force =     0.11682479    0.42135366   -0.03265270
     atom   28 type  2   force =    -0.26195758    0.50090107   37.74154418
     atom   29 type  2   force =     0.08340165   -0.36447154  -38.00762295
     atom   30 type  1   force =     0.28870334   -0.42634542    1.43435452
     atom   31 type  2   force =     1.07673676    0.22611661   38.15622466
     atom   32 type  2   force =    -0.11313438    0.06026443  -37.94578471
     atom   33 type  1   force =     0.56188956   -0.44745775    2.68277257
     atom   34 type  2   force =     0.02132549   -0.51028011   38.81813371
     atom   35 type  2   force =     0.03769458    0.28148391  -37.57057225
     atom   36 type  3   force =    -0.60851843   -0.27926244    8.32205131
     The local contribution  to forces
     atom    1 type  1   force =    -0.34838734   -1.34134100   -3.71094849
     atom    2 type  2   force =    -0.06545322    0.03862964  -38.64019013
     atom    3 type  2   force =     0.05724701   -0.00221938   37.14584502
     atom    4 type  1   force =     1.37312305    0.62168133    1.65291590
     atom    5 type  2   force =    -0.73280566   -2.09222936  -37.80677213
     atom    6 type  2   force =     0.05147399    0.44064480   36.97854704
     atom    7 type  1   force =     3.23726949    1.88497356   -1.40507626
     atom    8 type  2   force =     1.19786016    0.00073718  -37.94106086
     atom    9 type  2   force =    -0.19122000   -0.15770546   38.35733848
     atom   10 type  1   force =     0.41676301    0.40150790   -2.89375205
     atom   11 type  2   force =     0.51664269    1.55146341  -38.20693610
     atom   12 type  2   force =    -0.04224806   -0.35058860   37.70640411
     atom   13 type  1   force =     0.05613689   -0.41001361   -2.26491106
     atom   14 type  2   force =     0.19038883    0.55155719  -38.29059400
     atom   15 type  2   force =    -0.02142061    0.07209368   37.11793532
     atom   16 type  1   force =    -0.98572123   -3.94014454   -3.91701130
     atom   17 type  2   force =    -0.24066529   -1.15930883  -38.02341057
     atom   18 type  2   force =     0.03442206    0.31460897   37.67826090
     atom   19 type  1   force =    -2.94702726    1.67192803   -3.04909233
     atom   20 type  2   force =     0.00596471    0.12244327   37.96886943
     atom   21 type  1   force =     0.02913668    0.60754443   -1.34014972
     atom   22 type  2   force =    -0.41519593    1.45768083  -38.26469355
     atom   23 type  2   force =     0.14531637   -0.24541130   37.53285672
     atom   24 type  1   force =     0.04521169   -0.49893638   -2.02807730
     atom   25 type  2   force =    -0.02456391    0.01760797  -38.50669350
     atom   26 type  2   force =     0.02473220    0.06548695   37.25396697
     atom   27 type  1   force =    -0.10969829   -0.42766230    0.02415703
     atom   28 type  2   force =     0.25130825   -0.48550658  -37.49954505
     atom   29 type  2   force =    -0.08078163    0.36694287   37.75931826
     atom   30 type  1   force =    -0.28680479    0.40674970   -1.44010172
     atom   31 type  2   force =    -1.07244639   -0.22884256  -37.91227968
     atom   32 type  2   force =     0.11021783   -0.04363159   37.69882844
     atom   33 type  1   force =    -0.55965681    0.44519275   -2.68636470
     atom   34 type  2   force =    -0.02134640    0.51680731  -38.56764161
     atom   35 type  2   force =    -0.03673557   -0.26862415   37.32665707
     atom   36 type  3   force =     0.57922075    0.25599037   -8.28108731
     The core correction contribution to forces
     atom    1 type  1   force =     0.00000000    0.00000000    0.00000000
     atom    2 type  2   force =     0.00049710    0.00020268    0.02048756
     atom    3 type  2   force =    -0.00011278    0.00064630   -0.02093452
     atom    4 type  1   force =     0.00000000    0.00000000    0.00000000
     atom    5 type  2   force =     0.01334788    0.01151516    0.00116640
     atom    6 type  2   force =    -0.00024531   -0.00036780   -0.02111908
     atom    7 type  1   force =     0.00000000    0.00000000    0.00000000
     atom    8 type  2   force =    -0.00054395   -0.00067841    0.02027881
     atom    9 type  2   force =     0.00051326    0.00109332   -0.02097467
     atom   10 type  1   force =     0.00000000    0.00000000    0.00000000
     atom   11 type  2   force =    -0.00007426   -0.00058664    0.02051152
     atom   12 type  2   force =     0.00045962    0.00108282   -0.02076732
     atom   13 type  1   force =     0.00000000    0.00000000    0.00000000
     atom   14 type  2   force =    -0.00018843   -0.00023111    0.01995854
     atom   15 type  2   force =     0.00006581    0.00067275   -0.02079141
     atom   16 type  1   force =     0.00000000    0.00000000    0.00000000
     atom   17 type  2   force =    -0.00014053    0.00105258    0.01960774
     atom   18 type  2   force =     0.00024976   -0.00027092   -0.02077449
     atom   19 type  1   force =     0.00000000    0.00000000    0.00000000
     atom   20 type  2   force =    -0.00001991    0.00018655   -0.02110909
     atom   21 type  1   force =     0.00000000    0.00000000    0.00000000
     atom   22 type  2   force =    -0.00006130   -0.00011898    0.02046094
     atom   23 type  2   force =    -0.00068333    0.00089142   -0.02072324
     atom   24 type  1   force =     0.00000000    0.00000000    0.00000000
     atom   25 type  2   force =    -0.00004188    0.00037698    0.02065662
     atom   26 type  2   force =    -0.00019774    0.00037576   -0.02093391
     atom   27 type  1   force =     0.00000000    0.00000000    0.00000000
     atom   28 type  2   force =    -0.00069467    0.00101015    0.02065076
     atom   29 type  2   force =     0.00017805   -0.00023958   -0.02084945
     atom   30 type  1   force =     0.00000000    0.00000000    0.00000000
     atom   31 type  2   force =     0.00015893    0.00011061    0.02073732
     atom   32 type  2   force =    -0.00033004    0.00091726   -0.02090352
     atom   33 type  1   force =     0.00000000    0.00000000    0.00000000
     atom   34 type  2   force =    -0.00003339    0.00016118    0.02111751
     atom   35 type  2   force =    -0.00002400    0.00074122   -0.02084725
     atom   36 type  3   force =     0.00000000    0.00000000    0.00000000
     The Hubbard contrib.    to forces
     atom    1 type  1   force =     0.00000000    0.00000000    0.00000000
     atom    2 type  2   force =     0.00000000    0.00000000    0.00000000
     atom    3 type  2   force =     0.00000000    0.00000000    0.00000000
     atom    4 type  1   force =     0.00000000    0.00000000    0.00000000
     atom    5 type  2   force =     0.00000000    0.00000000    0.00000000
     atom    6 type  2   force =     0.00000000    0.00000000    0.00000000
     atom    7 type  1   force =     0.00000000    0.00000000    0.00000000
     atom    8 type  2   force =     0.00000000    0.00000000    0.00000000
     atom    9 type  2   force =     0.00000000    0.00000000    0.00000000
     atom   10 type  1   force =     0.00000000    0.00000000    0.00000000
     atom   11 type  2   force =     0.00000000    0.00000000    0.00000000
     atom   12 type  2   force =     0.00000000    0.00000000    0.00000000
     atom   13 type  1   force =     0.00000000    0.00000000    0.00000000
     atom   14 type  2   force =     0.00000000    0.00000000    0.00000000
     atom   15 type  2   force =     0.00000000    0.00000000    0.00000000
     atom   16 type  1   force =     0.00000000    0.00000000    0.00000000
     atom   17 type  2   force =     0.00000000    0.00000000    0.00000000
     atom   18 type  2   force =     0.00000000    0.00000000    0.00000000
     atom   19 type  1   force =     0.00000000    0.00000000    0.00000000
     atom   20 type  2   force =     0.00000000    0.00000000    0.00000000
     atom   21 type  1   force =     0.00000000    0.00000000    0.00000000
     atom   22 type  2   force =     0.00000000    0.00000000    0.00000000
     atom   23 type  2   force =     0.00000000    0.00000000    0.00000000
     atom   24 type  1   force =     0.00000000    0.00000000    0.00000000
     atom   25 type  2   force =     0.00000000    0.00000000    0.00000000
     atom   26 type  2   force =     0.00000000    0.00000000    0.00000000
     atom   27 type  1   force =     0.00000000    0.00000000    0.00000000
     atom   28 type  2   force =     0.00000000    0.00000000    0.00000000
     atom   29 type  2   force =     0.00000000    0.00000000    0.00000000
     atom   30 type  1   force =     0.00000000    0.00000000    0.00000000
     atom   31 type  2   force =     0.00000000    0.00000000    0.00000000
     atom   32 type  2   force =     0.00000000    0.00000000    0.00000000
     atom   33 type  1   force =     0.00000000    0.00000000    0.00000000
     atom   34 type  2   force =     0.00000000    0.00000000    0.00000000
     atom   35 type  2   force =     0.00000000    0.00000000    0.00000000
     atom   36 type  3   force =     0.00000000    0.00000000    0.00000000
     The SCF correction term to forces
     atom    1 type  1   force =    -0.00000870   -0.00002872   -0.00005896
     atom    2 type  2   force =     0.00001145   -0.00002163   -0.00002157
     atom    3 type  2   force =     0.00000856   -0.00001233   -0.00000262
     atom    4 type  1   force =     0.00002016    0.00000713   -0.00007356
     atom    5 type  2   force =    -0.00000892    0.00001036   -0.00002341
     atom    6 type  2   force =    -0.00001447    0.00000721   -0.00000943
     atom    7 type  1   force =    -0.00002826    0.00004144   -0.00004652
     atom    8 type  2   force =    -0.00000217    0.00001991   -0.00002645
     atom    9 type  2   force =    -0.00000329    0.00001200   -0.00001677
     atom   10 type  1   force =     0.00001993   -0.00003103   -0.00002667
     atom   11 type  2   force =    -0.00000439    0.00000347   -0.00003422
     atom   12 type  2   force =    -0.00000192   -0.00000443    0.00000791
     atom   13 type  1   force =    -0.00002371   -0.00002543   -0.00006816
     atom   14 type  2   force =    -0.00000858   -0.00003012   -0.00002955
     atom   15 type  2   force =    -0.00001099   -0.00001148   -0.00000403
     atom   16 type  1   force =    -0.00003010    0.00002944   -0.00007313
     atom   17 type  2   force =    -0.00000890    0.00000819   -0.00005256
     atom   18 type  2   force =    -0.00000279    0.00000742    0.00000049
     atom   19 type  1   force =    -0.00000860    0.00002895   -0.00003631
     atom   20 type  2   force =    -0.00000650    0.00000255    0.00000935
     atom   21 type  1   force =    -0.00002657   -0.00003987   -0.00003366
     atom   22 type  2   force =    -0.00000788    0.00000414   -0.00003660
     atom   23 type  2   force =    -0.00000732    0.00000201    0.00001819
     atom   24 type  1   force =     0.00002939   -0.00002836   -0.00004593
     atom   25 type  2   force =    -0.00000372   -0.00002883   -0.00003399
     atom   26 type  2   force =     0.00000148   -0.00001480    0.00000459
     atom   27 type  1   force =     0.00002217    0.00001222   -0.00006876
     atom   28 type  2   force =     0.00001192   -0.00000573   -0.00003002
     atom   29 type  2   force =     0.00001552   -0.00000151   -0.00001128
     atom   30 type  1   force =     0.00003649    0.00005489   -0.00004646
     atom   31 type  2   force =     0.00001118    0.00001579   -0.00002994
     atom   32 type  2   force =     0.00001089    0.00000254   -0.00000400
     atom   33 type  1   force =     0.00000537   -0.00001741   -0.00003298
     atom   34 type  2   force =     0.00001277    0.00001441   -0.00003341
     atom   35 type  2   force =     0.00001028    0.00000725    0.00000852
     atom   36 type  3   force =     0.00000015    0.00000099   -0.00000273

     Total force =     0.006192     Total SCF correction =     0.000268
     Energy error            =      9.1E-05 Ry
     Gradient error          =      2.1E-03 Ry/Bohr

     bfgs converged in  23 scf cycles and  22 bfgs steps
     (criteria: energy <  1.0E-04 Ry, force <  1.0E-02 Ry/Bohr)

     End of BFGS Geometry Optimization

     Final energy             =   -2205.5822819970 Ry

     File ./MoS2-V-O.bfgs deleted, as requested
Begin final coordinates

ATOMIC_POSITIONS (angstrom)
Mo            6.5485377966        1.7679531629        2.7849511852
S             8.1324863600        0.8613261493        4.3713057614
S             8.1161057468        0.8705769807        1.1766123208
Mo            8.1299136929        4.5562973189        2.6467702230
S             6.4260536220        3.6501792266        4.4492148795
S             6.5311904387        3.5826080744        1.1467343037
Mo            6.5444546079        7.2017898516        2.6400977588
S             8.0914427160        6.3287417184        4.2849542600
S             8.1563649111        6.3558093234        1.0649110794
Mo            8.1314736753        9.9585305473        2.7610180086
S             6.5224148666        8.9495415672        4.3144054015
S             6.5810898473        9.0610098215        1.1131661109
Mo            3.4111171879        1.7679489669        2.7567780318
S             4.9718657504        0.8208493688        4.3530263846
S             4.9958124226        0.8652832608        1.1770785607
Mo            4.9590644233        4.5476955888        2.6992764456
S             3.4111893900        3.6719765311        4.3072685388
S             3.4348601605        3.5752412510        1.1192754917
Mo            3.4750050855        7.1969625745        2.6712907082
S             4.9951690002        6.3085416625        1.0592517244
Mo            4.9897548693        9.9239334296        2.7295501098
S             3.4578585798        8.9658159016        4.3188556729
S             3.4028399451        9.0482655403        1.1249480830
Mo            0.2435981769        1.7688771101        2.7541119516
S             1.8312414046        0.8672966256        4.3577902820
S             1.8335388609        0.8612541752        1.1657524670
Mo            1.8436429475        4.5077710517        2.6981024529
S             0.2256524833        3.6454682633        4.2773157362
S             0.2504174372        3.5779058056        1.1095423351
Mo            0.2674889938        7.2400729597        2.7153700111
S             1.8972860223        6.3203586777        4.2882791622
S             1.8621034361        6.3447748704        1.0993907908
Mo            1.8433426496        9.9550247068        2.7574873577
S             0.2611980888        9.0399483714        4.3476072871
S             0.2599582818        9.0767929920        1.1578504381
H             5.6905686888        3.0814896496        5.4914062602
End final coordinates



     Writing all to output data dir ./MoS2-V-O.save/
 
     init_run     :      2.37s CPU      2.67s WALL (       1 calls)
     electrons    :   2042.95s CPU   2278.33s WALL (      23 calls)
     update_pot   :     32.08s CPU     33.87s WALL (      22 calls)
     forces       :     32.14s CPU     37.66s WALL (      23 calls)

     Called by init_run:
     wfcinit      :      0.38s CPU      0.44s WALL (       1 calls)
     potinit      :      1.31s CPU      1.44s WALL (       1 calls)
     hinit0       :      0.16s CPU      0.19s WALL (       1 calls)

     Called by electrons:
     c_bands      :    264.82s CPU    269.42s WALL (     189 calls)
     sum_band     :     55.26s CPU     73.99s WALL (     189 calls)
     v_of_rho     :     91.44s CPU    111.60s WALL (     200 calls)
     newd         :     26.80s CPU     43.42s WALL (     200 calls)
     mix_rho      :   1615.40s CPU   1791.02s WALL (     189 calls)

     Called by c_bands:
     init_us_2    :      4.01s CPU      4.35s WALL (     379 calls)
     init_us_2:cp :      4.00s CPU      4.35s WALL (     379 calls)
     regterg      :    250.72s CPU    254.95s WALL (     189 calls)

     Called by *egterg:
     rdiaghg      :     19.34s CPU     19.59s WALL (    1066 calls)
     h_psi        :    132.69s CPU    133.99s WALL (    1101 calls)
     s_psi        :     15.86s CPU     15.92s WALL (    1101 calls)
     g_psi        :      1.58s CPU      1.59s WALL (     911 calls)

     Called by h_psi:
     h_psi:calbec :     19.42s CPU     19.53s WALL (    1101 calls)
     vloc_psi     :     93.98s CPU     95.01s WALL (    1101 calls)
     add_vuspsi   :     15.83s CPU     15.96s WALL (    1101 calls)

     General routines
     calbec       :     27.51s CPU     27.64s WALL (    1382 calls)
     fft          :     58.91s CPU     68.90s WALL (   13545 calls)
     ffts         :    727.19s CPU    897.09s WALL (  393577 calls)
     fftw         :     79.45s CPU     80.22s WALL (  117303 calls)
     interpolate  :      1.45s CPU      1.70s WALL (     200 calls)
 
     Parallel routines
 
     PWSCF        :  35m13.74s CPU  39m19.75s WALL

 
   This run was terminated on:   1:28:22   4Nov2023            

=------------------------------------------------------------------------------=
   JOB DONE.
=------------------------------------------------------------------------------=
