
     Program PWSCF v.7.2 starts on  4Nov2023 at 11: 6:48 

     This program is part of the open-source Quantum ESPRESSO suite
     for quantum simulation of materials; please cite
         "P. Giannozzi et al., J. Phys.:Condens. Matter 21 395502 (2009);
         "P. Giannozzi et al., J. Phys.:Condens. Matter 29 465901 (2017);
         "P. Giannozzi et al., J. Chem. Phys. 152 154105 (2020);
          URL http://www.quantum-espresso.org", 
     in publications or presentations arising from this work. More details at
     http://www.quantum-espresso.org/quote

     Parallel version (MPI & OpenMP), running on      48 processor cores
     Number of MPI processes:                48
     Threads/MPI process:                     1

     MPI processes distributed on     1 nodes
     16404 MiB available memory on the printing compute node when the environment starts
 
     Waiting for input...
     Reading input from standard input
Warning: card &CELL ignored
Warning: card CELL_DYNAMICS = 'BFGS', ignored
Warning: card CELL_DOFREE = '2DXY' ignored
Warning: card / ignored

     Current dimensions of program PWSCF are:
     Max number of different atomic species (ntypx) = 10
     Max number of k-points (npk) =  40000
     Max angular momentum in pseudopotentials (lmaxx) =  4

     IMPORTANT: XC functional enforced from input :
     Exchange-correlation= RVV10
                           (   1   4  13   4  26   0   0)
     Any further DFT definition will be discarded
     Please, verify this is what you really want


     gamma-point specific algorithms are used
     signal trapping enabled: kill the code with -SIGUSR1 to stop cleanly the simulation 
 
     R & G space division:  proc/nbgrp/npool/nimage =      48
     Subspace diagonalization in iterative solution of the eigenvalue problem:
     one sub-group per band group will be used
     scalapack distributed-memory algorithm (size of sub-group:  2*  2 procs)

 
     Parallelization info
     --------------------
     sticks:   dense  smooth     PW     G-vecs:    dense   smooth      PW
     Min         243     194     47                49060    35090    4376
     Max         246     196     50                49086    35128    4410
     Sum       11735    9389   2349              2355467  1685513  210763
 
     Using Slab Decomposition
 


     bravais-lattice index     =            0
     lattice parameter (alat)  =      17.8707  a.u.
     unit-cell volume          =   17436.2743 (a.u.)^3
     number of atoms/cell      =           36
     number of atomic types    =            3
     number of electrons       =       307.00
     number of Kohn-Sham states=          185
     kinetic-energy cutoff     =      80.0000  Ry
     charge density cutoff     =     400.0000  Ry
     scf convergence threshold =      1.0E-06
     mixing beta               =       0.7000
     number of iterations used =            8  local-TF  mixing
     energy convergence thresh.=      1.0E-04
     force convergence thresh. =      1.0E-02
     Exchange-correlation= RVV10
                           (   1   4  13   4  26   0   0)
     nstep                     =          200


     celldm(1)=  17.870686  celldm(2)=   0.000000  celldm(3)=   0.000000
     celldm(4)=   0.000000  celldm(5)=   0.000000  celldm(6)=   0.000000

     crystal axes: (cart. coord. in units of alat)
               a(1) = (   1.000000   0.000000   0.000000 )  
               a(2) = (   0.000000   1.155671   0.000000 )  
               a(3) = (   0.000000   0.000000   2.643601 )  

     reciprocal axes: (cart. coord. in units 2 pi/alat)
               b(1) = (  1.000000  0.000000  0.000000 )  
               b(2) = (  0.000000  0.865298  0.000000 )  
               b(3) = (  0.000000  0.000000  0.378272 )  


     PseudoPot. # 1 for Mo read from file:
     ../pseudo/Mo_ONCV_PBE-1.0.oncvpsp.upf
     MD5 check sum: 1b5d28e075c9ccadda658a603575cd1f
     Pseudo is Norm-conserving, Zval = 14.0
     Generated using ONCVPSP code by D. R. Hamann
     Using radial grid of 1526 points,  6 beta functions with: 
                l(1) =   0
                l(2) =   0
                l(3) =   1
                l(4) =   1
                l(5) =   2
                l(6) =   2

     PseudoPot. # 2 for S  read from file:
     ../pseudo/s_pbe_v1.4.uspp.F.UPF
     MD5 check sum: 88d86576ff6df21479756cfb9bdac1df
     Pseudo is Ultrasoft + core correction, Zval =  6.0
     Generated by new atomic code, or converted to UPF format
     Using radial grid of  907 points,  6 beta functions with: 
                l(1) =   0
                l(2) =   0
                l(3) =   1
                l(4) =   1
                l(5) =   2
                l(6) =   2
     Q(r) pseudized with  8 coefficients,  rinner =    1.300   1.300   1.300
                                                       1.300   1.300

     PseudoPot. # 3 for H  read from file:
     ../pseudo/H_ONCV_PBE-1.0.oncvpsp.upf
     MD5 check sum: 1790becc920ee074925cf490c71280fe
     Pseudo is Norm-conserving, Zval =  1.0
     Generated using ONCVPSP code by D. R. Hamann
     Using radial grid of 1166 points,  2 beta functions with: 
                l(1) =   0
                l(2) =   0

     atomic species   valence    mass     pseudopotential
        Mo            14.00    95.94000     Mo( 1.00)
        S              6.00    32.06500     S ( 1.00)
        H              1.00     1.00794     H ( 1.00)

     No symmetry found



   Cartesian axes

     site n.     atom                  positions (alat units)
         1           Mo  tau(   1) = (   0.6952221   0.1890506   0.2985846  )
         2           S   tau(   2) = (   0.8646417   0.0856217   0.4689279  )
         3           S   tau(   3) = (   0.8663890   0.0857843   0.1351291  )
         4           Mo  tau(   4) = (   0.8560186   0.4753274   0.2873942  )
         5           S   tau(   5) = (   0.6873294   0.3936244   0.4596353  )
         6           S   tau(   6) = (   0.6929804   0.3713468   0.1185692  )
         7           Mo  tau(   7) = (   0.6862796   0.7633098   0.2825370  )
         8           S   tau(   8) = (   0.8545980   0.6708292   0.4486168  )
         9           S   tau(   9) = (   0.8545123   0.6666874   0.1146125  )
        10           Mo  tau(  10) = (   0.8629403   1.0471007   0.3006803  )
        11           S   tau(  11) = (   0.6868280   0.9456650   0.4634891  )
        12           S   tau(  12) = (   0.6998113   0.9568511   0.1205389  )
        13           Mo  tau(  13) = (   0.3618216   0.1847309   0.2935964  )
        14           S   tau(  14) = (   0.5260962   0.0863870   0.4600448  )
        15           S   tau(  15) = (   0.5348379   0.0894875   0.1297123  )
        16           Mo  tau(  16) = (   0.5265817   0.4772436   0.2784130  )
        17           S   tau(  17) = (   0.3624753   0.3882513   0.4525556  )
        18           S   tau(  18) = (   0.3635411   0.3752055   0.1119148  )
        19           Mo  tau(  19) = (   0.3652268   0.7630864   0.2781795  )
        20           S   tau(  20) = (   0.5269494   0.6690381   0.1096838  )
        21           Mo  tau(  21) = (   0.5300192   1.0470394   0.2900995  )
        22           S   tau(  22) = (   0.3670346   0.9457522   0.4574073  )
        23           S   tau(  23) = (   0.3604225   0.9585725   0.1159032  )
        24           Mo  tau(  24) = (   0.0313099   0.1847895   0.3013130  )
        25           S   tau(  25) = (   0.1956761   0.0838230   0.4650863  )
        26           S   tau(  26) = (   0.1967693   0.0903508   0.1278874  )
        27           Mo  tau(  27) = (   0.1967578   0.4753919   0.2813011  )
        28           S   tau(  28) = (   0.0287851   0.3864324   0.4586755  )
        29           S   tau(  29) = (   0.0244514   0.3729871   0.1239344  )
        30           Mo  tau(  30) = (   0.0286728   0.7631204   0.2856894  )
        31           S   tau(  31) = (   0.2011512   0.6675435   0.4465001  )
        32           S   tau(  32) = (   0.1969214   0.6672839   0.1104564  )
        33           Mo  tau(  33) = (   0.1950294   1.0511147   0.2932237  )
        34           S   tau(  34) = (   0.0312912   0.9612169   0.4667423  )
        35           S   tau(  35) = (   0.0292670   0.9563028   0.1216485  )
        36           H   tau(  36) = (   0.3333333   1.1556707   0.5792558  )

     number of k points=     1  Gaussian smearing, width (Ry)=  0.0100
                       cart. coord. in units 2pi/alat
        k(    1) = (   0.0000000   0.0000000   0.0000000), wk =   2.0000000

     Dense  grid:  1177734 G-vectors     FFT dimensions: ( 120, 135, 320)

     Smooth grid:   842757 G-vectors     FFT dimensions: ( 108, 120, 270)

     Estimated max dynamical RAM per process >     146.59 MB

     Estimated total dynamical RAM >       6.87 GB

     Initial potential from superposition of free atoms

     starting charge     306.9873, renormalised to     307.0000

     negative rho (up, down):  1.406E-04 0.000E+00


---------------------------------------------------------------------------------
Carrying out rVV10 run using the following parameters:
Nqs =      20    Nr_points =    1024   r_max =   100.000
b_value =  6.30000    beta =  0.00901
     q_mesh =  0.00010000  0.00030000  0.00058939  0.00100810
               0.00161396  0.00249058  0.00375900  0.00559430
               0.00824984  0.01209221  0.01765183  0.02569619
               0.03733578  0.05417739  0.07854596  0.11380545
               0.16482331  0.23864234  0.34545298  0.50000000

Gradients computed in Reciprocal space

---------------------------------------------------------------------------------


     Starting wfcs are  213 randomized atomic wfcs

     total cpu time spent up to now is        2.8 secs

     Self-consistent Calculation

     iteration #  1     ecut=    80.00 Ry     beta= 0.70
     Davidson diagonalization with overlap
     ethr =  1.00E-02,  avg # of iterations =  2.0

     Threshold (ethr) on eigenvalues was too large:
     Diagonalizing with lowered threshold

     Davidson diagonalization with overlap
     ethr =  3.52E-04,  avg # of iterations =  4.0

     negative rho (up, down):  1.632E-08 0.000E+00

     total cpu time spent up to now is       17.9 secs

     total energy              =   -2205.58319681 Ry
     estimated scf accuracy    <       1.37091611 Ry

     iteration #  2     ecut=    80.00 Ry     beta= 0.70
     Davidson diagonalization with overlap
     ethr =  4.47E-04,  avg # of iterations =  2.0

     total cpu time spent up to now is       20.3 secs

     total energy              =   -2205.42918958 Ry
     estimated scf accuracy    <       0.54627599 Ry

     iteration #  3     ecut=    80.00 Ry     beta= 0.70
     Davidson diagonalization with overlap
     ethr =  1.78E-04,  avg # of iterations =  2.0

     total cpu time spent up to now is       22.7 secs

     total energy              =   -2205.51467146 Ry
     estimated scf accuracy    <       0.05615863 Ry

     iteration #  4     ecut=    80.00 Ry     beta= 0.70
     Davidson diagonalization with overlap
     ethr =  1.83E-05,  avg # of iterations = 14.0

     total cpu time spent up to now is       25.8 secs

     total energy              =   -2205.51734420 Ry
     estimated scf accuracy    <       0.02519205 Ry

     iteration #  5     ecut=    80.00 Ry     beta= 0.70
     Davidson diagonalization with overlap
     ethr =  8.21E-06,  avg # of iterations =  3.0

     total cpu time spent up to now is       28.1 secs

     total energy              =   -2205.51775362 Ry
     estimated scf accuracy    <       0.01744867 Ry

     iteration #  6     ecut=    80.00 Ry     beta= 0.70
     Davidson diagonalization with overlap
     ethr =  5.68E-06,  avg # of iterations =  2.0

     total cpu time spent up to now is       30.2 secs

     total energy              =   -2205.51647590 Ry
     estimated scf accuracy    <       0.01223579 Ry

     iteration #  7     ecut=    80.00 Ry     beta= 0.70
     Davidson diagonalization with overlap
     ethr =  3.99E-06,  avg # of iterations =  1.0

     negative rho (up, down):  4.747E-08 0.000E+00

     total cpu time spent up to now is       34.0 secs

     total energy              =   -2205.51492091 Ry
     estimated scf accuracy    <       0.00700583 Ry

     iteration #  8     ecut=    80.00 Ry     beta= 0.70
     Davidson diagonalization with overlap
     ethr =  2.28E-06,  avg # of iterations =  2.0

     negative rho (up, down):  1.615E-02 0.000E+00

     total cpu time spent up to now is       38.3 secs

     total energy              =   -2205.51454223 Ry
     estimated scf accuracy    <       0.00328667 Ry

     iteration #  9     ecut=    80.00 Ry     beta= 0.70
     Davidson diagonalization with overlap
     ethr =  1.07E-06,  avg # of iterations =  4.0

     negative rho (up, down):  2.390E-02 0.000E+00

     total cpu time spent up to now is       43.0 secs

     total energy              =   -2205.51443203 Ry
     estimated scf accuracy    <       0.00190231 Ry

     iteration # 10     ecut=    80.00 Ry     beta= 0.70
     Davidson diagonalization with overlap
     ethr =  6.20E-07,  avg # of iterations =  3.0

     negative rho (up, down):  2.981E-02 0.000E+00

     total cpu time spent up to now is       47.2 secs

     total energy              =   -2205.51469514 Ry
     estimated scf accuracy    <       0.00073945 Ry

     iteration # 11     ecut=    80.00 Ry     beta= 0.70
     Davidson diagonalization with overlap
     ethr =  2.41E-07,  avg # of iterations =  2.0

     negative rho (up, down):  9.165E-03 0.000E+00

     total cpu time spent up to now is       52.4 secs

     total energy              =   -2205.51466369 Ry
     estimated scf accuracy    <       0.00016998 Ry

     iteration # 12     ecut=    80.00 Ry     beta= 0.70
     Davidson diagonalization with overlap
     c_bands:  1 eigenvalues not converged
     ethr =  5.54E-08,  avg # of iterations = 20.0

     negative rho (up, down):  4.661E-03 0.000E+00

     total cpu time spent up to now is       60.3 secs

     total energy              =   -2205.51474647 Ry
     estimated scf accuracy    <       0.00012871 Ry

     iteration # 13     ecut=    80.00 Ry     beta= 0.70
     Davidson diagonalization with overlap
     ethr =  4.19E-08,  avg # of iterations = 10.0

     negative rho (up, down):  7.848E-04 0.000E+00

     total cpu time spent up to now is       68.2 secs

     total energy              =   -2205.51476845 Ry
     estimated scf accuracy    <       0.00000450 Ry

     iteration # 14     ecut=    80.00 Ry     beta= 0.70
     Davidson diagonalization with overlap
     ethr =  1.47E-09,  avg # of iterations =  5.0

     negative rho (up, down):  2.906E-04 0.000E+00

     total cpu time spent up to now is       76.8 secs

     total energy              =   -2205.51477119 Ry
     estimated scf accuracy    <       0.00000187 Ry

     iteration # 15     ecut=    80.00 Ry     beta= 0.70
     Davidson diagonalization with overlap
     ethr =  6.08E-10,  avg # of iterations =  2.0

     negative rho (up, down):  1.374E-04 0.000E+00

     total cpu time spent up to now is       78.7 secs

     End of self-consistent calculation

          k = 0.0000 0.0000 0.0000 (105382 PWs)   bands (ev):

   -62.8984 -62.8903 -62.8775 -62.8647 -62.8485 -62.8413 -62.8277 -62.8210
   -62.8168 -62.8088 -62.7920 -62.7749 -37.2474 -37.1870 -37.1654 -37.1642
   -37.1416 -37.1233 -37.0986 -37.0902 -37.0865 -37.0859 -37.0770 -37.0560
   -37.0512 -37.0474 -37.0385 -37.0264 -37.0238 -37.0185 -37.0087 -36.9920
   -36.9891 -36.9769 -36.9731 -36.9608 -36.9521 -36.9394 -36.9382 -36.9220
   -36.9210 -36.9021 -36.8927 -36.8752 -36.8677 -36.8113 -36.7773 -36.7327
   -16.0260 -15.2389 -15.1855 -15.0417 -14.9356 -14.8520 -14.6031 -14.5240
   -14.4714 -14.4333 -14.4013 -14.3889 -14.3621 -14.3044 -14.1771 -14.1544
   -14.1390 -14.1252 -14.0558 -13.9364 -13.8636 -13.8379 -13.8160  -7.9049
    -7.6323  -7.4277  -7.3133  -7.2751  -7.2585  -7.2041  -7.1511  -6.9462
    -6.8566  -6.7965  -6.7850  -6.6997  -6.5789  -6.5252  -6.4823  -6.4317
    -6.3533  -6.2861  -6.0228  -5.9831  -5.9223  -5.9155  -5.8320  -5.8103
    -5.7774  -5.7271  -5.7039  -5.6806  -5.6289  -5.5614  -5.5508  -5.4860
    -5.4370  -5.3975  -5.2142  -5.1696  -5.0677  -5.0250  -5.0067  -4.9747
    -4.9273  -4.8461  -4.6746  -4.5428  -4.4206  -4.3406  -4.3227  -4.2491
    -4.1942  -4.1059  -4.0452  -3.9265  -3.8363  -3.8108  -3.7552  -3.7231
    -3.6837  -3.5863  -3.5602  -3.5265  -3.5005  -3.4743  -3.4601  -3.4064
    -3.3883  -3.2185  -3.1432  -2.9400  -2.9029  -2.8104  -2.7904  -2.7623
    -2.7361  -2.7073  -2.6604  -2.6499  -2.5924  -2.3303  -2.0978  -2.0130
    -1.9379  -1.1389  -0.8276  -0.6858  -0.1977  -0.1553  -0.1257  -0.0492
     0.0499   0.0995   0.1320   0.2170   0.2394   0.2541   0.3625   0.4303
     0.4552   0.5218   0.5397   0.5558   0.5859   0.6372   0.7020   0.7286
     0.7430   0.7706   0.8263   0.8506   0.9370   0.9406   1.0287   1.2754
     1.3613

     the Fermi energy is    -1.1390 ev

!    total energy              =   -2205.51477294 Ry
     estimated scf accuracy    <       0.00000011 Ry
     smearing contrib. (-TS)   =      -0.00567188 Ry
     internal energy E=F+TS    =   -2205.50910106 Ry

     The total energy is F=E-TS. E is the sum of the following terms:
     one-electron contribution =  -18043.56418014 Ry
     hartree contribution      =    9008.33563018 Ry
     xc contribution           =    -385.19395222 Ry
     ewald contribution        =    7214.91340112 Ry

     convergence has been achieved in  15 iterations

     negative rho (up, down):  1.374E-04 0.000E+00

     Forces acting on atoms (cartesian axes, Ry/au):

     atom    1 type  1   force =     0.01917364   -0.01888937    0.00231535
     atom    2 type  2   force =    -0.01570152    0.01651947    0.00086760
     atom    3 type  2   force =    -0.01030518    0.00757675   -0.00445223
     atom    4 type  1   force =     0.00351281    0.00638514   -0.00137580
     atom    5 type  2   force =    -0.00085760   -0.00647060   -0.00523519
     atom    6 type  2   force =     0.00154809    0.00977745   -0.00078615
     atom    7 type  1   force =     0.00750271   -0.01992828   -0.00763744
     atom    8 type  2   force =     0.00125719   -0.00387909    0.01727468
     atom    9 type  2   force =     0.01196159    0.00666748    0.01184348
     atom   10 type  1   force =    -0.00941874    0.00996418   -0.02636271
     atom   11 type  2   force =     0.00611126   -0.00184730   -0.00660205
     atom   12 type  2   force =     0.00096832    0.00155679    0.00447681
     atom   13 type  1   force =     0.00418468    0.00357679   -0.00649328
     atom   14 type  2   force =    -0.00357946   -0.00578062    0.01559977
     atom   15 type  2   force =    -0.01278527    0.00329193   -0.00935212
     atom   16 type  1   force =     0.00197252    0.00957354    0.00391218
     atom   17 type  2   force =     0.00630990    0.00228987    0.00141625
     atom   18 type  2   force =    -0.00360667   -0.00431618    0.01298876
     atom   19 type  1   force =     0.00567193   -0.01257057   -0.01189823
     atom   20 type  2   force =     0.00134163   -0.00481572    0.00181598
     atom   21 type  1   force =    -0.00957499    0.00449088    0.00178415
     atom   22 type  2   force =    -0.00534291    0.01841272    0.00412056
     atom   23 type  2   force =    -0.00204812    0.00202104    0.00900150
     atom   24 type  1   force =    -0.02700461    0.01181207   -0.04052365
     atom   25 type  2   force =     0.06397784   -0.01531035    0.03995609
     atom   26 type  2   force =    -0.01158408   -0.00034424   -0.00449691
     atom   27 type  1   force =    -0.00265318   -0.00440600    0.00561821
     atom   28 type  2   force =    -0.00001595    0.00041389   -0.00363215
     atom   29 type  2   force =     0.00213528   -0.00300108   -0.00167316
     atom   30 type  1   force =    -0.00296140    0.01278714   -0.00575974
     atom   31 type  2   force =     0.00010348   -0.00108719    0.01621831
     atom   32 type  2   force =    -0.00733433    0.00736077    0.00906940
     atom   33 type  1   force =     0.01303946   -0.00454439   -0.01322554
     atom   34 type  2   force =     0.00252321   -0.04377567   -0.00843376
     atom   35 type  2   force =    -0.01037923    0.00552213    0.01426002
     atom   36 type  3   force =    -0.01814232    0.01096663   -0.01459898
     The non-local contrib.  to forces
     atom    1 type  1   force =    -0.00367133    0.02862003   -0.00890326
     atom    2 type  2   force =    -0.01502102    0.00047650   -0.26108213
     atom    3 type  2   force =    -0.01256223   -0.00117033    0.27169529
     atom    4 type  1   force =     0.00180702    0.00423424    0.00584126
     atom    5 type  2   force =     0.00495002   -0.03277101   -0.25383324
     atom    6 type  2   force =    -0.00136734    0.01127478    0.26320472
     atom    7 type  1   force =    -0.02036426    0.00417579   -0.02115992
     atom    8 type  2   force =     0.00520154   -0.00211107   -0.25469331
     atom    9 type  2   force =     0.00669791   -0.00805543    0.27678074
     atom   10 type  1   force =     0.00276737   -0.00080726   -0.00018628
     atom   11 type  2   force =     0.01577132    0.00441554   -0.25893485
     atom   12 type  2   force =    -0.01180016   -0.01653705    0.26375215
     atom   13 type  1   force =    -0.00307923    0.01989280   -0.00366804
     atom   14 type  2   force =    -0.01689323   -0.02480363   -0.22298418
     atom   15 type  2   force =    -0.01570744   -0.00603625    0.26027324
     atom   16 type  1   force =     0.00090569    0.03051621   -0.02910272
     atom   17 type  2   force =     0.00295804   -0.03059753   -0.24789444
     atom   18 type  2   force =    -0.00382672   -0.00328477    0.27400129
     atom   19 type  1   force =     0.01241213    0.00127974   -0.01913247
     atom   20 type  2   force =    -0.00013751   -0.02193584    0.26645989
     atom   21 type  1   force =     0.00086522    0.02526876    0.00752975
     atom   22 type  2   force =    -0.00997555    0.03876651   -0.21235012
     atom   23 type  2   force =     0.00442579   -0.01462896    0.26866850
     atom   24 type  1   force =     0.01739030    0.00925688   -0.01352490
     atom   25 type  2   force =     0.14885307   -0.06722533   -0.10946572
     atom   26 type  2   force =    -0.00008880   -0.01442301    0.26520340
     atom   27 type  1   force =    -0.00425132    0.01036757    0.00893958
     atom   28 type  2   force =    -0.00570289   -0.01888017   -0.27161468
     atom   29 type  2   force =     0.00649718    0.00040175    0.26525244
     atom   30 type  1   force =    -0.00015328    0.01588408    0.00946593
     atom   31 type  2   force =    -0.01041638   -0.00134309   -0.25287066
     atom   32 type  2   force =    -0.00187344   -0.00858589    0.27440282
     atom   33 type  1   force =    -0.00683950    0.00955491    0.00919248
     atom   34 type  2   force =     0.00364407   -0.03615548   -0.27236836
     atom   35 type  2   force =    -0.00333859   -0.01148896    0.27112264
     atom   36 type  3   force =    -0.00647223    0.00418231   -0.00925633
     The ionic contribution  to forces
     atom    1 type  1   force =     0.51977592    0.34669317    5.58620209
     atom    2 type  2   force =    -0.69549117    0.43802932   39.25455057
     atom    3 type  2   force =    -0.17067893    0.02683046  -36.10702985
     atom    4 type  1   force =     0.08472169    0.62883323    0.67615022
     atom    5 type  2   force =    -0.92673151    1.55929877   38.74011819
     atom    6 type  2   force =     0.35741814   -0.47838557  -38.02633516
     atom    7 type  1   force =    -2.55926394   -2.86707950    2.54353102
     atom    8 type  2   force =    -0.98939657    0.00478493   37.39079223
     atom    9 type  2   force =     0.34033496   -0.04441381  -37.99274093
     atom   10 type  1   force =    -1.13515371   -0.37781418    5.57835562
     atom   11 type  2   force =    -0.45670094   -1.69842076   39.10451883
     atom   12 type  2   force =     0.46208073    0.66982208  -37.87287496
     atom   13 type  1   force =     0.53487468    1.35039105    2.34841447
     atom   14 type  2   force =     0.53296568    0.21274668   38.23099259
     atom   15 type  2   force =     0.19567136   -0.04301713  -36.87521081
     atom   16 type  1   force =     0.02839595    4.02893605    0.45125860
     atom   17 type  2   force =     0.82492630    1.66150937   37.88858116
     atom   18 type  2   force =    -0.15782305   -0.61101127  -38.58703249
     atom   19 type  1   force =     2.73589842   -2.62275803    0.54602059
     atom   20 type  2   force =     0.23962580   -0.21042546  -38.47802988
     atom   21 type  1   force =     0.32416382   -0.12330320    0.77114301
     atom   22 type  2   force =     0.53906308   -2.22823281   38.14836614
     atom   23 type  2   force =    -0.08115432    0.62332240  -38.35837154
     atom   24 type  1   force =    -0.73750089    1.29037704    5.67460156
     atom   25 type  2   force =     0.00944002    0.68251781   38.73931345
     atom   26 type  2   force =    -0.32028114    0.08869231  -37.41952705
     atom   27 type  1   force =    -0.01832781    0.49776270   -2.29545465
     atom   28 type  2   force =    -0.00113051    1.08393494   38.19390155
     atom   29 type  2   force =    -0.28066508   -0.40292514  -37.27031833
     atom   30 type  1   force =    -0.41127767   -1.00423529   -0.07038618
     atom   31 type  2   force =     1.19891801   -0.11168255   37.31339991
     atom   32 type  2   force =    -0.48936462   -0.02013670  -38.63730644
     atom   33 type  1   force =     0.51498912   -1.07845859    1.52222758
     atom   34 type  2   force =     0.07908025   -1.56639859   39.29749659
     atom   35 type  2   force =    -0.32654482    0.45116806  -37.84282781
     atom   36 type  3   force =     0.23514277   -0.15695179    7.83351012
     The local contribution  to forces
     atom    1 type  1   force =    -0.49692563   -0.39416225   -5.57523820
     atom    2 type  2   force =     0.69438037   -0.42192869  -39.01304300
     atom    3 type  2   force =     0.17236352   -0.01805429   35.85183942
     atom    4 type  1   force =    -0.08301376   -0.62660431   -0.68364187
     atom    5 type  2   force =     0.92148143   -1.53483695  -38.51207801
     atom    6 type  2   force =    -0.35478515    0.47803855   37.78323534
     atom    7 type  1   force =     2.58722212    2.84300111   -2.53028035
     atom    8 type  2   force =     0.98567420   -0.00697526  -37.13939557
     atom    9 type  2   force =    -0.33494591    0.05862623   37.74879447
     atom   10 type  1   force =     1.12300711    0.38857613   -5.60469839
     atom   11 type  2   force =     0.44777466    1.69264193  -38.87293657
     atom   12 type  2   force =    -0.45043034   -0.65315259   37.63447826
     atom   13 type  1   force =    -0.52755137   -1.36663154   -2.35144976
     atom   14 type  2   force =    -0.52051201   -0.19446427  -38.01126429
     atom   15 type  2   force =    -0.19356863    0.05199275   36.62612721
     atom   16 type  1   force =    -0.02732749   -4.05003375   -0.41854096
     atom   17 type  2   force =    -0.82155177   -1.63024204  -37.65957567
     atom   18 type  2   force =     0.15801292    0.61052783   38.34708033
     atom   19 type  1   force =    -2.74281184    2.60898858   -0.53904040
     atom   20 type  2   force =    -0.23827369    0.22672226   38.23456995
     atom   21 type  1   force =    -0.33463478    0.10249488   -0.77709279
     atom   22 type  2   force =    -0.53480948    2.21008864  -37.95030520
     atom   23 type  2   force =     0.07510499   -0.60799601   38.11964476
     atom   24 type  1   force =     0.69304501   -1.28780402   -5.70180020
     atom   25 type  2   force =    -0.08670899   -0.63421022  -38.60262100
     atom   26 type  2   force =     0.30906047   -0.07539274   37.17078610
     atom   27 type  1   force =     0.01992113   -0.51244880    2.29189487
     atom   28 type  2   force =     0.00651205   -1.06618838  -37.94683633
     atom   29 type  2   force =     0.27685966    0.40009340   37.02403520
     atom   30 type  1   force =     0.40854315    1.00107956    0.05493151
     atom   31 type  2   force =    -1.18896892    0.11180298  -37.06498495
     atom   32 type  2   force =     0.48406713    0.03555959   38.39304385
     atom   33 type  1   force =    -0.49508785    1.06421651   -1.54479532
     atom   34 type  2   force =    -0.08031657    1.55771353  -39.05475289
     atom   35 type  2   force =     0.31954541   -0.43524464   37.60707679
     atom   36 type  3   force =    -0.24681311    0.16372852   -7.83885917
     The core correction contribution to forces
     atom    1 type  1   force =     0.00000000    0.00000000    0.00000000
     atom    2 type  2   force =     0.00044760   -0.00006898    0.02029808
     atom    3 type  2   force =     0.00056207   -0.00001679   -0.02093784
     atom    4 type  1   force =     0.00000000    0.00000000    0.00000000
     atom    5 type  2   force =    -0.00054385    0.00183618    0.02039625
     atom    6 type  2   force =     0.00026926   -0.00111944   -0.02088822
     atom    7 type  1   force =     0.00000000    0.00000000    0.00000000
     atom    8 type  2   force =    -0.00017944    0.00041356    0.02041780
     atom    9 type  2   force =    -0.00010753    0.00048936   -0.02099484
     atom   10 type  1   force =     0.00000000    0.00000000    0.00000000
     atom   11 type  2   force =    -0.00072852   -0.00047638    0.02061049
     atom   12 type  2   force =     0.00110757    0.00138087   -0.02087402
     atom   13 type  1   force =     0.00000000    0.00000000    0.00000000
     atom   14 type  2   force =     0.00084234    0.00073027    0.01874447
     atom   15 type  2   force =     0.00083439    0.00037130   -0.02052615
     atom   16 type  1   force =     0.00000000    0.00000000    0.00000000
     atom   17 type  2   force =    -0.00003343    0.00160468    0.02014705
     atom   18 type  2   force =     0.00005874   -0.00050042   -0.02105292
     atom   19 type  1   force =     0.00000000    0.00000000    0.00000000
     atom   20 type  2   force =     0.00011708    0.00081630   -0.02122944
     atom   21 type  1   force =     0.00000000    0.00000000    0.00000000
     atom   22 type  2   force =     0.00034657   -0.00221157    0.01828189
     atom   23 type  2   force =    -0.00042881    0.00124764   -0.02091623
     atom   24 type  1   force =     0.00000000    0.00000000    0.00000000
     atom   25 type  2   force =    -0.00760055    0.00357382    0.01268333
     atom   26 type  2   force =    -0.00027305    0.00077694   -0.02094436
     atom   27 type  1   force =     0.00000000    0.00000000    0.00000000
     atom   28 type  2   force =     0.00031387    0.00155777    0.02079139
     atom   29 type  2   force =    -0.00056427   -0.00052351   -0.02065144
     atom   30 type  1   force =     0.00000000    0.00000000    0.00000000
     atom   31 type  2   force =     0.00054698    0.00015413    0.02051139
     atom   32 type  2   force =    -0.00016095    0.00053520   -0.02106435
     atom   33 type  1   force =     0.00000000    0.00000000    0.00000000
     atom   34 type  2   force =     0.00014369    0.00106722    0.02106429
     atom   35 type  2   force =    -0.00002160    0.00103252   -0.02110233
     atom   36 type  3   force =     0.00000000    0.00000000    0.00000000
     The Hubbard contrib.    to forces
     atom    1 type  1   force =     0.00000000    0.00000000    0.00000000
     atom    2 type  2   force =     0.00000000    0.00000000    0.00000000
     atom    3 type  2   force =     0.00000000    0.00000000    0.00000000
     atom    4 type  1   force =     0.00000000    0.00000000    0.00000000
     atom    5 type  2   force =     0.00000000    0.00000000    0.00000000
     atom    6 type  2   force =     0.00000000    0.00000000    0.00000000
     atom    7 type  1   force =     0.00000000    0.00000000    0.00000000
     atom    8 type  2   force =     0.00000000    0.00000000    0.00000000
     atom    9 type  2   force =     0.00000000    0.00000000    0.00000000
     atom   10 type  1   force =     0.00000000    0.00000000    0.00000000
     atom   11 type  2   force =     0.00000000    0.00000000    0.00000000
     atom   12 type  2   force =     0.00000000    0.00000000    0.00000000
     atom   13 type  1   force =     0.00000000    0.00000000    0.00000000
     atom   14 type  2   force =     0.00000000    0.00000000    0.00000000
     atom   15 type  2   force =     0.00000000    0.00000000    0.00000000
     atom   16 type  1   force =     0.00000000    0.00000000    0.00000000
     atom   17 type  2   force =     0.00000000    0.00000000    0.00000000
     atom   18 type  2   force =     0.00000000    0.00000000    0.00000000
     atom   19 type  1   force =     0.00000000    0.00000000    0.00000000
     atom   20 type  2   force =     0.00000000    0.00000000    0.00000000
     atom   21 type  1   force =     0.00000000    0.00000000    0.00000000
     atom   22 type  2   force =     0.00000000    0.00000000    0.00000000
     atom   23 type  2   force =     0.00000000    0.00000000    0.00000000
     atom   24 type  1   force =     0.00000000    0.00000000    0.00000000
     atom   25 type  2   force =     0.00000000    0.00000000    0.00000000
     atom   26 type  2   force =     0.00000000    0.00000000    0.00000000
     atom   27 type  1   force =     0.00000000    0.00000000    0.00000000
     atom   28 type  2   force =     0.00000000    0.00000000    0.00000000
     atom   29 type  2   force =     0.00000000    0.00000000    0.00000000
     atom   30 type  1   force =     0.00000000    0.00000000    0.00000000
     atom   31 type  2   force =     0.00000000    0.00000000    0.00000000
     atom   32 type  2   force =     0.00000000    0.00000000    0.00000000
     atom   33 type  1   force =     0.00000000    0.00000000    0.00000000
     atom   34 type  2   force =     0.00000000    0.00000000    0.00000000
     atom   35 type  2   force =     0.00000000    0.00000000    0.00000000
     atom   36 type  3   force =     0.00000000    0.00000000    0.00000000
     The SCF correction term to forces
     atom    1 type  1   force =    -0.00000475   -0.00004275    0.00025214
     atom    2 type  2   force =    -0.00001673    0.00000890    0.00014151
     atom    3 type  2   force =     0.00001097   -0.00001472   -0.00002183
     atom    4 type  1   force =    -0.00000155   -0.00008043    0.00027202
     atom    5 type  2   force =    -0.00001311   -0.00000002    0.00015904
     atom    6 type  2   force =     0.00001376   -0.00003330   -0.00000541
     atom    7 type  1   force =    -0.00009064   -0.00002811    0.00026923
     atom    8 type  2   force =    -0.00004197    0.00000633    0.00015095
     atom    9 type  2   force =    -0.00001726    0.00001870    0.00000146
     atom   10 type  1   force =    -0.00003893    0.00000707    0.00016376
     atom   11 type  2   force =    -0.00000468   -0.00001007    0.00013748
     atom   12 type  2   force =     0.00001110    0.00004106   -0.00000720
     atom   13 type  1   force =    -0.00005883   -0.00007794    0.00020747
     atom   14 type  2   force =     0.00001834    0.00000792    0.00010860
     atom   15 type  2   force =    -0.00001438   -0.00002117   -0.00001819
     atom   16 type  1   force =    -0.00000105    0.00015260    0.00029468
     atom   17 type  2   force =     0.00001133    0.00001296    0.00015557
     atom   18 type  2   force =    -0.00002798   -0.00004998   -0.00001003
     atom   19 type  1   force =     0.00017380   -0.00008329    0.00025148
     atom   20 type  2   force =     0.00001053    0.00000460    0.00004288
     atom   21 type  1   force =     0.00003132    0.00002801    0.00020159
     atom   22 type  2   force =     0.00003304   -0.00000046    0.00012528
     atom   23 type  2   force =     0.00000481    0.00007355   -0.00002656
     atom   24 type  1   force =     0.00006154   -0.00002025    0.00019732
     atom   25 type  2   force =    -0.00000513    0.00003115    0.00004345
     atom   26 type  2   force =    -0.00000097   -0.00000017   -0.00001757
     atom   27 type  1   force =     0.00000540   -0.00008990    0.00023584
     atom   28 type  2   force =    -0.00000789   -0.00001269    0.00012333
     atom   29 type  2   force =     0.00000837   -0.00005001    0.00000639
     atom   30 type  1   force =    -0.00007303    0.00005636    0.00022641
     atom   31 type  2   force =     0.00002435   -0.00002107    0.00016004
     atom   32 type  2   force =    -0.00000188   -0.00001385   -0.00000906
     atom   33 type  1   force =    -0.00002173    0.00014035    0.00014714
     atom   34 type  2   force =    -0.00002765   -0.00000477    0.00012403
     atom   35 type  2   force =    -0.00001904    0.00005273   -0.00001185
     atom   36 type  3   force =     0.00000083    0.00000517    0.00000382

     Total force =     0.135772     Total SCF correction =     0.000999

     BFGS Geometry Optimization
     Energy error            =      0.0E+00 Ry
     Gradient error          =      6.4E-02 Ry/Bohr

     number of scf cycles    =   1
     number of bfgs steps    =   0

     energy             new  =   -2205.5147729377 Ry

     new trust radius        =       0.0769679149 bohr
     new conv_thr            =       0.0000010000 Ry


ATOMIC_POSITIONS (angstrom)
Mo            6.5846946599        1.7778104029        2.8248682607
S             8.1684004510        0.8184457507        4.4349974694
S             8.1877798200        0.8152511864        1.2755274096
Mo            8.0970214660        4.4984358174        2.7170903525
S             6.4994554366        3.7189873917        4.3438903037
S             6.5541690135        3.5169115619        1.1208642128
Mo            6.4939519596        7.2078916934        2.6678429239
S             8.0823930029        6.3418182665        4.2516029319
S             8.0872474500        6.3082305925        1.0901302961
Mo            8.1556348678        9.9074532293        2.8295112132
S             6.4984015364        8.9419492637        4.3796118805
S             6.6184596123        9.0495350303        1.1422763300
Mo            3.4238741003        1.7488486087        2.7730350646
S             4.9732713202        0.8138822372        4.3587881360
S             5.0510680804        0.8480041209        1.2217095327
Mo            4.9808004956        4.5182441009        2.6349547863
S             3.4311807177        3.6728114343        4.2804590273
S             3.4360120116        3.5459446712        1.0652250364
Mo            3.4568631984        7.2096724772        2.6243805898
S             4.9839441540        6.3243839183        1.0382147087
Mo            5.0071970534        9.9039765204        2.7443450905
S             3.4681307719        8.9534948613        4.3277718174
S             3.4073453456        9.0660594728        1.1008316887
Mo            0.2818002645        1.7537602119        2.8280005188
S             1.8843178274        0.7845921168        4.4193532906
S             1.8546700047        0.8542437522        1.2070211909
Mo            1.8592873070        4.4933352080        2.6631704092
S             0.2722054115        3.6546178475        4.3356620461
S             0.2323611471        3.5256611207        1.1711324872
Mo            0.2695850458        7.2234127551        2.6986485030
S             1.9022930046        6.3122235211        4.2310264788
S             1.8583570550        6.3142389655        1.0493586028
Mo            1.8512468495        9.9377343634        2.7659475960
S             0.2972481258        9.0668327429        4.4094065126
S             0.2712789476        9.0464479021        1.1579468584
H             3.1426528301       10.9347032933        5.4701579799



     Writing config-only to output data dir ./MoS2-V-O.save/
     NEW-OLD atomic charge density approx. for the potential

     negative rho (up, down):  1.452E-04 0.000E+00

     total cpu time spent up to now is       82.1 secs

     Self-consistent Calculation

     iteration #  1     ecut=    80.00 Ry     beta= 0.70
     Davidson diagonalization with overlap
     ethr =  1.00E-06,  avg # of iterations = 11.0

     negative rho (up, down):  9.830E-05 0.000E+00

     total cpu time spent up to now is       96.6 secs

     total energy              =   -2205.52991428 Ry
     estimated scf accuracy    <       0.00158538 Ry

     iteration #  2     ecut=    80.00 Ry     beta= 0.70
     Davidson diagonalization with overlap
     ethr =  5.16E-07,  avg # of iterations =  2.0

     negative rho (up, down):  8.108E-05 0.000E+00

     total cpu time spent up to now is      113.5 secs

     total energy              =   -2205.52990367 Ry
     estimated scf accuracy    <       0.00034424 Ry

     iteration #  3     ecut=    80.00 Ry     beta= 0.70
     Davidson diagonalization with overlap
     ethr =  1.12E-07,  avg # of iterations =  6.0

     negative rho (up, down):  7.822E-05 0.000E+00

     total cpu time spent up to now is      129.9 secs

     total energy              =   -2205.52995855 Ry
     estimated scf accuracy    <       0.00002110 Ry

     iteration #  4     ecut=    80.00 Ry     beta= 0.70
     Davidson diagonalization with overlap
     ethr =  6.87E-09,  avg # of iterations =  7.0

     negative rho (up, down):  7.579E-05 0.000E+00

     total cpu time spent up to now is      146.9 secs

     total energy              =   -2205.52996695 Ry
     estimated scf accuracy    <       0.00000659 Ry

     iteration #  5     ecut=    80.00 Ry     beta= 0.70
     Davidson diagonalization with overlap
     ethr =  2.15E-09,  avg # of iterations =  2.0

     negative rho (up, down):  7.380E-05 0.000E+00

     total cpu time spent up to now is      161.5 secs

     total energy              =   -2205.52996762 Ry
     estimated scf accuracy    <       0.00000165 Ry

     iteration #  6     ecut=    80.00 Ry     beta= 0.70
     Davidson diagonalization with overlap
     ethr =  5.37E-10,  avg # of iterations =  5.0

     negative rho (up, down):  1.376E-04 0.000E+00

     total cpu time spent up to now is      163.8 secs

     End of self-consistent calculation

          k = 0.0000 0.0000 0.0000 (105382 PWs)   bands (ev):

   -62.8948 -62.8895 -62.8725 -62.8584 -62.8430 -62.8286 -62.8221 -62.8149
   -62.8138 -62.8087 -62.7889 -62.7717 -37.2412 -37.1809 -37.1612 -37.1572
   -37.1327 -37.1161 -37.0924 -37.0862 -37.0832 -37.0818 -37.0733 -37.0497
   -37.0452 -37.0399 -37.0267 -37.0223 -37.0190 -37.0089 -37.0039 -36.9935
   -36.9855 -36.9738 -36.9693 -36.9533 -36.9473 -36.9367 -36.9304 -36.9199
   -36.9158 -36.8986 -36.8874 -36.8718 -36.8643 -36.8058 -36.7734 -36.7311
   -16.0205 -15.2375 -15.1829 -15.0358 -14.9227 -14.8537 -14.5953 -14.5191
   -14.4618 -14.4293 -14.4018 -14.3800 -14.3631 -14.3005 -14.1779 -14.1422
   -14.1374 -14.1293 -14.0528 -13.9173 -13.8645 -13.8465 -13.8119  -7.9444
    -7.6248  -7.4168  -7.3027  -7.2738  -7.2472  -7.1971  -7.1528  -6.9514
    -6.8548  -6.7903  -6.7714  -6.6932  -6.5778  -6.5192  -6.4830  -6.4258
    -6.3510  -6.2756  -6.0183  -5.9706  -5.9209  -5.9081  -5.8322  -5.8046
    -5.7776  -5.7230  -5.7043  -5.6764  -5.6371  -5.5580  -5.5464  -5.4815
    -5.4120  -5.3744  -5.1840  -5.1737  -5.0652  -5.0117  -5.0057  -4.9786
    -4.9295  -4.8499  -4.6656  -4.5403  -4.4242  -4.3378  -4.3128  -4.2412
    -4.2043  -4.1183  -4.0507  -3.9351  -3.8334  -3.7996  -3.7483  -3.7119
    -3.6742  -3.5976  -3.5426  -3.5353  -3.5053  -3.4722  -3.4488  -3.3997
    -3.3755  -3.2215  -3.1434  -2.9199  -2.8994  -2.8036  -2.7900  -2.7609
    -2.7308  -2.7147  -2.6656  -2.6457  -2.5815  -2.3203  -2.0997  -2.0103
    -1.9611  -1.1242  -0.8068  -0.6909  -0.1878  -0.1507  -0.1153  -0.0485
     0.0743   0.0968   0.1348   0.2337   0.2543   0.2653   0.3716   0.4390
     0.4570   0.5293   0.5521   0.5726   0.5952   0.6365   0.7148   0.7230
     0.7465   0.7765   0.8279   0.8676   0.9401   0.9601   1.0229   1.2751
     1.3638

     the Fermi energy is    -1.1243 ev

!    total energy              =   -2205.52996740 Ry
     estimated scf accuracy    <       0.00000065 Ry
     smearing contrib. (-TS)   =      -0.00566646 Ry
     internal energy E=F+TS    =   -2205.52430093 Ry

     The total energy is F=E-TS. E is the sum of the following terms:
     one-electron contribution =  -18042.34336888 Ry
     hartree contribution      =    9007.78387742 Ry
     xc contribution           =    -385.19250322 Ry
     ewald contribution        =    7214.22769375 Ry

     convergence has been achieved in   6 iterations

     negative rho (up, down):  1.376E-04 0.000E+00

     Forces acting on atoms (cartesian axes, Ry/au):

     atom    1 type  1   force =     0.00450875   -0.01137206    0.00021905
     atom    2 type  2   force =    -0.00848527    0.01139122   -0.00214621
     atom    3 type  2   force =    -0.01114003    0.00603594   -0.01260905
     atom    4 type  1   force =     0.00438259    0.00446676    0.00099684
     atom    5 type  2   force =     0.00084048   -0.00627592   -0.00515046
     atom    6 type  2   force =     0.00145788    0.00724357    0.00091079
     atom    7 type  1   force =     0.00553104   -0.01276411   -0.00119643
     atom    8 type  2   force =     0.00179174   -0.00329103    0.01277972
     atom    9 type  2   force =     0.01113690    0.00556380    0.00643755
     atom   10 type  1   force =    -0.00290049    0.00895833   -0.00861502
     atom   11 type  2   force =     0.00493538   -0.00226039   -0.00951467
     atom   12 type  2   force =    -0.00220447    0.00023894    0.00151593
     atom   13 type  1   force =     0.00395953    0.00162454   -0.00024243
     atom   14 type  2   force =     0.00121536   -0.00247319    0.00786669
     atom   15 type  2   force =    -0.00902276    0.00249859   -0.00700509
     atom   16 type  1   force =     0.00203273    0.00626309    0.00312691
     atom   17 type  2   force =     0.00549679    0.00199937    0.00126859
     atom   18 type  2   force =    -0.00227519   -0.00244885    0.01022071
     atom   19 type  1   force =     0.00278104   -0.00597373   -0.00090598
     atom   20 type  2   force =     0.00230545   -0.00522875   -0.00277160
     atom   21 type  1   force =    -0.00524830    0.00312867    0.00279369
     atom   22 type  2   force =    -0.00409946    0.00992312    0.00043651
     atom   23 type  2   force =    -0.00038126    0.00036989    0.00383263
     atom   24 type  1   force =    -0.01029596    0.00336404   -0.01645255
     atom   25 type  2   force =     0.04946991   -0.01447235    0.02954569
     atom   26 type  2   force =    -0.00880782    0.00053589   -0.00490241
     atom   27 type  1   force =    -0.00277531   -0.00280164    0.00664003
     atom   28 type  2   force =    -0.00099594   -0.00168147   -0.00491297
     atom   29 type  2   force =     0.00040771    0.00133976   -0.00557598
     atom   30 type  1   force =    -0.00184205    0.00355917    0.00305302
     atom   31 type  2   force =     0.00043051   -0.00025384    0.00979109
     atom   32 type  2   force =    -0.00663942    0.00526017    0.00648271
     atom   33 type  1   force =     0.00596463   -0.00162892   -0.00029448
     atom   34 type  2   force =     0.00011128   -0.03158749   -0.01373893
     atom   35 type  2   force =    -0.00805390    0.00663645    0.00637016
     atom   36 type  3   force =    -0.02359207    0.01411244   -0.01825406
     The non-local contrib.  to forces
     atom    1 type  1   force =    -0.00064055    0.02601340   -0.00891526
     atom    2 type  2   force =    -0.01163706   -0.00321977   -0.26048082
     atom    3 type  2   force =    -0.01161781   -0.00270265    0.26521795
     atom    4 type  1   force =     0.00237688    0.00579253    0.00460668
     atom    5 type  2   force =     0.00596101   -0.03276514   -0.25471631
     atom    6 type  2   force =    -0.00121104    0.00836781    0.26537483
     atom    7 type  1   force =    -0.02022904    0.00265125   -0.02331505
     atom    8 type  2   force =     0.00641590   -0.00146574   -0.25718436
     atom    9 type  2   force =     0.00598626   -0.00884070    0.27361201
     atom   10 type  1   force =     0.00146718   -0.00032250   -0.00120560
     atom   11 type  2   force =     0.01366210    0.00360335   -0.26155576
     atom   12 type  2   force =    -0.01376667   -0.01799286    0.26366974
     atom   13 type  1   force =    -0.00292279    0.02028497   -0.00462885
     atom   14 type  2   force =    -0.01026518   -0.02174262   -0.23011978
     atom   15 type  2   force =    -0.01269928   -0.00636407    0.26167015
     atom   16 type  1   force =     0.00084969    0.03192740   -0.03037611
     atom   17 type  2   force =     0.00243108   -0.03000427   -0.24822156
     atom   18 type  2   force =    -0.00264486   -0.00175396    0.27264305
     atom   19 type  1   force =     0.01439535    0.00107944   -0.02051131
     atom   20 type  2   force =     0.00050271   -0.02131139    0.26334712
     atom   21 type  1   force =    -0.00055611    0.02549083    0.00546069
     atom   22 type  2   force =    -0.00750920    0.03022230   -0.21732438
     atom   23 type  2   force =     0.00535115   -0.01656015    0.26640211
     atom   24 type  1   force =     0.01365821    0.01125055   -0.01191329
     atom   25 type  2   force =     0.15645939   -0.07680368   -0.10838148
     atom   26 type  2   force =     0.00121088   -0.01330781    0.26651104
     atom   27 type  1   force =    -0.00479729    0.00945142    0.00750874
     atom   28 type  2   force =    -0.00646607   -0.01750825   -0.27184642
     atom   29 type  2   force =     0.00457441    0.00144978    0.26386138
     atom   30 type  1   force =    -0.00062928    0.01719853    0.00829141
     atom   31 type  2   force =    -0.01018872   -0.00108581   -0.25739069
     atom   32 type  2   force =    -0.00057845   -0.00977387    0.27324302
     atom   33 type  1   force =    -0.00478616    0.00898423    0.00700068
     atom   34 type  2   force =     0.00172944   -0.02669658   -0.27621616
     atom   35 type  2   force =    -0.00231373   -0.01040167    0.26673769
     atom   36 type  3   force =    -0.00829516    0.00537925   -0.01068650
     The ionic contribution  to forces
     atom    1 type  1   force =     0.11525960    0.54643601    5.68182593
     atom    2 type  2   force =    -0.43408595    0.30578450   39.33871202
     atom    3 type  2   force =    -0.19201052   -0.02259689  -36.25724663
     atom    4 type  1   force =     0.06184200    0.59685829    0.75230166
     atom    5 type  2   force =    -0.93306657    1.52123687   38.68919220
     atom    6 type  2   force =     0.28763189   -0.52012413  -37.96353948
     atom    7 type  1   force =    -2.64356471   -2.55746352    2.49975453
     atom    8 type  2   force =    -0.97115947    0.03679295   37.52903002
     atom    9 type  2   force =     0.35489735   -0.06484921  -37.99041413
     atom   10 type  1   force =    -0.91508054   -0.39888861    5.32140183
     atom   11 type  2   force =    -0.42770123   -1.71033473   39.01636811
     atom   12 type  2   force =     0.35423198    0.61138198  -37.81379855
     atom   13 type  1   force =     0.39069475    1.35326054    2.27630841
     atom   14 type  2   force =     0.55881830    0.26990712   38.28859275
     atom   15 type  2   force =     0.21731335   -0.00639115  -36.89569235
     atom   16 type  1   force =     0.00701522    3.80422467    0.62618312
     atom   17 type  2   force =     0.80071177    1.62170707   37.89197056
     atom   18 type  2   force =    -0.13392280   -0.57799722  -38.50035677
     atom   19 type  1   force =     2.67562986   -2.48187761    0.43784014
     atom   20 type  2   force =     0.23067950   -0.19814805  -38.54017042
     atom   21 type  1   force =     0.43869708   -0.25141737    0.90023102
     atom   22 type  2   force =     0.53622708   -2.34381966   38.15499759
     atom   23 type  2   force =    -0.03972753    0.58209139  -38.33596862
     atom   24 type  1   force =    -0.15996413    0.89440502    5.21180109
     atom   25 type  2   force =    -0.37888739    0.78461664   38.70955534
     atom   26 type  2   force =    -0.26966333    0.08659248  -37.33644927
     atom   27 type  1   force =     0.01711345    0.53529634   -2.03775024
     atom   28 type  2   force =     0.04200564    0.94956734   38.20971540
     atom   29 type  2   force =    -0.23497012   -0.27714066  -37.33299992
     atom   30 type  1   force =    -0.30059137   -1.11162237   -0.07009706
     atom   31 type  2   force =     1.21139684   -0.07806333   37.36165546
     atom   32 type  2   force =    -0.48769020   -0.06750149  -38.57508494
     atom   33 type  1   force =     0.20742004   -0.79431509    1.46432009
     atom   34 type  2   force =     0.02712797   -1.32731665   39.20205222
     atom   35 type  2   force =    -0.27064231    0.46978225  -37.77697340
     atom   36 type  3   force =     0.25801452   -0.18007372    7.86273231
     The local contribution  to forces
     atom    1 type  1   force =    -0.10973366   -0.58379348   -5.67358355
     atom    2 type  2   force =     0.43664189   -0.29104169  -39.10117901
     atom    3 type  2   force =     0.19199731    0.03137325   36.00005245
     atom    4 type  1   force =    -0.05977380   -0.59822408   -0.75664686
     atom    5 type  2   force =     0.92864722   -1.49650118  -38.46037672
     atom    6 type  2   force =    -0.28511054    0.52003806   37.71974670
     atom    7 type  1   force =     2.66949901    2.54186442   -2.47849416
     atom    8 type  2   force =     0.96677013   -0.03908637  -37.27996177
     atom    9 type  2   force =    -0.34969777    0.07876698   37.74400572
     atom   10 type  1   force =     0.91068403    0.40816232   -5.32988931
     atom   11 type  2   force =     0.41966820    1.70488512  -38.78537541
     atom   12 type  2   force =    -0.34368151   -0.59450609   37.57220014
     atom   13 type  1   force =    -0.38369130   -1.37172565   -2.27307119
     atom   14 type  2   force =    -0.54771918   -0.25123852  -38.07009907
     atom   15 type  2   force =    -0.21434630    0.01483303   36.64724869
     atom   16 type  1   force =    -0.00571765   -3.82978331   -0.59351845
     atom   17 type  2   force =    -0.79765780   -1.59113838  -37.66301526
     atom   18 type  2   force =     0.13425856    0.57782681   38.25870078
     atom   19 type  1   force =    -2.68733713    2.47472310   -0.41914961
     atom   20 type  2   force =    -0.22894471    0.21341298   38.29497929
     atom   21 type  1   force =    -0.44322951    0.22906010   -0.90400371
     atom   22 type  2   force =    -0.53305368    2.32532479  -37.95616611
     atom   23 type  2   force =     0.03439284   -0.56646066   38.09398708
     atom   24 type  1   force =     0.13549827   -0.90193676   -5.21761282
     atom   25 type  2   force =     0.28039222   -0.72656861  -38.58400396
     atom   26 type  2   force =     0.25986695   -0.07346025   37.08562771
     atom   27 type  1   force =    -0.01525517   -0.54749739    2.03608634
     atom   28 type  2   force =    -0.03698246   -0.93501107  -37.96399746
     atom   29 type  2   force =     0.23118667    0.27743218   37.08403884
     atom   30 type  1   force =     0.29924627    1.09788799    0.06406540
     atom   31 type  2   force =    -1.20138656    0.07863725  -37.11545905
     atom   32 type  2   force =     0.48185625    0.08202819   38.32913417
     atom   33 type  1   force =    -0.19676904    0.78337737   -1.47281831
     atom   34 type  2   force =    -0.02900699    1.32142237  -38.96119467
     atom   35 type  2   force =     0.26487770   -0.45375470   37.53734691
     atom   36 type  3   force =    -0.27330721    0.18880306   -7.87037953
     The core correction contribution to forces
     atom    1 type  1   force =     0.00000000    0.00000000    0.00000000
     atom    2 type  2   force =     0.00045319    0.00000113    0.02032370
     atom    3 type  2   force =     0.00047917    0.00001384   -0.02081759
     atom    4 type  1   force =     0.00000000    0.00000000    0.00000000
     atom    5 type  2   force =    -0.00058787    0.00180727    0.02039018
     atom    6 type  2   force =     0.00023031   -0.00101133   -0.02091661
     atom    7 type  1   force =     0.00000000    0.00000000    0.00000000
     atom    8 type  2   force =    -0.00020041    0.00039156    0.02050930
     atom    9 type  2   force =    -0.00003747    0.00048896   -0.02095283
     atom   10 type  1   force =     0.00000000    0.00000000    0.00000000
     atom   11 type  2   force =    -0.00058337   -0.00046631    0.02065936
     atom   12 type  2   force =     0.00110585    0.00139336   -0.02085628
     atom   13 type  1   force =     0.00000000    0.00000000    0.00000000
     atom   14 type  2   force =     0.00055936    0.00065313    0.01900470
     atom   15 type  2   force =     0.00074296    0.00041315   -0.02056826
     atom   16 type  1   force =     0.00000000    0.00000000    0.00000000
     atom   17 type  2   force =    -0.00000457    0.00156152    0.02015089
     atom   18 type  2   force =     0.00001805   -0.00052672   -0.02102548
     atom   19 type  1   force =     0.00000000    0.00000000    0.00000000
     atom   20 type  2   force =     0.00010144    0.00079063   -0.02116562
     atom   21 type  1   force =     0.00000000    0.00000000    0.00000000
     atom   22 type  2   force =     0.00021956   -0.00191257    0.01844967
     atom   23 type  2   force =    -0.00042791    0.00130570   -0.02088360
     atom   24 type  1   force =     0.00000000    0.00000000    0.00000000
     atom   25 type  2   force =    -0.00850191    0.00432760    0.01199078
     atom   26 type  2   force =    -0.00029321    0.00072174   -0.02097666
     atom   27 type  1   force =     0.00000000    0.00000000    0.00000000
     atom   28 type  2   force =     0.00035079    0.00139680    0.02082395
     atom   29 type  2   force =    -0.00045446   -0.00045313   -0.02066196
     atom   30 type  1   force =     0.00000000    0.00000000    0.00000000
     atom   31 type  2   force =     0.00052504    0.00018990    0.02061654
     atom   32 type  2   force =    -0.00025536    0.00053362   -0.02102174
     atom   33 type  1   force =     0.00000000    0.00000000    0.00000000
     atom   34 type  2   force =     0.00017985    0.00076542    0.02117554
     atom   35 type  2   force =    -0.00004624    0.00099153   -0.02098157
     atom   36 type  3   force =     0.00000000    0.00000000    0.00000000
     The Hubbard contrib.    to forces
     atom    1 type  1   force =     0.00000000    0.00000000    0.00000000
     atom    2 type  2   force =     0.00000000    0.00000000    0.00000000
     atom    3 type  2   force =     0.00000000    0.00000000    0.00000000
     atom    4 type  1   force =     0.00000000    0.00000000    0.00000000
     atom    5 type  2   force =     0.00000000    0.00000000    0.00000000
     atom    6 type  2   force =     0.00000000    0.00000000    0.00000000
     atom    7 type  1   force =     0.00000000    0.00000000    0.00000000
     atom    8 type  2   force =     0.00000000    0.00000000    0.00000000
     atom    9 type  2   force =     0.00000000    0.00000000    0.00000000
     atom   10 type  1   force =     0.00000000    0.00000000    0.00000000
     atom   11 type  2   force =     0.00000000    0.00000000    0.00000000
     atom   12 type  2   force =     0.00000000    0.00000000    0.00000000
     atom   13 type  1   force =     0.00000000    0.00000000    0.00000000
     atom   14 type  2   force =     0.00000000    0.00000000    0.00000000
     atom   15 type  2   force =     0.00000000    0.00000000    0.00000000
     atom   16 type  1   force =     0.00000000    0.00000000    0.00000000
     atom   17 type  2   force =     0.00000000    0.00000000    0.00000000
     atom   18 type  2   force =     0.00000000    0.00000000    0.00000000
     atom   19 type  1   force =     0.00000000    0.00000000    0.00000000
     atom   20 type  2   force =     0.00000000    0.00000000    0.00000000
     atom   21 type  1   force =     0.00000000    0.00000000    0.00000000
     atom   22 type  2   force =     0.00000000    0.00000000    0.00000000
     atom   23 type  2   force =     0.00000000    0.00000000    0.00000000
     atom   24 type  1   force =     0.00000000    0.00000000    0.00000000
     atom   25 type  2   force =     0.00000000    0.00000000    0.00000000
     atom   26 type  2   force =     0.00000000    0.00000000    0.00000000
     atom   27 type  1   force =     0.00000000    0.00000000    0.00000000
     atom   28 type  2   force =     0.00000000    0.00000000    0.00000000
     atom   29 type  2   force =     0.00000000    0.00000000    0.00000000
     atom   30 type  1   force =     0.00000000    0.00000000    0.00000000
     atom   31 type  2   force =     0.00000000    0.00000000    0.00000000
     atom   32 type  2   force =     0.00000000    0.00000000    0.00000000
     atom   33 type  1   force =     0.00000000    0.00000000    0.00000000
     atom   34 type  2   force =     0.00000000    0.00000000    0.00000000
     atom   35 type  2   force =     0.00000000    0.00000000    0.00000000
     atom   36 type  3   force =     0.00000000    0.00000000    0.00000000
     The SCF correction term to forces
     atom    1 type  1   force =    -0.00037479   -0.00002743    0.00086935
     atom    2 type  2   force =     0.00014453   -0.00013240    0.00045533
     atom    3 type  2   force =     0.00001368   -0.00005105    0.00016219
     atom    4 type  1   force =    -0.00006063    0.00004058    0.00071279
     atom    5 type  2   force =    -0.00011145   -0.00005319    0.00033761
     atom    6 type  2   force =    -0.00008088   -0.00002629    0.00022277
     atom    7 type  1   force =    -0.00017236    0.00018429    0.00083568
     atom    8 type  2   force =    -0.00003256    0.00007712    0.00036395
     atom    9 type  2   force =    -0.00000962   -0.00000167    0.00016421
     atom   10 type  1   force =     0.00003070    0.00000768    0.00105549
     atom   11 type  2   force =    -0.00010847    0.00005273    0.00036646
     atom   12 type  2   force =    -0.00009226   -0.00003690    0.00027831
     atom   13 type  1   force =    -0.00011927   -0.00019476    0.00112664
     atom   14 type  2   force =    -0.00017608   -0.00005173    0.00046552
     atom   15 type  2   force =    -0.00003163    0.00000819    0.00031411
     atom   16 type  1   force =    -0.00011268   -0.00010512    0.00081579
     atom   17 type  2   force =     0.00001818   -0.00012602    0.00036140
     atom   18 type  2   force =     0.00001773    0.00000280    0.00023656
     atom   19 type  1   force =     0.00009482    0.00010190    0.00089222
     atom   20 type  2   force =    -0.00003164    0.00002764    0.00021546
     atom   21 type  1   force =    -0.00015791   -0.00000433    0.00108311
     atom   22 type  2   force =     0.00001864    0.00010882    0.00045718
     atom   23 type  2   force =     0.00003204   -0.00000583    0.00027308
     atom   24 type  1   force =     0.00051355   -0.00035421    0.00124990
     atom   25 type  2   force =     0.00000945   -0.00004375    0.00036244
     atom   26 type  2   force =     0.00007274   -0.00000971    0.00036220
     atom   27 type  1   force =     0.00016556   -0.00005145    0.00077262
     atom   28 type  2   force =     0.00009802   -0.00012574    0.00036898
     atom   29 type  2   force =     0.00007306    0.00005215    0.00016312
     atom   30 type  1   force =     0.00013419    0.00009558    0.00077070
     atom   31 type  2   force =     0.00008578    0.00006870    0.00034625
     atom   32 type  2   force =     0.00003019   -0.00002572    0.00018963
     atom   33 type  1   force =     0.00010166    0.00032513    0.00118049
     atom   34 type  2   force =     0.00008286    0.00023851    0.00042157
     atom   35 type  2   force =     0.00007255    0.00001959    0.00021797
     atom   36 type  3   force =    -0.00000237    0.00000441    0.00005708

     Total force =     0.096046     Total SCF correction =     0.003836
     Energy error            =      1.5E-02 Ry
     Gradient error          =      4.9E-02 Ry/Bohr

     number of scf cycles    =   2
     number of bfgs steps    =   1

     energy             old  =   -2205.5147729377 Ry
     energy             new  =   -2205.5299673951 Ry

     CASE: energy            _new < energy            _old

     new trust radius        =       0.0846647064 bohr
     new conv_thr            =       0.0000000495 Ry


ATOMIC_POSITIONS (angstrom)
Mo            6.5897659148        1.7687119952        2.8252880202
S             8.1614102974        0.8272585713        4.4338357166
S             8.1798942859        0.8197734844        1.2675056039
Mo            8.1000558844        4.5018799394        2.7175080594
S             6.4998455142        3.7144616251        4.3401855421
S             6.5552259724        3.5224244536        1.1213048605
Mo            6.4981661066        7.1978390910        2.6661777904
S             8.0836111459        6.3393841111        4.2613323056
S             8.0953386642        6.3123594808        1.0954249142
Mo            8.1527378301        9.9140045743        2.8211085083
S             6.5020887441        8.9403797653        4.3731524541
S             6.6172759871        9.0498715238        1.1437345947
Mo            3.4267422665        1.7502584013        2.7720780100
S             4.9735422823        0.8116939632        4.3653993672
S             5.0441251377        0.8498956226        1.2163911012
Mo            4.9822509155        4.5231510397        2.6372959373
S             3.4352251373        3.6742818677        4.2813874204
S             3.4342133207        3.5439542843        1.0729026030
Mo            3.4592200913        7.2045613233        2.6223535489
S             4.9854769675        6.3206853687        1.0368015729
Mo            5.0028906401        9.9063912170        2.7462223624
S             3.4650346634        8.9616758440        4.3285464798
S             3.4068630450        9.0665316463        1.1042282378
Mo            0.2723220936        1.7572315161        2.8131841154
S             1.9216176049        0.7741068987        4.4418491288
S             1.8480047963        0.8545178453        1.2035557628
Mo            1.8573120297        4.4911247333        2.6678049182
S             0.2716138653        3.6536743498        4.3322987143
S             0.2328700206        3.5260781863        1.1676221313
Mo            0.2681235993        7.2271217356        2.6997341094
S             1.9025608114        6.3119370452        4.2388543628
S             1.8535078941        6.3182749865        1.0543323863
Mo            1.8564113674        9.9362007458        2.7641162385
S             0.2976301332        9.0426496924        4.4002170203
S             0.2652109849        9.0510682485        1.1635043518
H             3.1264143299       10.9444312338        5.4575232863



     Writing config-only to output data dir ./MoS2-V-O.save/
     NEW-OLD atomic charge density approx. for the potential

     negative rho (up, down):  1.467E-04 0.000E+00

     total cpu time spent up to now is      167.2 secs

     Self-consistent Calculation

     iteration #  1     ecut=    80.00 Ry     beta= 0.70
     Davidson diagonalization with overlap
     ethr =  1.00E-06,  avg # of iterations = 16.0

     negative rho (up, down):  8.426E-05 0.000E+00

     total cpu time spent up to now is      181.6 secs

     total energy              =   -2205.54139085 Ry
     estimated scf accuracy    <       0.00122517 Ry

     iteration #  2     ecut=    80.00 Ry     beta= 0.70
     Davidson diagonalization with overlap
     ethr =  3.99E-07,  avg # of iterations =  2.0

     negative rho (up, down):  5.603E-05 0.000E+00

     total cpu time spent up to now is      201.4 secs

     total energy              =   -2205.54139388 Ry
     estimated scf accuracy    <       0.00025567 Ry

     iteration #  3     ecut=    80.00 Ry     beta= 0.70
     Davidson diagonalization with overlap
     ethr =  8.33E-08,  avg # of iterations =  6.0

     negative rho (up, down):  4.874E-05 0.000E+00

     total cpu time spent up to now is      214.7 secs

     total energy              =   -2205.54142908 Ry
     estimated scf accuracy    <       0.00002145 Ry

     iteration #  4     ecut=    80.00 Ry     beta= 0.70
     Davidson diagonalization with overlap
     ethr =  6.99E-09,  avg # of iterations =  9.0

     negative rho (up, down):  4.762E-05 0.000E+00

     total cpu time spent up to now is      232.2 secs

     total energy              =   -2205.54143609 Ry
     estimated scf accuracy    <       0.00000517 Ry

     iteration #  5     ecut=    80.00 Ry     beta= 0.70
     Davidson diagonalization with overlap
     ethr =  1.69E-09,  avg # of iterations =  2.0

     negative rho (up, down):  4.986E-05 0.000E+00

     total cpu time spent up to now is      244.1 secs

     total energy              =   -2205.54143658 Ry
     estimated scf accuracy    <       0.00000146 Ry

     iteration #  6     ecut=    80.00 Ry     beta= 0.70
     Davidson diagonalization with overlap
     ethr =  4.75E-10,  avg # of iterations =  4.0

     negative rho (up, down):  5.676E-05 0.000E+00

     total cpu time spent up to now is      256.3 secs

     total energy              =   -2205.54143674 Ry
     estimated scf accuracy    <       0.00000042 Ry

     iteration #  7     ecut=    80.00 Ry     beta= 0.70
     Davidson diagonalization with overlap
     ethr =  1.38E-10,  avg # of iterations =  5.0

     negative rho (up, down):  7.984E-05 0.000E+00

     total cpu time spent up to now is      269.1 secs

     total energy              =   -2205.54143668 Ry
     estimated scf accuracy    <       0.00000018 Ry

     iteration #  8     ecut=    80.00 Ry     beta= 0.70
     Davidson diagonalization with overlap
     ethr =  5.88E-11,  avg # of iterations =  4.0

     negative rho (up, down):  1.379E-04 0.000E+00

     total cpu time spent up to now is      271.2 secs

     End of self-consistent calculation

          k = 0.0000 0.0000 0.0000 (105382 PWs)   bands (ev):

   -62.8872 -62.8843 -62.8625 -62.8483 -62.8349 -62.8182 -62.8102 -62.8061
   -62.8014 -62.7993 -62.7804 -62.7641 -37.2311 -37.1710 -37.1532 -37.1454
   -37.1248 -37.1028 -37.0857 -37.0793 -37.0737 -37.0713 -37.0652 -37.0399
   -37.0352 -37.0299 -37.0160 -37.0136 -37.0111 -36.9945 -36.9918 -36.9891
   -36.9751 -36.9650 -36.9603 -36.9427 -36.9377 -36.9298 -36.9180 -36.9119
   -36.9062 -36.8900 -36.8771 -36.8642 -36.8545 -36.7948 -36.7636 -36.7236
   -16.0153 -15.2463 -15.1798 -15.0343 -14.9039 -14.8499 -14.5960 -14.5101
   -14.4482 -14.4225 -14.3986 -14.3694 -14.3522 -14.2919 -14.1759 -14.1321
   -14.1274 -14.1239 -14.0454 -13.9059 -13.8569 -13.8438 -13.8012  -8.0083
    -7.6168  -7.4080  -7.2885  -7.2706  -7.2297  -7.1860  -7.1431  -6.9588
    -6.8488  -6.7795  -6.7617  -6.6830  -6.5717  -6.5096  -6.4807  -6.4182
    -6.3475  -6.2631  -6.0182  -5.9609  -5.9217  -5.8984  -5.8297  -5.7911
    -5.7757  -5.7128  -5.6951  -5.6604  -5.6359  -5.5579  -5.5322  -5.4726
    -5.3885  -5.3561  -5.1738  -5.1588  -5.0581  -5.0031  -4.9941  -4.9745
    -4.9281  -4.8481  -4.6518  -4.5329  -4.4367  -4.3315  -4.3000  -4.2267
    -4.2092  -4.1164  -4.0495  -3.9385  -3.8271  -3.7878  -3.7395  -3.6970
    -3.6620  -3.6004  -3.5467  -3.5192  -3.4987  -3.4646  -3.4392  -3.3874
    -3.3564  -3.2214  -3.1388  -2.9001  -2.8903  -2.7919  -2.7861  -2.7536
    -2.7274  -2.7095  -2.6664  -2.6300  -2.5665  -2.3080  -2.0943  -2.0007
    -1.9711  -1.1004  -0.7835  -0.6885  -0.1741  -0.1441  -0.1028  -0.0456
     0.0942   0.1000   0.1381   0.2466   0.2642   0.2905   0.3777   0.4492
     0.4614   0.5406   0.5610   0.5925   0.6119   0.6439   0.7162   0.7391
     0.7560   0.7866   0.8392   0.8838   0.9463   0.9757   1.0256   1.2745
     1.3698

     the Fermi energy is    -1.1005 ev

!    total energy              =   -2205.54143655 Ry
     estimated scf accuracy    <       0.00000004 Ry
     smearing contrib. (-TS)   =      -0.00566720 Ry
     internal energy E=F+TS    =   -2205.53576935 Ry

     The total energy is F=E-TS. E is the sum of the following terms:
     one-electron contribution =  -18040.93438685 Ry
     hartree contribution      =    9007.15871475 Ry
     xc contribution           =    -385.19788820 Ry
     ewald contribution        =    7213.43779095 Ry

     convergence has been achieved in   8 iterations

     negative rho (up, down):  1.379E-04 0.000E+00

     Forces acting on atoms (cartesian axes, Ry/au):

     atom    1 type  1   force =    -0.00490711   -0.00446974   -0.00267004
     atom    2 type  2   force =    -0.00257075    0.00702600   -0.00292207
     atom    3 type  2   force =    -0.00977179    0.00474058   -0.01495440
     atom    4 type  1   force =     0.00429703    0.00228105    0.00124110
     atom    5 type  2   force =     0.00201388   -0.00564679   -0.00426741
     atom    6 type  2   force =     0.00137975    0.00500042    0.00232286
     atom    7 type  1   force =     0.00374558   -0.00690684    0.00149211
     atom    8 type  2   force =     0.00167779   -0.00322443    0.00973696
     atom    9 type  2   force =     0.00941293    0.00435700    0.00282531
     atom   10 type  1   force =     0.00025727    0.00746204   -0.00003797
     atom   11 type  2   force =     0.00378508   -0.00221088   -0.00955228
     atom   12 type  2   force =    -0.00384872   -0.00067301    0.00078360
     atom   13 type  1   force =     0.00303419   -0.00058112    0.00289796
     atom   14 type  2   force =     0.00584760    0.00028083    0.00208593
     atom   15 type  2   force =    -0.00640638    0.00121970   -0.00455586
     atom   16 type  1   force =     0.00190829    0.00359983    0.00203881
     atom   17 type  2   force =     0.00465994    0.00193556    0.00178909
     atom   18 type  2   force =    -0.00125595   -0.00062595    0.00794410
     atom   19 type  1   force =     0.00125895   -0.00138187    0.00444593
     atom   20 type  2   force =     0.00240503   -0.00442969   -0.00412352
     atom   21 type  1   force =    -0.00172512    0.00205014    0.00116556
     atom   22 type  2   force =    -0.00219311    0.00176818   -0.00125872
     atom   23 type  2   force =     0.00036893   -0.00089501    0.00145541
     atom   24 type  1   force =    -0.00170766   -0.00096360   -0.00470188
     atom   25 type  2   force =     0.03847780   -0.01510148    0.02559055
     atom   26 type  2   force =    -0.00541951    0.00086382   -0.00272395
     atom   27 type  1   force =    -0.00237450   -0.00119497    0.00540943
     atom   28 type  2   force =    -0.00132674   -0.00345786   -0.00423115
     atom   29 type  2   force =    -0.00042083    0.00371730   -0.00642690
     atom   30 type  1   force =    -0.00083484   -0.00224718    0.00560144
     atom   31 type  2   force =     0.00088267   -0.00026440    0.00591164
     atom   32 type  2   force =    -0.00521047    0.00328800    0.00552229
     atom   33 type  1   force =     0.00097179    0.00047208    0.00477367
     atom   34 type  2   force =    -0.00149782   -0.01982072   -0.01321233
     atom   35 type  2   force =    -0.00538218    0.00613678    0.00208566
     atom   36 type  3   force =    -0.02953101    0.01789619   -0.02148095
     The non-local contrib.  to forces
     atom    1 type  1   force =     0.00134203    0.02392506   -0.00838500
     atom    2 type  2   force =    -0.00887492   -0.00648379   -0.25884328
     atom    3 type  2   force =    -0.00927173   -0.00350157    0.26230494
     atom    4 type  1   force =     0.00293920    0.00707844    0.00388373
     atom    5 type  2   force =     0.00665322   -0.03234055   -0.25504528
     atom    6 type  2   force =    -0.00104885    0.00582619    0.26714117
     atom    7 type  1   force =    -0.01997549    0.00175706   -0.02488039
     atom    8 type  2   force =     0.00730120   -0.00108176   -0.25854478
     atom    9 type  2   force =     0.00440949   -0.00982370    0.27103064
     atom   10 type  1   force =     0.00067746    0.00025700   -0.00110603
     atom   11 type  2   force =     0.01193002    0.00325843   -0.26211762
     atom   12 type  2   force =    -0.01455021   -0.01888244    0.26478028
     atom   13 type  1   force =    -0.00306884    0.02076691   -0.00529586
     atom   14 type  2   force =    -0.00351878   -0.01894728   -0.23648352
     atom   15 type  2   force =    -0.01049202   -0.00697938    0.26265734
     atom   16 type  1   force =     0.00101329    0.03337331   -0.03117609
     atom   17 type  2   force =     0.00169750   -0.02946929   -0.24794488
     atom   18 type  2   force =    -0.00168359   -0.00028612    0.27141284
     atom   19 type  1   force =     0.01576958    0.00091849   -0.02143205
     atom   20 type  2   force =     0.00048998   -0.01976512    0.26197880
     atom   21 type  1   force =    -0.00150153    0.02558074    0.00414638
     atom   22 type  2   force =    -0.00478470    0.02101715   -0.22129085
     atom   23 type  2   force =     0.00554565   -0.01797212    0.26550115
     atom   24 type  1   force =     0.01182514    0.01215957   -0.01000284
     atom   25 type  2   force =     0.17104686   -0.09023633   -0.09808300
     atom   26 type  2   force =     0.00349684   -0.01265745    0.26878099
     atom   27 type  1   force =    -0.00545146    0.00885441    0.00662444
     atom   28 type  2   force =    -0.00656135   -0.01650096   -0.27085134
     atom   29 type  2   force =     0.00322565    0.00129500    0.26406478
     atom   30 type  1   force =    -0.00119483    0.01815140    0.00780503
     atom   31 type  2   force =    -0.00989456   -0.00134073   -0.25998559
     atom   32 type  2   force =     0.00135964   -0.01101470    0.27277798
     atom   33 type  1   force =    -0.00342278    0.00877922    0.00590650
     atom   34 type  2   force =     0.00059356   -0.01751529   -0.27609236
     atom   35 type  2   force =    -0.00096607   -0.01084105    0.26460471
     atom   36 type  3   force =    -0.01099732    0.00718199   -0.01273223
     The ionic contribution  to forces
     atom    1 type  1   force =    -0.11301007    0.72579569    5.66442940
     atom    2 type  2   force =    -0.22222374    0.21604966   39.38696902
     atom    3 type  2   force =    -0.18239254   -0.05444488  -36.42604557
     atom    4 type  1   force =     0.01882211    0.51232960    0.80389451
     atom    5 type  2   force =    -0.92707214    1.48650292   38.62121985
     atom    6 type  2   force =     0.24284933   -0.55145433  -37.90307658
     atom    7 type  1   force =    -2.74055547   -2.27908635    2.45651452
     atom    8 type  2   force =    -0.97969644    0.05671789   37.67352315
     atom    9 type  2   force =     0.35563739   -0.06856232  -37.99890761
     atom   10 type  1   force =    -0.76328672   -0.40692855    5.15328060
     atom   11 type  2   force =    -0.40964171   -1.71664851   38.90362664
     atom   12 type  2   force =     0.28094934    0.55475546  -37.75171425
     atom   13 type  1   force =     0.21083998    1.36965576    2.22314851
     atom   14 type  2   force =     0.59433484    0.30465763   38.34955727
     atom   15 type  2   force =     0.22277476    0.00892135  -36.95153601
     atom   16 type  1   force =    -0.02588916    3.64243104    0.74989633
     atom   17 type  2   force =     0.77840309    1.59697330   37.88780221
     atom   18 type  2   force =    -0.12607810   -0.54276875  -38.40858678
     atom   19 type  1   force =     2.66414402   -2.38612216    0.38795145
     atom   20 type  2   force =     0.20560549   -0.16395041  -38.60779148
[...]
     atom   27 type  1   force =    -0.00677958    0.00828161    0.00355687
     atom   28 type  2   force =    -0.00050480    0.00102678   -0.26390497
     atom   29 type  2   force =    -0.00321941   -0.01202441    0.26927654
     atom   30 type  1   force =    -0.00296070    0.01860822    0.00446355
     atom   31 type  2   force =    -0.00766511   -0.00150606   -0.26493683
     atom   32 type  2   force =     0.00556575   -0.01258063    0.26794064
     atom   33 type  1   force =    -0.00402158    0.00874821   -0.00246191
     atom   34 type  2   force =     0.00714069   -0.00670611   -0.26816039
     atom   35 type  2   force =    -0.00351736   -0.01345041    0.26604904
     atom   36 type  3   force =    -0.03381523    0.02079897   -0.03698011
     The ionic contribution  to forces
     atom    1 type  1   force =    -0.24420309    0.71721500    1.77404898
     atom    2 type  2   force =     0.05947384    0.13794586   38.43838528
     atom    3 type  2   force =    -0.06392989   -0.29949977  -38.11351747
     atom    4 type  1   force =    -0.11964427    0.43947672   -0.22168526
     atom    5 type  2   force =    -0.71046346    1.18382922   38.27685617
     atom    6 type  2   force =    -0.04981617   -0.29867927  -38.11459667
     atom    7 type  1   force =    -2.97554400   -1.58930371    2.38135786
     atom    8 type  2   force =    -1.16091744    0.06306000   38.31355370
     atom    9 type  2   force =     0.34940420    0.10711171  -38.13040309
     atom   10 type  1   force =    -0.40417207   -0.44174378    1.96263199
     atom   11 type  2   force =    -0.32688355   -1.50200947   38.27171611
     atom   12 type  2   force =     0.07518954    0.24926745  -37.84602521
     atom   13 type  1   force =    -0.66124795    1.22515150    4.88677839
     atom   14 type  2   force =     0.65622457    0.05955716   38.38968768
     atom   15 type  2   force =    -0.19052747   -0.05897846  -37.34744216
     atom   16 type  1   force =    -0.26890529    3.40897475    2.24948581
     atom   17 type  2   force =     0.74481093    1.41125906   38.30047502
     atom   18 type  2   force =    -0.16931610   -0.45779109  -37.52731969
     atom   19 type  1   force =     2.79532577   -2.01315920    2.76237099
     atom   20 type  2   force =    -0.09673544    0.03675579  -38.51069318
     atom   21 type  1   force =     0.23773454   -0.70110605    0.99733582
     atom   22 type  2   force =     0.73037682   -2.01676952   38.39272006
     atom   23 type  2   force =    -0.21184490    0.31458207  -37.62611300
     atom   24 type  1   force =     1.37671815   -0.25558456   -0.49194763
     atom   25 type  2   force =    -1.73520848    1.28100968   38.79079210
     atom   26 type  2   force =     0.20350139   -0.15441003  -36.81627079
     atom   27 type  1   force =     0.37869181    0.22115776    0.53511373
     atom   28 type  2   force =     0.01865388    0.28486040   37.87407121
     atom   29 type  2   force =     0.24599024    0.09625348  -38.17505123
     atom   30 type  1   force =     0.09594431   -0.65942614    1.95460731
     atom   31 type  2   force =     1.11126833    0.02248816   38.14852497
     atom   32 type  2   force =    -0.20659839    0.02814173  -37.76607488
     atom   33 type  1   force =    -0.06199725   -0.03346294    4.30029478
     atom   34 type  2   force =    -0.32211085   -0.57641176   38.81023392
     atom   35 type  2   force =     0.18025818    0.21387453  -37.41522479
     atom   36 type  3   force =     0.72049956   -0.44363625    8.29132321
     The local contribution  to forces
     atom    1 type  1   force =     0.24101051   -0.74080584   -1.77318495
     atom    2 type  2   force =    -0.04386371   -0.12411623  -38.20468114
     atom    3 type  2   force =     0.06362115    0.30285455   37.86657051
     atom    4 type  1   force =     0.11606237   -0.44702095    0.21764064
     atom    5 type  2   force =     0.71039298   -1.16199912  -38.04215132
     atom    6 type  2   force =     0.04638951    0.30239323   37.86826234
     atom    7 type  1   force =     2.99272413    1.58371862   -2.35579356
     atom    8 type  2   force =     1.15062691   -0.06662534  -38.07141334
     atom    9 type  2   force =    -0.34602962   -0.09392080   37.88421779
     atom   10 type  1   force =     0.40424528    0.43554932   -1.96616053
     atom   11 type  2   force =     0.32049976    1.50229900  -38.03497477
     atom   12 type  2   force =    -0.06621545   -0.23820603   37.59864585
     atom   13 type  1   force =     0.66497250   -1.24869471   -4.87680571
     atom   14 type  2   force =    -0.65345385   -0.04706413  -38.15774707
     atom   15 type  2   force =     0.18671844    0.06633090   37.10499892
     atom   16 type  1   force =     0.26351136   -3.44820990   -2.21565572
     atom   17 type  2   force =    -0.74143092   -1.38373167  -38.07073338
     atom   18 type  2   force =     0.16885811    0.45931228   37.28119938
     atom   19 type  1   force =    -2.81431138    2.01496575   -2.73609657
     atom   20 type  2   force =     0.09499888   -0.02402770   38.26867602
     atom   21 type  1   force =    -0.23851625    0.67787068   -0.99973238
     atom   22 type  2   force =    -0.72553987    2.01221861  -38.17037942
     atom   23 type  2   force =     0.20519478   -0.29667270   37.38066101
     atom   24 type  1   force =    -1.38343662    0.24169272    0.49041214
     atom   25 type  2   force =     1.49722296   -1.15659006  -38.76490635
     atom   26 type  2   force =    -0.20380274    0.16499078   36.56652489
     atom   27 type  1   force =    -0.37194240   -0.22946710   -0.53881819
     atom   28 type  2   force =    -0.01783343   -0.28556624  -37.63063918
     atom   29 type  2   force =    -0.24312121   -0.08539449   37.92737051
     atom   30 type  1   force =    -0.09299990    0.64028721   -1.95968025
     atom   31 type  2   force =    -1.10473893   -0.02150449  -37.90422792
     atom   32 type  2   force =     0.20102747   -0.01567174   37.51859394
     atom   33 type  1   force =     0.06587162    0.02458573   -4.29767634
     atom   34 type  2   force =     0.31569071    0.58269936  -38.56334028
     atom   35 type  2   force =    -0.17755654   -0.20091955   37.17008248
     atom   36 type  3   force =    -0.68767478    0.42460638   -8.25438078
     The core correction contribution to forces
     atom    1 type  1   force =     0.00000000    0.00000000    0.00000000
     atom    2 type  2   force =     0.00087456    0.00076999    0.02025582
     atom    3 type  2   force =    -0.00032628   -0.00000558   -0.02094494
     atom    4 type  1   force =     0.00000000    0.00000000    0.00000000
     atom    5 type  2   force =    -0.00006968    0.00096323    0.02035104
     atom    6 type  2   force =    -0.00008926   -0.00026921   -0.02086679
     atom    7 type  1   force =     0.00000000    0.00000000    0.00000000
     atom    8 type  2   force =    -0.00054160    0.00002021    0.02077165
     atom    9 type  2   force =     0.00052752    0.00076437   -0.02095192
     atom   10 type  1   force =     0.00000000    0.00000000    0.00000000
     atom   11 type  2   force =    -0.00001975   -0.00018343    0.02036813
     atom   12 type  2   force =     0.00070157    0.00083017   -0.02089696
     atom   13 type  1   force =     0.00000000    0.00000000    0.00000000
     atom   14 type  2   force =     0.00066959    0.00024860    0.02005959
     atom   15 type  2   force =    -0.00040884    0.00032620   -0.02071469
     atom   16 type  1   force =     0.00000000    0.00000000    0.00000000
     atom   17 type  2   force =     0.00035170    0.00162901    0.02000439
     atom   18 type  2   force =    -0.00009724   -0.00050567   -0.02079766
     atom   19 type  1   force =     0.00000000    0.00000000    0.00000000
     atom   20 type  2   force =    -0.00013535    0.00063272   -0.02115551
     atom   21 type  1   force =     0.00000000    0.00000000    0.00000000
     atom   22 type  2   force =     0.00024836   -0.00083140    0.01952899
     atom   23 type  2   force =    -0.00067627    0.00123054   -0.02088487
     atom   24 type  1   force =     0.00000000    0.00000000    0.00000000
     atom   25 type  2   force =    -0.01647916    0.00889553    0.00376505
     atom   26 type  2   force =     0.00032194    0.00022323   -0.02113000
     atom   27 type  1   force =     0.00000000    0.00000000    0.00000000
     atom   28 type  2   force =    -0.00012552    0.00001417    0.02072877
     atom   29 type  2   force =     0.00018162    0.00063004   -0.02093323
     atom   30 type  1   force =     0.00000000    0.00000000    0.00000000
     atom   31 type  2   force =     0.00035681    0.00032770    0.02075748
     atom   32 type  2   force =    -0.00054165    0.00065928   -0.02087837
     atom   33 type  1   force =     0.00000000    0.00000000    0.00000000
     atom   34 type  2   force =    -0.00059028    0.00011524    0.02089635
     atom   35 type  2   force =     0.00036144    0.00085475   -0.02091550
     atom   36 type  3   force =     0.00000000    0.00000000    0.00000000
     The Hubbard contrib.    to forces
     atom    1 type  1   force =     0.00000000    0.00000000    0.00000000
     atom    2 type  2   force =     0.00000000    0.00000000    0.00000000
     atom    3 type  2   force =     0.00000000    0.00000000    0.00000000
     atom    4 type  1   force =     0.00000000    0.00000000    0.00000000
     atom    5 type  2   force =     0.00000000    0.00000000    0.00000000
     atom    6 type  2   force =     0.00000000    0.00000000    0.00000000
     atom    7 type  1   force =     0.00000000    0.00000000    0.00000000
     atom    8 type  2   force =     0.00000000    0.00000000    0.00000000
     atom    9 type  2   force =     0.00000000    0.00000000    0.00000000
     atom   10 type  1   force =     0.00000000    0.00000000    0.00000000
     atom   11 type  2   force =     0.00000000    0.00000000    0.00000000
     atom   12 type  2   force =     0.00000000    0.00000000    0.00000000
     atom   13 type  1   force =     0.00000000    0.00000000    0.00000000
     atom   14 type  2   force =     0.00000000    0.00000000    0.00000000
     atom   15 type  2   force =     0.00000000    0.00000000    0.00000000
     atom   16 type  1   force =     0.00000000    0.00000000    0.00000000
     atom   17 type  2   force =     0.00000000    0.00000000    0.00000000
     atom   18 type  2   force =     0.00000000    0.00000000    0.00000000
     atom   19 type  1   force =     0.00000000    0.00000000    0.00000000
     atom   20 type  2   force =     0.00000000    0.00000000    0.00000000
     atom   21 type  1   force =     0.00000000    0.00000000    0.00000000
     atom   22 type  2   force =     0.00000000    0.00000000    0.00000000
     atom   23 type  2   force =     0.00000000    0.00000000    0.00000000
     atom   24 type  1   force =     0.00000000    0.00000000    0.00000000
     atom   25 type  2   force =     0.00000000    0.00000000    0.00000000
     atom   26 type  2   force =     0.00000000    0.00000000    0.00000000
     atom   27 type  1   force =     0.00000000    0.00000000    0.00000000
     atom   28 type  2   force =     0.00000000    0.00000000    0.00000000
     atom   29 type  2   force =     0.00000000    0.00000000    0.00000000
     atom   30 type  1   force =     0.00000000    0.00000000    0.00000000
     atom   31 type  2   force =     0.00000000    0.00000000    0.00000000
     atom   32 type  2   force =     0.00000000    0.00000000    0.00000000
     atom   33 type  1   force =     0.00000000    0.00000000    0.00000000
     atom   34 type  2   force =     0.00000000    0.00000000    0.00000000
     atom   35 type  2   force =     0.00000000    0.00000000    0.00000000
     atom   36 type  3   force =     0.00000000    0.00000000    0.00000000
     The SCF correction term to forces
     atom    1 type  1   force =    -0.00002903    0.00002046    0.00003611
     atom    2 type  2   force =     0.00000315    0.00000030    0.00004280
     atom    3 type  2   force =    -0.00000740   -0.00000138   -0.00001441
     atom    4 type  1   force =    -0.00001036    0.00000844    0.00003146
     atom    5 type  2   force =    -0.00001006   -0.00000194    0.00001690
     atom    6 type  2   force =    -0.00000617    0.00000192    0.00001265
     atom    7 type  1   force =     0.00000005   -0.00000323    0.00002473
     atom    8 type  2   force =     0.00000568    0.00000066    0.00001508
     atom    9 type  2   force =     0.00001002    0.00000339    0.00001033
     atom   10 type  1   force =     0.00000795   -0.00004100    0.00004621
     atom   11 type  2   force =     0.00000381    0.00000047    0.00001597
     atom   12 type  2   force =    -0.00001023   -0.00000911    0.00000517
     atom   13 type  1   force =     0.00000728   -0.00003125    0.00006421
     atom   14 type  2   force =    -0.00002756    0.00001012    0.00002272
     atom   15 type  2   force =    -0.00000379    0.00000376    0.00001525
     atom   16 type  1   force =     0.00000468   -0.00001868    0.00004136
     atom   17 type  2   force =     0.00000510   -0.00000688    0.00002807
     atom   18 type  2   force =     0.00000379    0.00000610    0.00000730
     atom   19 type  1   force =    -0.00000205    0.00001172    0.00002249
     atom   20 type  2   force =    -0.00000210   -0.00000064   -0.00000009
     atom   21 type  1   force =    -0.00001504    0.00000468    0.00003590
     atom   22 type  2   force =    -0.00001150    0.00001442    0.00001456
     atom   23 type  2   force =    -0.00000165   -0.00000921    0.00000256
     atom   24 type  1   force =     0.00003211   -0.00000329    0.00006325
     atom   25 type  2   force =     0.00002699   -0.00000600    0.00002140
     atom   26 type  2   force =     0.00001347   -0.00001278    0.00001564
     atom   27 type  1   force =     0.00000742    0.00001941    0.00003302
     atom   28 type  2   force =     0.00000291    0.00000238    0.00002995
     atom   29 type  2   force =     0.00000437    0.00001623   -0.00000315
     atom   30 type  1   force =     0.00000952   -0.00000902    0.00002361
     atom   31 type  2   force =    -0.00000897   -0.00000305    0.00000962
     atom   32 type  2   force =    -0.00001003   -0.00000173    0.00000314
     atom   33 type  1   force =     0.00001854    0.00001785    0.00004033
     atom   34 type  2   force =     0.00000288    0.00000458    0.00001963
     atom   35 type  2   force =     0.00001211   -0.00000160    0.00001062
     atom   36 type  3   force =    -0.00000037    0.00000226   -0.00000009

     Total force =     0.004962     Total SCF correction =     0.000195
     Energy error            =      6.2E-05 Ry
     Gradient error          =      1.9E-03 Ry/Bohr

     bfgs converged in  19 scf cycles and  18 bfgs steps
     (criteria: energy <  1.0E-04 Ry, force <  1.0E-02 Ry/Bohr)

     End of BFGS Geometry Optimization

     Final energy             =   -2205.5810754685 Ry

     File ./MoS2-V-O.bfgs deleted, as requested
Begin final coordinates

ATOMIC_POSITIONS (angstrom)
Mo            6.5707989466        1.7571576369        2.7482354869
S             8.1622307220        0.8647253122        4.3383189880
S             8.1295261604        0.8462900735        1.1320410584
Mo            8.1257237224        4.5027410316        2.6946524484
S             6.5403005562        3.6609237559        4.3052279058
S             6.5529727255        3.5636679521        1.1040482911
Mo            6.5358489708        7.1767272134        2.6665011432
S             8.0851164596        6.2973657397        4.3050015961
S             8.1465826715        6.3394555853        1.0999638140
Mo            8.1584939216        9.9501129507        2.7541800378
S             6.5544845332        8.9560435197        4.3164534036
S             6.5976517563        9.0377780231        1.1263472278
Mo            3.4351713520        1.7408650106        2.8157507104
S             5.0415237223        0.8127310438        4.3512430746
S             4.9723778453        0.8350961802        1.1850663125
Mo            5.0048930892        4.5387056707        2.6677234148
S             3.4729273997        3.6842908192        4.3258208105
S             3.4423385261        3.5397068454        1.1421158665
Mo            3.4750814895        7.1706296189        2.6783691089
S             4.9958698603        6.3118029001        1.0529265942
Mo            5.0049853193        9.9022580982        2.7407773621
S             3.4921657997        8.9229732465        4.3446279487
S             3.3926937417        9.0279623099        1.1520462238
Mo            0.2431916228        1.7638925550        2.6965965608
S             1.9620493436        0.7599579825        4.5544806984
S             1.8684370618        0.8335259253        1.2152363968
Mo            1.8598648329        4.4785347515        2.7141451908
S             0.2565843807        3.5911195446        4.2944967434
S             0.2617848514        3.5728459199        1.1076693299
Mo            0.2679079045        7.2161493690        2.7399761103
S             1.8986123077        6.2928029514        4.3045336071
S             1.8541820156        6.3159368148        1.1231462791
Mo            1.8624479079        9.9295476190        2.8111496791
S             0.2544629536        9.0166414707        4.3727068014
S             0.2920135188        9.0500847591        1.1776998169
H             2.8533023527       11.1487962103        5.4954854947
End final coordinates



     Writing all to output data dir ./MoS2-V-O.save/
 
     init_run     :      2.37s CPU      2.65s WALL (       1 calls)
     electrons    :   1566.89s CPU   1741.99s WALL (      19 calls)
     update_pot   :     25.16s CPU     26.52s WALL (      18 calls)
     forces       :     25.02s CPU     28.97s WALL (      19 calls)

     Called by init_run:
     wfcinit      :      0.38s CPU      0.43s WALL (       1 calls)
     potinit      :      1.32s CPU      1.44s WALL (       1 calls)
     hinit0       :      0.16s CPU      0.18s WALL (       1 calls)

     Called by electrons:
     c_bands      :    197.12s CPU    200.11s WALL (     159 calls)
     sum_band     :     46.15s CPU     58.68s WALL (     159 calls)
     v_of_rho     :     64.21s CPU     77.63s WALL (     167 calls)
     newd         :     21.76s CPU     33.74s WALL (     167 calls)
     mix_rho      :   1245.49s CPU   1379.68s WALL (     159 calls)

     Called by c_bands:
     init_us_2    :      3.37s CPU      3.64s WALL (     319 calls)
     init_us_2:cp :      3.37s CPU      3.64s WALL (     319 calls)
     regterg      :    185.36s CPU    188.08s WALL (     159 calls)

     Called by *egterg:
     rdiaghg      :     15.43s CPU     15.61s WALL (     849 calls)
     h_psi        :    106.36s CPU    107.42s WALL (     879 calls)
     s_psi        :     13.59s CPU     13.63s WALL (     879 calls)
     g_psi        :      0.73s CPU      0.74s WALL (     719 calls)

     Called by h_psi:
     h_psi:calbec :     14.99s CPU     15.09s WALL (     879 calls)
     vloc_psi     :     76.33s CPU     77.18s WALL (     879 calls)
     add_vuspsi   :     13.45s CPU     13.55s WALL (     879 calls)

     General routines
     calbec       :     21.56s CPU     21.68s WALL (    1114 calls)
     fft          :     41.55s CPU     49.31s WALL (   11299 calls)
     ffts         :    561.72s CPU    691.21s WALL (  303859 calls)
     fftw         :     65.43s CPU     66.03s WALL (   97759 calls)
     interpolate  :      1.19s CPU      1.42s WALL (     167 calls)
 
     Parallel routines
 
     PWSCF        :  27m 2.81s CPU  30m 5.83s WALL

 
   This run was terminated on:  11:36:54   4Nov2023            

=------------------------------------------------------------------------------=
   JOB DONE.
=------------------------------------------------------------------------------=
