
     Program PWSCF v.7.2 starts on  4Nov2023 at 11:12:32 

     This program is part of the open-source Quantum ESPRESSO suite
     for quantum simulation of materials; please cite
         "P. Giannozzi et al., J. Phys.:Condens. Matter 21 395502 (2009);
         "P. Giannozzi et al., J. Phys.:Condens. Matter 29 465901 (2017);
         "P. Giannozzi et al., J. Chem. Phys. 152 154105 (2020);
          URL http://www.quantum-espresso.org", 
     in publications or presentations arising from this work. More details at
     http://www.quantum-espresso.org/quote

     Parallel version (MPI & OpenMP), running on      48 processor cores
     Number of MPI processes:                48
     Threads/MPI process:                     1

     MPI processes distributed on     1 nodes
     62927 MiB available memory on the printing compute node when the environment starts
 
     Waiting for input...
     Reading input from standard input
Warning: card &CELL ignored
Warning: card CELL_DYNAMICS = 'BFGS', ignored
Warning: card CELL_DOFREE = '2DXY' ignored
Warning: card / ignored

     Current dimensions of program PWSCF are:
     Max number of different atomic species (ntypx) = 10
     Max number of k-points (npk) =  40000
     Max angular momentum in pseudopotentials (lmaxx) =  4

     IMPORTANT: XC functional enforced from input :
     Exchange-correlation= RVV10
                           (   1   4  13   4  26   0   0)
     Any further DFT definition will be discarded
     Please, verify this is what you really want


     gamma-point specific algorithms are used
     signal trapping enabled: kill the code with -SIGUSR1 to stop cleanly the simulation 
 
     R & G space division:  proc/nbgrp/npool/nimage =      48
     Subspace diagonalization in iterative solution of the eigenvalue problem:
     one sub-group per band group will be used
     scalapack distributed-memory algorithm (size of sub-group:  2*  2 procs)

 
     Parallelization info
     --------------------
     sticks:   dense  smooth     PW     G-vecs:    dense   smooth      PW
     Min         243     194     47                49060    35090    4376
     Max         246     196     50                49086    35128    4410
     Sum       11735    9389   2349              2355467  1685513  210763
 
     Using Slab Decomposition
 


     bravais-lattice index     =            0
     lattice parameter (alat)  =      17.8707  a.u.
     unit-cell volume          =   17436.2743 (a.u.)^3
     number of atoms/cell      =           36
     number of atomic types    =            3
     number of electrons       =       307.00
     number of Kohn-Sham states=          185
     kinetic-energy cutoff     =      80.0000  Ry
     charge density cutoff     =     400.0000  Ry
     scf convergence threshold =      1.0E-06
     mixing beta               =       0.7000
     number of iterations used =            8  local-TF  mixing
     energy convergence thresh.=      1.0E-04
     force convergence thresh. =      1.0E-02
     Exchange-correlation= RVV10
                           (   1   4  13   4  26   0   0)
     nstep                     =          200


     celldm(1)=  17.870686  celldm(2)=   0.000000  celldm(3)=   0.000000
     celldm(4)=   0.000000  celldm(5)=   0.000000  celldm(6)=   0.000000

     crystal axes: (cart. coord. in units of alat)
               a(1) = (   1.000000   0.000000   0.000000 )  
               a(2) = (   0.000000   1.155671   0.000000 )  
               a(3) = (   0.000000   0.000000   2.643601 )  

     reciprocal axes: (cart. coord. in units 2 pi/alat)
               b(1) = (  1.000000  0.000000  0.000000 )  
               b(2) = (  0.000000  0.865298  0.000000 )  
               b(3) = (  0.000000  0.000000  0.378272 )  


     PseudoPot. # 1 for Mo read from file:
     ../pseudo/Mo_ONCV_PBE-1.0.oncvpsp.upf
     MD5 check sum: 1b5d28e075c9ccadda658a603575cd1f
     Pseudo is Norm-conserving, Zval = 14.0
     Generated using ONCVPSP code by D. R. Hamann
     Using radial grid of 1526 points,  6 beta functions with: 
                l(1) =   0
                l(2) =   0
                l(3) =   1
                l(4) =   1
                l(5) =   2
                l(6) =   2

     PseudoPot. # 2 for S  read from file:
     ../pseudo/s_pbe_v1.4.uspp.F.UPF
     MD5 check sum: 88d86576ff6df21479756cfb9bdac1df
     Pseudo is Ultrasoft + core correction, Zval =  6.0
     Generated by new atomic code, or converted to UPF format
     Using radial grid of  907 points,  6 beta functions with: 
                l(1) =   0
                l(2) =   0
                l(3) =   1
                l(4) =   1
                l(5) =   2
                l(6) =   2
     Q(r) pseudized with  8 coefficients,  rinner =    1.300   1.300   1.300
                                                       1.300   1.300

     PseudoPot. # 3 for H  read from file:
     ../pseudo/H_ONCV_PBE-1.0.oncvpsp.upf
     MD5 check sum: 1790becc920ee074925cf490c71280fe
     Pseudo is Norm-conserving, Zval =  1.0
     Generated using ONCVPSP code by D. R. Hamann
     Using radial grid of 1166 points,  2 beta functions with: 
                l(1) =   0
                l(2) =   0

     atomic species   valence    mass     pseudopotential
        Mo            14.00    95.94000     Mo( 1.00)
        S              6.00    32.06500     S ( 1.00)
        H              1.00     1.00794     H ( 1.00)

     No symmetry found



   Cartesian axes

     site n.     atom                  positions (alat units)
         1           Mo  tau(   1) = (   0.6952221   0.1890506   0.2985846  )
         2           S   tau(   2) = (   0.8646417   0.0856217   0.4689279  )
         3           S   tau(   3) = (   0.8663890   0.0857843   0.1351291  )
         4           Mo  tau(   4) = (   0.8560186   0.4753274   0.2873942  )
         5           S   tau(   5) = (   0.6873294   0.3936244   0.4596353  )
         6           S   tau(   6) = (   0.6929804   0.3713468   0.1185692  )
         7           Mo  tau(   7) = (   0.6862796   0.7633098   0.2825370  )
         8           S   tau(   8) = (   0.8545980   0.6708292   0.4486168  )
         9           S   tau(   9) = (   0.8545123   0.6666874   0.1146125  )
        10           Mo  tau(  10) = (   0.8629403   1.0471007   0.3006803  )
        11           S   tau(  11) = (   0.6868280   0.9456650   0.4634891  )
        12           S   tau(  12) = (   0.6998113   0.9568511   0.1205389  )
        13           Mo  tau(  13) = (   0.3618216   0.1847309   0.2935964  )
        14           S   tau(  14) = (   0.5260962   0.0863870   0.4600448  )
        15           S   tau(  15) = (   0.5348379   0.0894875   0.1297123  )
        16           Mo  tau(  16) = (   0.5265817   0.4772436   0.2784130  )
        17           S   tau(  17) = (   0.3624753   0.3882513   0.4525556  )
        18           S   tau(  18) = (   0.3635411   0.3752055   0.1119148  )
        19           Mo  tau(  19) = (   0.3652268   0.7630864   0.2781795  )
        20           S   tau(  20) = (   0.5269494   0.6690381   0.1096838  )
        21           Mo  tau(  21) = (   0.5300192   1.0470394   0.2900995  )
        22           S   tau(  22) = (   0.3670346   0.9457522   0.4574073  )
        23           S   tau(  23) = (   0.3604225   0.9585725   0.1159032  )
        24           Mo  tau(  24) = (   0.0313099   0.1847895   0.3013130  )
        25           S   tau(  25) = (   0.1956761   0.0838230   0.4650863  )
        26           S   tau(  26) = (   0.1967693   0.0903508   0.1278874  )
        27           Mo  tau(  27) = (   0.1967578   0.4753919   0.2813011  )
        28           S   tau(  28) = (   0.0287851   0.3864324   0.4586755  )
        29           S   tau(  29) = (   0.0244514   0.3729871   0.1239344  )
        30           Mo  tau(  30) = (   0.0286728   0.7631204   0.2856894  )
        31           S   tau(  31) = (   0.2011512   0.6675435   0.4465001  )
        32           S   tau(  32) = (   0.1969214   0.6672839   0.1104564  )
        33           Mo  tau(  33) = (   0.1950294   1.0511147   0.2932237  )
        34           S   tau(  34) = (   0.0312912   0.9612169   0.4667423  )
        35           S   tau(  35) = (   0.0292670   0.9563028   0.1216485  )
        36           H   tau(  36) = (   0.5555556   1.1556707   0.5391074  )

     number of k points=     1  Gaussian smearing, width (Ry)=  0.0100
                       cart. coord. in units 2pi/alat
        k(    1) = (   0.0000000   0.0000000   0.0000000), wk =   2.0000000

     Dense  grid:  1177734 G-vectors     FFT dimensions: ( 120, 135, 320)

     Smooth grid:   842757 G-vectors     FFT dimensions: ( 108, 120, 270)

     Estimated max dynamical RAM per process >     146.59 MB

     Estimated total dynamical RAM >       6.87 GB

     Initial potential from superposition of free atoms

     starting charge     306.9873, renormalised to     307.0000

     negative rho (up, down):  1.418E-04 0.000E+00


---------------------------------------------------------------------------------
Carrying out rVV10 run using the following parameters:
Nqs =      20    Nr_points =    1024   r_max =   100.000
b_value =  6.30000    beta =  0.00901
     q_mesh =  0.00010000  0.00030000  0.00058939  0.00100810
               0.00161396  0.00249058  0.00375900  0.00559430
               0.00824984  0.01209221  0.01765183  0.02569619
               0.03733578  0.05417739  0.07854596  0.11380545
               0.16482331  0.23864234  0.34545298  0.50000000

Gradients computed in Reciprocal space

---------------------------------------------------------------------------------


     Starting wfcs are  213 randomized atomic wfcs

     total cpu time spent up to now is        2.8 secs

     Self-consistent Calculation

     iteration #  1     ecut=    80.00 Ry     beta= 0.70
     Davidson diagonalization with overlap
     ethr =  1.00E-02,  avg # of iterations =  2.0

     Threshold (ethr) on eigenvalues was too large:
     Diagonalizing with lowered threshold

     Davidson diagonalization with overlap
     ethr =  3.88E-04,  avg # of iterations =  4.0

     negative rho (up, down):  1.686E-08 0.000E+00

     total cpu time spent up to now is       21.7 secs

     total energy              =   -2205.55011816 Ry
     estimated scf accuracy    <       1.47768902 Ry

     iteration #  2     ecut=    80.00 Ry     beta= 0.70
     Davidson diagonalization with overlap
     ethr =  4.81E-04,  avg # of iterations =  1.0

     total cpu time spent up to now is       24.1 secs

     total energy              =   -2205.37771623 Ry
     estimated scf accuracy    <       0.60671752 Ry

     iteration #  3     ecut=    80.00 Ry     beta= 0.70
     Davidson diagonalization with overlap
     ethr =  1.98E-04,  avg # of iterations =  4.0

     total cpu time spent up to now is       26.6 secs

     total energy              =   -2205.46847485 Ry
     estimated scf accuracy    <       0.07639207 Ry

     iteration #  4     ecut=    80.00 Ry     beta= 0.70
     Davidson diagonalization with overlap
     c_bands:  1 eigenvalues not converged
     ethr =  2.49E-05,  avg # of iterations = 20.0

     total cpu time spent up to now is       30.1 secs

     total energy              =   -2205.47344040 Ry
     estimated scf accuracy    <       0.03463319 Ry

     iteration #  5     ecut=    80.00 Ry     beta= 0.70
     Davidson diagonalization with overlap
     ethr =  1.13E-05,  avg # of iterations =  8.0

     total cpu time spent up to now is       32.7 secs

     total energy              =   -2205.47223908 Ry
     estimated scf accuracy    <       0.02034377 Ry

     iteration #  6     ecut=    80.00 Ry     beta= 0.70
     Davidson diagonalization with overlap
     ethr =  6.63E-06,  avg # of iterations =  2.0

     total cpu time spent up to now is       35.2 secs

     total energy              =   -2205.47227825 Ry
     estimated scf accuracy    <       0.01217286 Ry

     iteration #  7     ecut=    80.00 Ry     beta= 0.70
     Davidson diagonalization with overlap
     ethr =  3.97E-06,  avg # of iterations =  1.0

     total cpu time spent up to now is       37.5 secs

     total energy              =   -2205.47039499 Ry
     estimated scf accuracy    <       0.00966981 Ry

     iteration #  8     ecut=    80.00 Ry     beta= 0.70
     Davidson diagonalization with overlap
     ethr =  3.15E-06,  avg # of iterations =  2.0

     negative rho (up, down):  3.753E-03 0.000E+00

     total cpu time spent up to now is       41.8 secs

     total energy              =   -2205.46968710 Ry
     estimated scf accuracy    <       0.00475053 Ry

     iteration #  9     ecut=    80.00 Ry     beta= 0.70
     Davidson diagonalization with overlap
     ethr =  1.55E-06,  avg # of iterations =  2.0

     negative rho (up, down):  2.797E-02 0.000E+00

     total cpu time spent up to now is       46.9 secs

     total energy              =   -2205.46941966 Ry
     estimated scf accuracy    <       0.00284265 Ry

     iteration # 10     ecut=    80.00 Ry     beta= 0.70
     Davidson diagonalization with overlap
     ethr =  9.26E-07,  avg # of iterations =  2.0

     negative rho (up, down):  2.843E-02 0.000E+00

     total cpu time spent up to now is       51.8 secs

     total energy              =   -2205.46937336 Ry
     estimated scf accuracy    <       0.00138744 Ry

     iteration # 11     ecut=    80.00 Ry     beta= 0.70
     Davidson diagonalization with overlap
     c_bands:  1 eigenvalues not converged
     ethr =  4.52E-07,  avg # of iterations = 20.0

     negative rho (up, down):  2.180E-02 0.000E+00

     total cpu time spent up to now is       57.9 secs

     total energy              =   -2205.46942555 Ry
     estimated scf accuracy    <       0.00051246 Ry

     iteration # 12     ecut=    80.00 Ry     beta= 0.70
     Davidson diagonalization with overlap
     c_bands:  1 eigenvalues not converged
     ethr =  1.67E-07,  avg # of iterations = 20.0

     negative rho (up, down):  9.724E-03 0.000E+00

     total cpu time spent up to now is       63.9 secs

     total energy              =   -2205.46948976 Ry
     estimated scf accuracy    <       0.00017994 Ry

     iteration # 13     ecut=    80.00 Ry     beta= 0.70
     Davidson diagonalization with overlap
     ethr =  5.86E-08,  avg # of iterations =  5.0

     negative rho (up, down):  2.669E-03 0.000E+00

     total cpu time spent up to now is       70.9 secs

     total energy              =   -2205.46954157 Ry
     estimated scf accuracy    <       0.00002066 Ry

     iteration # 14     ecut=    80.00 Ry     beta= 0.70
     Davidson diagonalization with overlap
     ethr =  6.73E-09,  avg # of iterations =  5.0

     negative rho (up, down):  9.422E-04 0.000E+00

     total cpu time spent up to now is       80.4 secs

     total energy              =   -2205.46954379 Ry
     estimated scf accuracy    <       0.00000822 Ry

     iteration # 15     ecut=    80.00 Ry     beta= 0.70
     Davidson diagonalization with overlap
     ethr =  2.68E-09,  avg # of iterations =  2.0

     negative rho (up, down):  4.431E-04 0.000E+00

     total cpu time spent up to now is       91.6 secs

     total energy              =   -2205.46954555 Ry
     estimated scf accuracy    <       0.00000233 Ry

     iteration # 16     ecut=    80.00 Ry     beta= 0.70
     Davidson diagonalization with overlap
     ethr =  7.59E-10,  avg # of iterations =  2.0

     negative rho (up, down):  1.373E-04 0.000E+00

     total cpu time spent up to now is       93.8 secs

     End of self-consistent calculation

          k = 0.0000 0.0000 0.0000 (105382 PWs)   bands (ev):

   -62.9035 -62.8779 -62.8700 -62.8537 -62.7934 -62.7816 -62.7794 -62.7689
   -62.7033 -62.5805 -62.5596 -62.4995 -37.2318 -37.1681 -37.1427 -37.1144
   -37.1087 -37.0998 -37.0911 -37.0743 -37.0539 -37.0467 -37.0365 -37.0096
   -36.9854 -36.9709 -36.9698 -36.9653 -36.9620 -36.9559 -36.9465 -36.9416
   -36.9024 -36.8856 -36.8683 -36.8599 -36.8273 -36.8141 -36.8055 -36.7916
   -36.7622 -36.7430 -36.7317 -36.7137 -36.6768 -36.6444 -36.5350 -36.5246
   -17.2927 -15.7936 -15.1186 -15.0110 -14.9061 -14.8286 -14.6118 -14.4354
   -14.4152 -14.3976 -14.3373 -14.3020 -14.2923 -14.2389 -14.1134 -14.0708
   -14.0534 -14.0446 -13.9996 -13.8479 -13.7632 -13.7492 -13.7207  -9.8891
    -7.6078  -7.4398  -7.3469  -7.2684  -7.2087  -7.1754  -7.1175  -7.0801
    -6.8106  -6.7166  -6.6805  -6.6201  -6.5959  -6.5307  -6.4233  -6.3625
    -6.3122  -6.2547  -6.1953  -6.0042  -5.8963  -5.8686  -5.7570  -5.7444
    -5.7078  -5.6833  -5.6131  -5.5927  -5.5705  -5.5560  -5.4832  -5.4001
    -5.3923  -5.3106  -5.2447  -5.0988  -4.9740  -4.9559  -4.9324  -4.8923
    -4.8650  -4.7731  -4.6846  -4.5417  -4.4482  -4.3176  -4.2509  -4.1823
    -4.1394  -4.0525  -3.9763  -3.9419  -3.8457  -3.7278  -3.6637  -3.6239
    -3.5729  -3.4956  -3.4737  -3.4374  -3.4325  -3.4056  -3.3783  -3.3698
    -3.3264  -3.1986  -3.0983  -2.8586  -2.8295  -2.8014  -2.7156  -2.7082
    -2.6840  -2.6339  -2.5985  -2.5417  -2.4608  -2.1932  -1.9855  -1.9343
    -1.8011  -0.6477  -0.6121  -0.5342  -0.1552  -0.0821  -0.0695  -0.0351
     0.0762   0.1812   0.2198   0.2253   0.2648   0.2801   0.4679   0.5392
     0.5523   0.6068   0.6185   0.6507   0.6852   0.7179   0.7503   0.7791
     0.8090   0.8271   0.9120   0.9339   1.0095   1.0353   1.1129   1.2639
     1.4316

     the Fermi energy is    -0.7023 ev

!    total energy              =   -2205.46954793 Ry
     estimated scf accuracy    <       0.00000098 Ry
     smearing contrib. (-TS)   =      -0.00966702 Ry
     internal energy E=F+TS    =   -2205.45988091 Ry

     The total energy is F=E-TS. E is the sum of the following terms:
     one-electron contribution =  -18057.33100817 Ry
     hartree contribution      =    9015.88308402 Ry
     xc contribution           =    -385.51813703 Ry
     ewald contribution        =    7221.50618027 Ry

     convergence has been achieved in  16 iterations

     negative rho (up, down):  1.373E-04 0.000E+00

     Forces acting on atoms (cartesian axes, Ry/au):

     atom    1 type  1   force =     0.03266345   -0.02512936    0.00811633
     atom    2 type  2   force =    -0.01230670    0.01856876   -0.00179584
     atom    3 type  2   force =    -0.01441474    0.00932525   -0.00387427
     atom    4 type  1   force =     0.01025288   -0.00592226    0.00151672
     atom    5 type  2   force =     0.00002738    0.00034203   -0.00601160
     atom    6 type  2   force =     0.00347563    0.01139107    0.00158741
     atom    7 type  1   force =    -0.00077939   -0.00079415   -0.00902343
     atom    8 type  2   force =     0.00176598   -0.00554836    0.01742656
     atom    9 type  2   force =     0.01442699    0.00374905    0.01041077
     atom   10 type  1   force =    -0.01331685    0.01137639   -0.02727289
     atom   11 type  2   force =     0.00786238   -0.00631298   -0.00216003
     atom   12 type  2   force =    -0.00313258    0.00107805    0.00577590
     atom   13 type  1   force =    -0.02640291    0.00870624   -0.01442380
     atom   14 type  2   force =    -0.05637921    0.26445951   -0.21635397
     atom   15 type  2   force =    -0.01329040    0.00120316   -0.00815557
     atom   16 type  1   force =    -0.00010402   -0.00374620    0.00089235
     atom   17 type  2   force =     0.00474951    0.00633503    0.00238155
     atom   18 type  2   force =    -0.00643830   -0.00762293    0.01460908
     atom   19 type  1   force =     0.00954443   -0.00182827   -0.00407042
     atom   20 type  2   force =     0.00316557   -0.00486404    0.00139112
     atom   21 type  1   force =    -0.00767825   -0.01699958   -0.03400673
     atom   22 type  2   force =    -0.00427225   -0.00403103   -0.00048834
     atom   23 type  2   force =    -0.00008350    0.00342706    0.00907955
     atom   24 type  1   force =    -0.00848676   -0.00173604   -0.01402454
     atom   25 type  2   force =     0.00982422    0.01974768    0.00434512
     atom   26 type  2   force =    -0.00728522   -0.00040533   -0.00454488
     atom   27 type  1   force =    -0.00565113   -0.00714917    0.00957079
     atom   28 type  2   force =     0.00072791    0.00030644   -0.00628380
     atom   29 type  2   force =     0.00284284    0.00186489   -0.00360674
     atom   30 type  1   force =    -0.00441311    0.01271911   -0.00646238
     atom   31 type  2   force =     0.00091475   -0.00122718    0.01648986
     atom   32 type  2   force =    -0.01071334    0.00398576    0.00712031
     atom   33 type  1   force =     0.01590767   -0.00296528   -0.01122579
     atom   34 type  2   force =     0.00341382   -0.04281529   -0.01030036
     atom   35 type  2   force =    -0.00809741    0.00622258    0.01535073
     atom   36 type  3   force =     0.08168067   -0.24571061    0.25802121
     The non-local contrib.  to forces
     atom    1 type  1   force =     0.00258756    0.03749958   -0.02015380
     atom    2 type  2   force =    -0.01592328    0.00530614   -0.26987126
     atom    3 type  2   force =    -0.01872593    0.00253539    0.27190218
     atom    4 type  1   force =    -0.00222401    0.01454256    0.00446911
     atom    5 type  2   force =     0.00522318   -0.03337577   -0.25242899
     atom    6 type  2   force =     0.00117759    0.00815147    0.26175235
     atom    7 type  1   force =    -0.02841458   -0.01406167   -0.01464776
     atom    8 type  2   force =     0.00429365   -0.00514405   -0.25387367
     atom    9 type  2   force =     0.01058207   -0.01291377    0.27609816
     atom   10 type  1   force =     0.00772249   -0.00502729    0.00081040
     atom   11 type  2   force =     0.01550953    0.00544545   -0.24067721
     atom   12 type  2   force =    -0.01364779   -0.01433640    0.26283296
     atom   13 type  1   force =    -0.00624835    0.02486648   -0.01770432
     atom   14 type  2   force =    -0.01077870    0.01767460   -0.13651870
     atom   15 type  2   force =    -0.01306150   -0.00572137    0.26659083
     atom   16 type  1   force =     0.00000993    0.05892446   -0.01389855
     atom   17 type  2   force =     0.00028895   -0.02595504   -0.24816296
     atom   18 type  2   force =    -0.00843215   -0.01004082    0.27420985
     atom   19 type  1   force =     0.02337673   -0.01570155   -0.01027412
     atom   20 type  2   force =     0.00057170   -0.02199799    0.26381061
     atom   21 type  1   force =     0.00132244    0.00680531   -0.00037257
     atom   22 type  2   force =    -0.00420485    0.00520265   -0.24715761
     atom   23 type  2   force =     0.00801367   -0.01220747    0.26836433
     atom   24 type  1   force =     0.00454716    0.01983882   -0.01211473
     atom   25 type  2   force =     0.01014874    0.00907281   -0.25606993
     atom   26 type  2   force =     0.00268031   -0.00532063    0.26738505
     atom   27 type  1   force =    -0.00054521    0.01856514    0.00861629
     atom   28 type  2   force =    -0.00384197   -0.02719935   -0.27368195
     atom   29 type  2   force =     0.00701117    0.00057305    0.26370197
     atom   30 type  1   force =    -0.00001533    0.01395045    0.01087261
     atom   31 type  2   force =    -0.00744852   -0.00061945   -0.25235827
     atom   32 type  2   force =    -0.00611920   -0.01375983    0.27131714
     atom   33 type  1   force =    -0.00758409    0.00056042    0.00724413
     atom   34 type  2   force =    -0.00048638   -0.03596252   -0.27143025
     atom   35 type  2   force =    -0.00206102   -0.00908768    0.27335534
     atom   36 type  3   force =    -0.02767366    0.07975012   -0.07043556
     The ionic contribution  to forces
     atom    1 type  1   force =     0.66367529    0.62253866    5.27136300
     atom    2 type  2   force =    -0.39821135    0.49123421   39.23501130
     atom    3 type  2   force =    -0.11852611    0.03476628  -36.13690495
     atom    4 type  1   force =     0.15003480    0.65515945    0.67406193
     atom    5 type  2   force =    -0.91450069    1.64226793   38.73817159
     atom    6 type  2   force =     0.36135132   -0.45906852  -38.04740847
     atom    7 type  1   force =    -2.54378836   -2.97211312    2.48939378
     atom    8 type  2   force =    -0.95095137   -0.01014442   37.39923725
     atom    9 type  2   force =     0.35437064   -0.04910420  -37.99764318
     atom   10 type  1   force =    -0.81157607   -0.44728964    5.46180318
     atom   11 type  2   force =    -0.29911568   -2.03818814   39.00808942
     atom   12 type  2   force =     0.47454388    0.64271442  -37.92465762
     atom   13 type  1   force =     0.19167491    1.28659313    2.52955214
     atom   14 type  2   force =    -0.56396248    1.82694060   36.86437726
     atom   15 type  2   force =     0.14959394   -0.02565614  -36.94325509
     atom   16 type  1   force =    -0.03421702    4.06675633    0.44459471
     atom   17 type  2   force =     0.74851470    1.62351533   37.92577230
     atom   18 type  2   force =    -0.17900393   -0.60990836  -38.58105864
     atom   19 type  1   force =     2.63377439   -2.60902846    0.59390525
     atom   20 type  2   force =     0.22673616   -0.21686868  -38.48468051
     atom   21 type  1   force =    -0.06150141   -0.39323037    0.22953489
     atom   22 type  2   force =     0.20875095   -2.00684758   38.34222254
     atom   23 type  2   force =    -0.12207556    0.62268280  -38.34773405
     atom   24 type  1   force =    -0.52188242    1.24009588    5.78946343
     atom   25 type  2   force =     0.48265933    0.33897320   39.24391217
     atom   26 type  2   force =    -0.32286196    0.08117827  -37.37029193
     atom   27 type  1   force =    -0.02103393    0.46827771   -2.23992932
     atom   28 type  2   force =     0.05963851    1.05827733   38.21846772
     atom   29 type  2   force =    -0.26204583   -0.40456910  -37.26179030
     atom   30 type  1   force =    -0.32876188   -0.98263761   -0.02520503
     atom   31 type  2   force =     1.19899766   -0.08620269   37.33947791
     atom   32 type  2   force =    -0.49082281   -0.01738373  -38.62630499
     atom   33 type  1   force =     0.59118719   -0.94867163    1.93127522
     atom   34 type  2   force =     0.25799080   -1.50377908   39.35593099
     atom   35 type  2   force =    -0.29538733    0.45421765  -37.82748036
     atom   36 type  3   force =     0.48673174   -1.37549773    8.72872649
     The local contribution  to forces
     atom    1 type  1   force =    -0.63346629   -0.68505422   -5.24193271
     atom    2 type  2   force =     0.40107876   -0.47764891  -38.98715541
     atom    3 type  2   force =     0.12199315   -0.02767033   35.88265506
     atom    4 type  1   force =    -0.13753702   -0.67578195   -0.67575986
     atom    5 type  2   force =     0.90989548   -1.61058033  -38.51159434
     atom    6 type  2   force =    -0.35911770    0.46319203   37.80859962
     atom    7 type  1   force =     2.57151869    2.98535201   -2.48263562
     atom    8 type  2   force =     0.94863701    0.00906012  -37.14778496
     atom    9 type  2   force =    -0.35014732    0.06489678   37.75334464
     atom   10 type  1   force =     0.79061323    0.46387210   -5.48863182
     atom   11 type  2   force =     0.29186968    2.02765888  -38.78851668
     atom   12 type  2   force =    -0.46527115   -0.62845079   37.68890364
     atom   13 type  1   force =    -0.21203884   -1.30263530   -2.52512716
     atom   14 type  2   force =     0.51916662   -1.58239818  -36.95496816
     atom   15 type  2   force =    -0.15055590    0.03224926   36.68998608
     atom   16 type  1   force =     0.03411548   -4.12978279   -0.42874085
     atom   17 type  2   force =    -0.74415307   -1.59281405  -37.69488055
     atom   18 type  2   force =     0.18061237    0.61238816   38.34301612
     atom   19 type  1   force =    -2.64777248    2.62288812   -0.58660561
     atom   20 type  2   force =    -0.22426928    0.23309516   38.24375822
     atom   21 type  1   force =     0.05249416    0.36949272   -0.26185262
     atom   22 type  2   force =    -0.20862358    1.99865610  -38.11485134
     atom   23 type  2   force =     0.11459890   -0.60806754   38.10983710
     atom   24 type  1   force =     0.50891179   -1.26154004   -5.79008658
     atom   25 type  2   force =    -0.48268677   -0.32762050  -39.00351921
     atom   26 type  2   force =     0.31331212   -0.07653480   37.11996569
     atom   27 type  1   force =     0.01590153   -0.49411264    2.24210222
     atom   28 type  2   force =    -0.05531546   -1.03272796  -37.97153501
     atom   29 type  2   force =     0.25849004    0.40633262   37.01563100
     atom   30 type  1   force =     0.32446017    0.98120584    0.00907450
     atom   31 type  2   force =    -1.19115950    0.08535815  -37.09058558
     atom   32 type  2   force =     0.48614597    0.03421271   38.38347364
     atom   33 type  1   force =    -0.56774418    0.94532847   -1.94852502
     atom   34 type  2   force =    -0.25445615    1.49592668  -39.11536616
     atom   35 type  2   force =     0.28946600   -0.43975328   37.59116700
     atom   36 type  3   force =    -0.37738099    1.05004197   -8.40020256
     The core correction contribution to forces
     atom    1 type  1   force =     0.00000000    0.00000000    0.00000000
     atom    2 type  2   force =     0.00077572   -0.00027481    0.02059219
     atom    3 type  2   force =     0.00086677   -0.00025047   -0.02098015
     atom    4 type  1   force =     0.00000000    0.00000000    0.00000000
     atom    5 type  2   force =    -0.00053235    0.00207025    0.02022362
     atom    6 type  2   force =     0.00006017   -0.00083380   -0.02081619
     atom    7 type  1   force =     0.00000000    0.00000000    0.00000000
     atom    8 type  2   force =    -0.00015016    0.00055016    0.02034247
     atom    9 type  2   force =    -0.00034076    0.00076820   -0.02093119
     atom   10 type  1   force =     0.00000000    0.00000000    0.00000000
     atom   11 type  2   force =    -0.00043532   -0.00116265    0.01935371
     atom   12 type  2   force =     0.00120824    0.00116909   -0.02080072
     atom   13 type  1   force =     0.00000000    0.00000000    0.00000000
     atom   14 type  2   force =    -0.00076196    0.00212383    0.01123630
     atom   15 type  2   force =     0.00071749    0.00035425   -0.02095327
     atom   16 type  1   force =     0.00000000    0.00000000    0.00000000
     atom   17 type  2   force =     0.00002445    0.00161877    0.02004978
     atom   18 type  2   force =     0.00037026   -0.00001597   -0.02102986
     atom   19 type  1   force =     0.00000000    0.00000000    0.00000000
     atom   20 type  2   force =     0.00009196    0.00082731   -0.02109024
     atom   21 type  1   force =     0.00000000    0.00000000    0.00000000
     atom   22 type  2   force =    -0.00017083   -0.00099822    0.01971272
     atom   23 type  2   force =    -0.00061050    0.00100934   -0.02089387
     atom   24 type  1   force =     0.00000000    0.00000000    0.00000000
     atom   25 type  2   force =    -0.00033347   -0.00061268    0.02038882
     atom   26 type  2   force =    -0.00042138    0.00032765   -0.02105759
     atom   27 type  1   force =     0.00000000    0.00000000    0.00000000
     atom   28 type  2   force =     0.00025790    0.00197737    0.02087500
     atom   29 type  2   force =    -0.00059186   -0.00042899   -0.02060344
     atom   30 type  1   force =     0.00000000    0.00000000    0.00000000
     atom   31 type  2   force =     0.00047149    0.00012837    0.02043706
     atom   32 type  2   force =     0.00007348    0.00082600   -0.02089917
     atom   33 type  1   force =     0.00000000    0.00000000    0.00000000
     atom   34 type  2   force =     0.00036565    0.00100870    0.02099970
     atom   35 type  2   force =    -0.00009587    0.00083555   -0.02119176
     atom   36 type  3   force =     0.00000000    0.00000000    0.00000000
     The Hubbard contrib.    to forces
     atom    1 type  1   force =     0.00000000    0.00000000    0.00000000
     atom    2 type  2   force =     0.00000000    0.00000000    0.00000000
     atom    3 type  2   force =     0.00000000    0.00000000    0.00000000
     atom    4 type  1   force =     0.00000000    0.00000000    0.00000000
     atom    5 type  2   force =     0.00000000    0.00000000    0.00000000
     atom    6 type  2   force =     0.00000000    0.00000000    0.00000000
     atom    7 type  1   force =     0.00000000    0.00000000    0.00000000
     atom    8 type  2   force =     0.00000000    0.00000000    0.00000000
     atom    9 type  2   force =     0.00000000    0.00000000    0.00000000
     atom   10 type  1   force =     0.00000000    0.00000000    0.00000000
     atom   11 type  2   force =     0.00000000    0.00000000    0.00000000
     atom   12 type  2   force =     0.00000000    0.00000000    0.00000000
     atom   13 type  1   force =     0.00000000    0.00000000    0.00000000
     atom   14 type  2   force =     0.00000000    0.00000000    0.00000000
     atom   15 type  2   force =     0.00000000    0.00000000    0.00000000
     atom   16 type  1   force =     0.00000000    0.00000000    0.00000000
     atom   17 type  2   force =     0.00000000    0.00000000    0.00000000
     atom   18 type  2   force =     0.00000000    0.00000000    0.00000000
     atom   19 type  1   force =     0.00000000    0.00000000    0.00000000
     atom   20 type  2   force =     0.00000000    0.00000000    0.00000000
     atom   21 type  1   force =     0.00000000    0.00000000    0.00000000
     atom   22 type  2   force =     0.00000000    0.00000000    0.00000000
     atom   23 type  2   force =     0.00000000    0.00000000    0.00000000
     atom   24 type  1   force =     0.00000000    0.00000000    0.00000000
     atom   25 type  2   force =     0.00000000    0.00000000    0.00000000
     atom   26 type  2   force =     0.00000000    0.00000000    0.00000000
     atom   27 type  1   force =     0.00000000    0.00000000    0.00000000
     atom   28 type  2   force =     0.00000000    0.00000000    0.00000000
     atom   29 type  2   force =     0.00000000    0.00000000    0.00000000
     atom   30 type  1   force =     0.00000000    0.00000000    0.00000000
     atom   31 type  2   force =     0.00000000    0.00000000    0.00000000
     atom   32 type  2   force =     0.00000000    0.00000000    0.00000000
     atom   33 type  1   force =     0.00000000    0.00000000    0.00000000
     atom   34 type  2   force =     0.00000000    0.00000000    0.00000000
     atom   35 type  2   force =     0.00000000    0.00000000    0.00000000
     atom   36 type  3   force =     0.00000000    0.00000000    0.00000000
     The SCF correction term to forces
     atom    1 type  1   force =    -0.00013360   -0.00011633   -0.00113184
     atom    2 type  2   force =    -0.00002704   -0.00005082   -0.00034434
     atom    3 type  2   force =    -0.00002312   -0.00005857   -0.00051809
     atom    4 type  1   force =    -0.00002137    0.00015474   -0.00122614
     atom    5 type  2   force =    -0.00005872   -0.00004300   -0.00035516
     atom    6 type  2   force =     0.00000375   -0.00005306   -0.00051157
     atom    7 type  1   force =    -0.00009563    0.00002568   -0.00110550
     atom    8 type  2   force =    -0.00006363    0.00012689   -0.00046621
     atom    9 type  2   force =    -0.00003813    0.00009908   -0.00042935
     atom   10 type  1   force =    -0.00007699   -0.00018173   -0.00122633
     atom   11 type  2   force =     0.00003369   -0.00006947   -0.00038095
     atom   12 type  2   force =     0.00003376   -0.00002123   -0.00047404
     atom   13 type  1   force =     0.00020888   -0.00012102   -0.00111614
     atom   14 type  2   force =    -0.00004317    0.00011570   -0.00045236
     atom   15 type  2   force =     0.00001508   -0.00002579   -0.00049580
     atom   16 type  1   force =    -0.00001290    0.00035286   -0.00103464
     atom   17 type  2   force =     0.00007399   -0.00003292   -0.00036870
     atom   18 type  2   force =     0.00001466   -0.00004889   -0.00050008
     atom   19 type  1   force =     0.00016531    0.00001067   -0.00106761
     atom   20 type  2   force =     0.00003454    0.00007721   -0.00037864
     atom   21 type  1   force =     0.00000607   -0.00007018   -0.00128811
     atom   22 type  2   force =    -0.00002444   -0.00004692   -0.00038633
     atom   23 type  2   force =    -0.00001049    0.00000699   -0.00046563
     atom   24 type  1   force =    -0.00006378   -0.00013366   -0.00125834
     atom   25 type  2   force =     0.00003591   -0.00006811   -0.00033841
     atom   26 type  2   force =     0.00000521   -0.00005877   -0.00051777
     atom   27 type  1   force =     0.00002599    0.00011767   -0.00119009
     atom   28 type  2   force =    -0.00001156   -0.00002390   -0.00038125
     atom   29 type  2   force =    -0.00002116   -0.00004564   -0.00051764
     atom   30 type  1   force =    -0.00009657    0.00019749   -0.00117613
     atom   31 type  2   force =     0.00005314    0.00010550   -0.00045294
     atom   32 type  2   force =     0.00000873    0.00008766   -0.00043798
     atom   33 type  1   force =     0.00004826   -0.00018548   -0.00119181
     atom   34 type  2   force =    -0.00000059   -0.00001201   -0.00040632
     atom   35 type  2   force =    -0.00001969    0.00000738   -0.00047117
     atom   36 type  3   force =     0.00000309   -0.00000791   -0.00003883

     Total force =     0.515989     Total SCF correction =     0.004633

     BFGS Geometry Optimization
     Energy error            =      0.0E+00 Ry
     Gradient error          =      2.6E-01 Ry/Bohr

     number of scf cycles    =   1
     number of bfgs steps    =   0

     energy             new  =   -2205.4695479295 Ry

     new trust radius        =       0.3655412151 bohr
     new conv_thr            =       0.0000010000 Ry


ATOMIC_POSITIONS (angstrom)
Mo            6.5918331600        1.7745083428        2.8279380070
S             8.1701969125        0.8195301904        4.4335880358
S             8.1856051345        0.8161764529        1.2758332522
Mo            8.1005881570        4.4919230202        2.7186210053
S             6.4999237474        3.7225924809        4.3434794448
S             6.5551890220        3.5177654498        1.1221202517
Mo            6.4895692607        7.2180170362        2.6671094921
S             8.0826622425        6.3409349292        4.2516833039
S             8.0885520791        6.3066862281        1.0893721402
Mo            8.1535720757        9.9082005419        2.8290295674
S             6.4993281863        8.9395861281        4.3819624951
S             6.6162895085        9.0492816930        1.1429637781
Mo            3.4076878440        1.7515629943        2.7688384169
S             4.9453308995        0.9568871545        4.2360435000
S             5.0508007759        0.8468987927        1.2223427167
Mo            4.9797016389        4.5111955990        2.6333567608
S             3.4303549933        3.6749520414        4.2809698442
S             3.4345135781        3.5441948188        1.0660824759
Mo            3.4589124371        7.2153570574        2.6285228901
S             4.9849093398        6.3243583458        1.0379898790
Mo            5.0082007653        9.8926042635        2.7254053755
S             3.4686973377        8.9416181387        4.3253328950
S             3.4083849781        9.0668035076        1.1008729906
Mo            0.2915994847        1.7465908599        2.8420232427
S             1.8556609678        0.8031440267        4.4005087753
S             1.8569448610        0.8542114253        1.2069958079
Mo            1.8577008615        4.4918835830        2.6652620228
S             0.2725990417        3.6545609866        4.3342588570
S             0.2327355743        3.5282360817        1.1701092787
Mo            0.2688168323        7.2233767583        2.6982766836
S             1.9027223146        6.3121494402        4.2311701791
S             1.8565689589        6.3124529835        1.0483271907
Mo            1.8527646414        9.9385699972        2.7670058199
S             0.2977194163        9.0673409532        4.4084187526
S             0.2724864365        9.0468185604        1.1585240353
H             5.2969791029       10.7988755473        5.2347483855



     Writing config-only to output data dir ./MoS2-V-O.save/
     NEW-OLD atomic charge density approx. for the potential

     negative rho (up, down):  1.503E-04 0.000E+00

     total cpu time spent up to now is       97.3 secs

     Self-consistent Calculation

     iteration #  1     ecut=    80.00 Ry     beta= 0.70
     Davidson diagonalization with overlap
     ethr =  1.00E-06,  avg # of iterations = 20.0

     negative rho (up, down):  5.474E-04 0.000E+00

     total cpu time spent up to now is      120.8 secs

     total energy              =   -2205.52060040 Ry
     estimated scf accuracy    <       0.04051295 Ry

     iteration #  2     ecut=    80.00 Ry     beta= 0.70
     Davidson diagonalization with overlap
     ethr =  1.32E-05,  avg # of iterations =  3.0

     negative rho (up, down):  1.194E-03 0.000E+00

     total cpu time spent up to now is      138.6 secs

     total energy              =   -2205.52167383 Ry
     estimated scf accuracy    <       0.00584837 Ry

     iteration #  3     ecut=    80.00 Ry     beta= 0.70
     Davidson diagonalization with overlap
     ethr =  1.91E-06,  avg # of iterations =  6.0

     negative rho (up, down):  1.549E-03 0.000E+00

     total cpu time spent up to now is      158.9 secs

     total energy              =   -2205.52225069 Ry
     estimated scf accuracy    <       0.00123180 Ry

     iteration #  4     ecut=    80.00 Ry     beta= 0.70
     Davidson diagonalization with overlap
     ethr =  4.01E-07,  avg # of iterations =  2.0

     negative rho (up, down):  1.730E-03 0.000E+00

     total cpu time spent up to now is      171.8 secs

     total energy              =   -2205.52234178 Ry
     estimated scf accuracy    <       0.00015932 Ry

     iteration #  5     ecut=    80.00 Ry     beta= 0.70
     Davidson diagonalization with overlap
     ethr =  5.19E-08,  avg # of iterations =  6.0

     negative rho (up, down):  1.744E-03 0.000E+00

     total cpu time spent up to now is      183.0 secs

     total energy              =   -2205.52235962 Ry
     estimated scf accuracy    <       0.00005889 Ry

     iteration #  6     ecut=    80.00 Ry     beta= 0.70
     Davidson diagonalization with overlap
     ethr =  1.92E-08,  avg # of iterations =  2.0

     negative rho (up, down):  1.550E-03 0.000E+00

     total cpu time spent up to now is      195.6 secs

     total energy              =   -2205.52236387 Ry
     estimated scf accuracy    <       0.00001103 Ry

     iteration #  7     ecut=    80.00 Ry     beta= 0.70
     Davidson diagonalization with overlap
     ethr =  3.59E-09,  avg # of iterations =  6.0

     negative rho (up, down):  1.312E-03 0.000E+00

     total cpu time spent up to now is      207.3 secs

     total energy              =   -2205.52236540 Ry
     estimated scf accuracy    <       0.00000504 Ry

     iteration #  8     ecut=    80.00 Ry     beta= 0.70
     Davidson diagonalization with overlap
     ethr =  1.64E-09,  avg # of iterations =  2.0

     negative rho (up, down):  8.598E-04 0.000E+00

     total cpu time spent up to now is      219.0 secs

     total energy              =   -2205.52236442 Ry
     estimated scf accuracy    <       0.00000207 Ry

     iteration #  9     ecut=    80.00 Ry     beta= 0.70
     Davidson diagonalization with overlap
     ethr =  6.76E-10,  avg # of iterations =  2.0

     negative rho (up, down):  1.377E-04 0.000E+00

     total cpu time spent up to now is      221.2 secs

     End of self-consistent calculation

          k = 0.0000 0.0000 0.0000 (105382 PWs)   bands (ev):

   -62.8876 -62.8768 -62.8559 -62.8467 -62.8095 -62.8086 -62.7993 -62.7942
   -62.7338 -62.6391 -62.6090 -62.5510 -37.2431 -37.1770 -37.1463 -37.1262
   -37.1118 -37.1115 -37.0943 -37.0704 -37.0651 -37.0442 -37.0373 -37.0283
   -36.9989 -36.9918 -36.9867 -36.9857 -36.9845 -36.9754 -36.9737 -36.9655
   -36.9233 -36.8978 -36.8949 -36.8778 -36.8526 -36.8424 -36.8348 -36.8238
   -36.8022 -36.7967 -36.7794 -36.7640 -36.7224 -36.6951 -36.5868 -36.5773
   -16.3174 -15.6440 -15.1574 -15.0070 -14.9291 -14.8380 -14.5977 -14.4673
   -14.4319 -14.4066 -14.3771 -14.3458 -14.3087 -14.2668 -14.1329 -14.0983
   -14.0817 -14.0775 -14.0266 -13.8633 -13.7972 -13.7728 -13.7540  -8.9135
    -7.6600  -7.4738  -7.3917  -7.2987  -7.2186  -7.2031  -7.1288  -7.0861
    -6.8653  -6.7488  -6.7069  -6.6452  -6.6303  -6.5678  -6.4422  -6.3769
    -6.2710  -6.2579  -6.1649  -6.0350  -5.9317  -5.8681  -5.7810  -5.7790
    -5.7619  -5.7153  -5.6513  -5.6249  -5.5901  -5.5726  -5.4884  -5.4258
    -5.4152  -5.3281  -5.2356  -5.1070  -5.0380  -4.9956  -4.9447  -4.9189
    -4.8819  -4.8203  -4.7312  -4.5018  -4.4072  -4.3595  -4.2778  -4.2140
    -4.1677  -4.0665  -4.0020  -3.9629  -3.8153  -3.7594  -3.6859  -3.6499
    -3.6036  -3.5537  -3.4964  -3.4679  -3.4524  -3.4494  -3.4215  -3.4073
    -3.3301  -3.2006  -3.1158  -2.8981  -2.8437  -2.8054  -2.7570  -2.7115
    -2.6828  -2.6603  -2.6194  -2.5683  -2.4957  -2.2081  -2.0265  -1.9629
    -1.8591  -0.7467  -0.6442  -0.5696  -0.1460  -0.1203  -0.0541  -0.0178
     0.0744   0.1565   0.1944   0.2091   0.2380   0.2781   0.4482   0.5084
     0.5783   0.5821   0.5905   0.6368   0.6643   0.6942   0.7435   0.7532
     0.7708   0.8481   0.8646   0.9300   0.9867   1.0260   1.0842   1.2833
     1.4077

     the Fermi energy is    -0.7729 ev

!    total energy              =   -2205.52236393 Ry
     estimated scf accuracy    <       0.00000059 Ry
     smearing contrib. (-TS)   =      -0.00834338 Ry
     internal energy E=F+TS    =   -2205.51402055 Ry

     The total energy is F=E-TS. E is the sum of the following terms:
     one-electron contribution =  -18070.59884165 Ry
     hartree contribution      =    9022.27948073 Ry
     xc contribution           =    -385.39617337 Ry
     ewald contribution        =    7228.20151374 Ry

     convergence has been achieved in   9 iterations

     negative rho (up, down):  1.377E-04 0.000E+00

     Forces acting on atoms (cartesian axes, Ry/au):

     atom    1 type  1   force =     0.02441435    0.00263264   -0.02130251
     atom    2 type  2   force =    -0.00932342    0.01002499    0.00093297
     atom    3 type  2   force =    -0.00820762    0.00671584   -0.00965261
     atom    4 type  1   force =     0.00835979   -0.00173014    0.00068924
     atom    5 type  2   force =     0.00347606   -0.00120445   -0.00454908
     atom    6 type  2   force =     0.00417087    0.00808950    0.00279615
     atom    7 type  1   force =     0.00080514   -0.00074925   -0.00304428
     atom    8 type  2   force =     0.00112375   -0.00392196    0.01077462
     atom    9 type  2   force =     0.01096207    0.00275167    0.00776289
     atom   10 type  1   force =    -0.00810238    0.00674484   -0.00751391
     atom   11 type  2   force =     0.00027330    0.00785113   -0.00004559
     atom   12 type  2   force =    -0.00244510   -0.00173095   -0.00300027
     atom   13 type  1   force =    -0.04083096    0.02709850   -0.03637220
     atom   14 type  2   force =     0.06143208   -0.08778178    0.10886095
     atom   15 type  2   force =    -0.00820426    0.00049940   -0.01617779
     atom   16 type  1   force =    -0.00139012    0.00061862   -0.00263116
     atom   17 type  2   force =     0.00052269    0.00698707    0.00470822
     atom   18 type  2   force =    -0.00405300   -0.00293848    0.00910040
     atom   19 type  1   force =     0.00628464   -0.00453103    0.00031132
     atom   20 type  2   force =     0.00314934   -0.00592390   -0.00155589
     atom   21 type  1   force =    -0.00592302    0.00525782   -0.01045701
     atom   22 type  2   force =     0.00024973    0.00017140   -0.00097523
     atom   23 type  2   force =    -0.00090780   -0.00119694    0.00004113
     atom   24 type  1   force =    -0.00603744    0.00004468   -0.01257057
     atom   25 type  2   force =     0.00516610    0.01371304    0.00350001
     atom   26 type  2   force =    -0.01206470   -0.00429062   -0.00960010
     atom   27 type  1   force =    -0.00298657   -0.00227489    0.00771942
     atom   28 type  2   force =     0.00038971   -0.00173562   -0.00383541
     atom   29 type  2   force =     0.00253833    0.00122520   -0.00429696
     atom   30 type  1   force =    -0.00236460    0.00274556    0.00276012
     atom   31 type  2   force =     0.00084782    0.00010464    0.00957288
     atom   32 type  2   force =    -0.00821762    0.00392472    0.00710290
     atom   33 type  1   force =     0.00820984   -0.00268689    0.00016020
     atom   34 type  2   force =     0.00106566   -0.03092910   -0.01526106
     atom   35 type  2   force =    -0.00586681    0.00762866    0.00735562
     atom   36 type  3   force =    -0.01651586    0.03879608   -0.02130740
     The non-local contrib.  to forces
     atom    1 type  1   force =     0.00320303    0.03116927   -0.01458074
     atom    2 type  2   force =    -0.01052382   -0.00049845   -0.26360568
     atom    3 type  2   force =    -0.01269889   -0.00678984    0.26388639
     atom    4 type  1   force =    -0.00021846    0.01258507    0.00352826
     atom    5 type  2   force =     0.00782559   -0.03677062   -0.25367845
     atom    6 type  2   force =    -0.00036332    0.00525264    0.26356797
     atom    7 type  1   force =    -0.02889067   -0.01231238   -0.01680624
     atom    8 type  2   force =     0.00520155   -0.00488810   -0.25793044
     atom    9 type  2   force =     0.00812500   -0.01344059    0.27516692
     atom   10 type  1   force =     0.00471880   -0.00195700   -0.00162097
     atom   11 type  2   force =     0.00105497    0.02972679   -0.22677012
     atom   12 type  2   force =    -0.01389190   -0.01410400    0.25798226
     atom   13 type  1   force =     0.00031638    0.02034754   -0.01273190
     atom   14 type  2   force =     0.07047537   -0.27371047    0.10285071
     atom   15 type  2   force =    -0.01088331   -0.00699245    0.26481255
     atom   16 type  1   force =     0.00203094    0.05476355   -0.01819447
     atom   17 type  2   force =    -0.00145033   -0.02810083   -0.24946226
     atom   18 type  2   force =    -0.00629082   -0.00435810    0.27011781
     atom   19 type  1   force =     0.02452244   -0.01190693   -0.01323656
     atom   20 type  2   force =     0.00037621   -0.02134209    0.26338743
     atom   21 type  1   force =     0.00066195    0.00616084    0.00283736
     atom   22 type  2   force =    -0.00354410    0.00646471   -0.24993508
     atom   23 type  2   force =     0.00984036   -0.01383061    0.26405998
     atom   24 type  1   force =     0.00231471    0.01792582   -0.01307967
     atom   25 type  2   force =     0.00487211    0.00332439   -0.25581820
     atom   26 type  2   force =    -0.00062059   -0.01343498    0.26176611
     atom   27 type  1   force =    -0.00298448    0.01620120    0.00783488
     atom   28 type  2   force =    -0.00399618   -0.02728186   -0.27249916
     atom   29 type  2   force =     0.00646967   -0.00012474    0.26294680
     atom   30 type  1   force =    -0.00021584    0.01575358    0.00948799
     atom   31 type  2   force =    -0.00821827   -0.00131377   -0.25814353
     atom   32 type  2   force =    -0.00261298   -0.01438345    0.27168750
     atom   33 type  1   force =    -0.00320067    0.00124491    0.00440816
     atom   34 type  2   force =    -0.00259073   -0.02695963   -0.27653820
     atom   35 type  2   force =    -0.00095409   -0.00796489    0.26858213
     atom   36 type  3   force =    -0.00939834    0.02792385   -0.02638060
     The ionic contribution  to forces
     atom    1 type  1   force =     0.78248726    0.77528296    5.30279446
     atom    2 type  2   force =    -0.32246328    0.24026092   39.44127502
     atom    3 type  2   force =    -0.06274441    0.02127631  -36.28549258
     atom    4 type  1   force =     0.01358530    0.86871126    0.79452557
     atom    5 type  2   force =    -0.88150000    1.70172742   38.74260959
     atom    6 type  2   force =     0.32119389   -0.46757344  -37.98490320
     atom    7 type  1   force =    -2.43377890   -3.01621171    2.51595465
     atom    8 type  2   force =    -0.98425173    0.04333129   37.48787396
     atom    9 type  2   force =     0.32281047   -0.08542968  -37.91829182
     atom   10 type  1   force =    -0.64927558   -0.54234809    5.33109040
     atom   11 type  2   force =    -0.39975407   -1.82964345   39.02352644
     atom   12 type  2   force =     0.50480212    0.56836565  -37.93544663
     atom   13 type  1   force =    -0.25096700    1.22090762    1.82541593
     atom   14 type  2   force =    -0.11370167    0.21662652   36.73081584
     atom   15 type  2   force =     0.20448501    0.04632348  -36.97024214
     atom   16 type  1   force =     0.06388195    4.18489973    0.45905386
     atom   17 type  2   force =     0.72691371    1.71323762   38.04477527
     atom   18 type  2   force =    -0.14226682   -0.47559964  -38.57125870
     atom   19 type  1   force =     2.47892783   -2.71383872    0.68801220
     atom   20 type  2   force =     0.21035998   -0.26380634  -38.49338997
     atom   21 type  1   force =     0.03877897   -0.11718570    0.40570272
     atom   22 type  2   force =     0.34450821   -1.81508138   38.45425826
     atom   23 type  2   force =    -0.19944130    0.52632143  -38.37205005
     atom   24 type  1   force =    -0.41763357    0.99576631    5.69163516
     atom   25 type  2   force =     0.40840420    0.13181676   39.36809753
     atom   26 type  2   force =    -0.37752513    0.00890001  -37.43072503
     atom   27 type  1   force =     0.00885020    0.81823850   -1.93112309
     atom   28 type  2   force =     0.04954522    1.02107340   38.29898967
     atom   29 type  2   force =    -0.25515866   -0.33532183  -37.33827956
     atom   30 type  1   force =    -0.26131457   -1.09016895    0.00072966
     atom   31 type  2   force =     1.20135163   -0.01502749   37.39214390
     atom   32 type  2   force =    -0.45034501   -0.04422570  -38.52679906
     atom   33 type  1   force =     0.39315853   -0.88925700    2.14605251
     atom   34 type  2   force =     0.20242811   -1.28786655   39.28849392
     atom   35 type  2   force =    -0.24736451    0.45322426  -37.73276201
     atom   36 type  3   force =     0.17301361   -0.56770580    8.05693735
     The local contribution  to forces
     atom    1 type  1   force =    -0.76126554   -0.80380397   -5.30895478
     atom    2 type  2   force =     0.32308501   -0.22956720  -39.19673149
     atom    3 type  2   force =     0.06664230   -0.00798757   36.03268659
     atom    4 type  1   force =    -0.00484263   -0.88285904   -0.79694451
     atom    5 type  2   force =     0.87784395   -1.66828066  -38.51327384
     atom    6 type  2   force =    -0.31672246    0.47124689   37.74484848
     atom    7 type  1   force =     2.46360123    3.02772266   -2.50191298
     atom    8 type  2   force =     0.98037493   -0.04286418  -37.23929762
     atom    9 type  2   force =    -0.31972652    0.10093138   37.67184660
     atom   10 type  1   force =     0.63647578    0.55083056   -5.33665318
     atom   11 type  2   force =     0.39877661    1.80982733  -38.81505775
     atom   12 type  2   force =    -0.49458608   -0.55723019   37.69511759
     atom   13 type  1   force =     0.20977805   -1.21408920   -1.84852917
     atom   14 type  2   force =     0.10905324   -0.04644819  -36.72468362
     atom   15 type  2   force =    -0.20247133   -0.03940659   36.70979866
     atom   16 type  1   force =    -0.06729331   -4.23893990   -0.44310250
     atom   17 type  2   force =    -0.72512152   -1.67980111  -37.81028088
     atom   18 type  2   force =     0.14419219    0.47726599   38.33107332
     atom   19 type  1   force =    -2.49726446    2.72129560   -0.67416033
     atom   20 type  2   force =    -0.20766875    0.27853574   38.24953744
     atom   21 type  1   force =    -0.04541550    0.11605139   -0.41875010
     atom   22 type  2   force =    -0.34065890    1.80962804  -38.22483172
     atom   23 type  2   force =     0.18942330   -0.51481916   38.12886039
     atom   24 type  1   force =     0.40931417   -1.01347547   -5.69073120
     atom   25 type  2   force =    -0.40797989   -0.12100252  -39.12866536
     atom   26 type  2   force =     0.36636488   -0.00045225   37.18014438
     atom   27 type  1   force =    -0.00900960   -0.83665693    1.93142990
     atom   28 type  2   force =    -0.04541021   -0.99737225  -38.05083759
     atom   29 type  2   force =     0.25178732    0.33708982   37.09164704
     atom   30 type  1   force =     0.25914302    1.07716397   -0.00709213
     atom   31 type  2   force =    -1.19279450    0.01626689  -37.14466914
     atom   32 type  2   force =     0.44480060    0.06179881   38.28310960
     atom   33 type  1   force =    -0.38170786    0.88509955   -2.14994127
     atom   34 type  2   force =    -0.19913969    1.28301673  -39.04798935
     atom   35 type  2   force =     0.24258507   -0.43854701   37.49256782
     atom   36 type  3   force =    -0.18012804    0.57856331   -8.05175769
     The core correction contribution to forces
     atom    1 type  1   force =     0.00000000    0.00000000    0.00000000
     atom    2 type  2   force =     0.00060429   -0.00015169    0.02045414
     atom    3 type  2   force =     0.00063196    0.00020881   -0.02077659
     atom    4 type  1   force =     0.00000000    0.00000000    0.00000000
     atom    5 type  2   force =    -0.00066347    0.00217503    0.02025674
     atom    6 type  2   force =     0.00011393   -0.00076399   -0.02082837
     atom    7 type  1   force =     0.00000000    0.00000000    0.00000000
     atom    8 type  2   force =    -0.00017919    0.00052803    0.02045022
     atom    9 type  2   force =    -0.00022915    0.00073378   -0.02092600
     atom   10 type  1   force =     0.00000000    0.00000000    0.00000000
     atom   11 type  2   force =     0.00021523   -0.00214395    0.01866751
     atom   12 type  2   force =     0.00124120    0.00113551   -0.02068031
     atom   13 type  1   force =     0.00000000    0.00000000    0.00000000
     atom   14 type  2   force =    -0.00444294    0.01582694    0.00031366
     atom   15 type  2   force =     0.00064960    0.00054209   -0.02065693
     atom   16 type  1   force =     0.00000000    0.00000000    0.00000000
     atom   17 type  2   force =     0.00014499    0.00167137    0.02012240
     atom   18 type  2   force =     0.00026104   -0.00022447   -0.02092467
     atom   19 type  1   force =     0.00000000    0.00000000    0.00000000
     atom   20 type  2   force =     0.00010785    0.00076723   -0.02110385
     atom   21 type  1   force =     0.00000000    0.00000000    0.00000000
     atom   22 type  2   force =    -0.00011900   -0.00092535    0.01992680
     atom   23 type  2   force =    -0.00075556    0.00105526   -0.02085191
     atom   24 type  1   force =     0.00000000    0.00000000    0.00000000
     atom   25 type  2   force =    -0.00012608   -0.00041567    0.02034362
     atom   26 type  2   force =    -0.00031107    0.00068632   -0.02084252
     atom   27 type  1   force =     0.00000000    0.00000000    0.00000000
     atom   28 type  2   force =     0.00026189    0.00189996    0.02088729
     atom   29 type  2   force =    -0.00055197   -0.00038528   -0.02060185
     atom   30 type  1   force =     0.00000000    0.00000000    0.00000000
     atom   31 type  2   force =     0.00047758    0.00021412    0.02059471
     atom   32 type  2   force =    -0.00009521    0.00078765   -0.02089464
     atom   33 type  1   force =     0.00000000    0.00000000    0.00000000
     atom   34 type  2   force =     0.00040418    0.00074697    0.02118124
     atom   35 type  2   force =    -0.00011971    0.00082412   -0.02103583
     atom   36 type  3   force =     0.00000000    0.00000000    0.00000000
     The Hubbard contrib.    to forces
     atom    1 type  1   force =     0.00000000    0.00000000    0.00000000
     atom    2 type  2   force =     0.00000000    0.00000000    0.00000000
     atom    3 type  2   force =     0.00000000    0.00000000    0.00000000
     atom    4 type  1   force =     0.00000000    0.00000000    0.00000000
     atom    5 type  2   force =     0.00000000    0.00000000    0.00000000
     atom    6 type  2   force =     0.00000000    0.00000000    0.00000000
     atom    7 type  1   force =     0.00000000    0.00000000    0.00000000
     atom    8 type  2   force =     0.00000000    0.00000000    0.00000000
     atom    9 type  2   force =     0.00000000    0.00000000    0.00000000
     atom   10 type  1   force =     0.00000000    0.00000000    0.00000000
     atom   11 type  2   force =     0.00000000    0.00000000    0.00000000
     atom   12 type  2   force =     0.00000000    0.00000000    0.00000000
     atom   13 type  1   force =     0.00000000    0.00000000    0.00000000
     atom   14 type  2   force =     0.00000000    0.00000000    0.00000000
     atom   15 type  2   force =     0.00000000    0.00000000    0.00000000
     atom   16 type  1   force =     0.00000000    0.00000000    0.00000000
     atom   17 type  2   force =     0.00000000    0.00000000    0.00000000
     atom   18 type  2   force =     0.00000000    0.00000000    0.00000000
     atom   19 type  1   force =     0.00000000    0.00000000    0.00000000
     atom   20 type  2   force =     0.00000000    0.00000000    0.00000000
     atom   21 type  1   force =     0.00000000    0.00000000    0.00000000
     atom   22 type  2   force =     0.00000000    0.00000000    0.00000000
     atom   23 type  2   force =     0.00000000    0.00000000    0.00000000
     atom   24 type  1   force =     0.00000000    0.00000000    0.00000000
     atom   25 type  2   force =     0.00000000    0.00000000    0.00000000
     atom   26 type  2   force =     0.00000000    0.00000000    0.00000000
     atom   27 type  1   force =     0.00000000    0.00000000    0.00000000
     atom   28 type  2   force =     0.00000000    0.00000000    0.00000000
     atom   29 type  2   force =     0.00000000    0.00000000    0.00000000
     atom   30 type  1   force =     0.00000000    0.00000000    0.00000000
     atom   31 type  2   force =     0.00000000    0.00000000    0.00000000
     atom   32 type  2   force =     0.00000000    0.00000000    0.00000000
     atom   33 type  1   force =     0.00000000    0.00000000    0.00000000
     atom   34 type  2   force =     0.00000000    0.00000000    0.00000000
     atom   35 type  2   force =     0.00000000    0.00000000    0.00000000
     atom   36 type  3   force =     0.00000000    0.00000000    0.00000000
     The SCF correction term to forces
     atom    1 type  1   force =    -0.00000846   -0.00001826   -0.00053913
     atom    2 type  2   force =    -0.00002367   -0.00002123   -0.00043669
     atom    3 type  2   force =    -0.00003663    0.00000548    0.00006590
     atom    4 type  1   force =    -0.00016248   -0.00017008   -0.00039777
     atom    5 type  2   force =    -0.00002806   -0.00005827   -0.00044081
     atom    6 type  2   force =    -0.00004923   -0.00007524    0.00013360
     atom    7 type  1   force =    -0.00012457    0.00004953   -0.00025739
     atom    8 type  2   force =    -0.00001987   -0.00003165   -0.00029918
     atom    9 type  2   force =    -0.00001578   -0.00004586   -0.00001049
     atom   10 type  1   force =    -0.00001944    0.00021673   -0.00030784
     atom   11 type  2   force =    -0.00001749    0.00008177   -0.00038935
     atom   12 type  2   force =    -0.00000848    0.00009944    0.00004914
     atom   13 type  1   force =     0.00004356   -0.00007010   -0.00050474
     atom   14 type  2   force =     0.00005002   -0.00007921   -0.00041332
     atom   15 type  2   force =     0.00001770    0.00003022    0.00013239
     atom   16 type  1   force =    -0.00000775   -0.00010740   -0.00036573
     atom   17 type  2   force =     0.00003778   -0.00002263   -0.00042400
     atom   18 type  2   force =     0.00005337   -0.00002490    0.00011496
     atom   19 type  1   force =     0.00010077   -0.00008363   -0.00028167
     atom   20 type  2   force =    -0.00002400   -0.00008110    0.00003537
     atom   21 type  1   force =     0.00005352    0.00022865   -0.00022466
     atom   22 type  2   force =     0.00006545    0.00008274   -0.00037117
     atom   23 type  2   force =     0.00002734    0.00007349    0.00004504
     atom   24 type  1   force =    -0.00003080   -0.00017464   -0.00037254
     atom   25 type  2   force =    -0.00000230   -0.00001256   -0.00043527
     atom   26 type  2   force =     0.00002915    0.00000763    0.00007929
     atom   27 type  1   force =     0.00015925   -0.00006031   -0.00039994
     atom   28 type  2   force =    -0.00000908   -0.00005752   -0.00035330
     atom   29 type  2   force =    -0.00000608   -0.00003541    0.00001294
     atom   30 type  1   force =     0.00002474   -0.00000569   -0.00034307
     atom   31 type  2   force =     0.00003332   -0.00003775   -0.00033074
     atom   32 type  2   force =     0.00003692   -0.00005524    0.00002182
     atom   33 type  1   force =    -0.00003821    0.00022300   -0.00033687
     atom   34 type  2   force =    -0.00003427    0.00013072   -0.00038634
     atom   35 type  2   force =    -0.00001163    0.00008954    0.00002583
     atom   36 type  3   force =    -0.00000114    0.00001207   -0.00008415

     Total force =     0.186464     Total SCF correction =     0.001964
     Energy error            =      5.3E-02 Ry
     Gradient error          =      1.1E-01 Ry/Bohr

     number of scf cycles    =   2
     number of bfgs steps    =   1

     energy             old  =   -2205.4695479295 Ry
     energy             new  =   -2205.5223639270 Ry

     CASE: energy            _new < energy            _old

     new trust radius        =       0.1072198240 bohr
     new conv_thr            =       0.0000001089 Ry


ATOMIC_POSITIONS (angstrom)
Mo            6.6033683149        1.7749184313        2.8189386672
S             8.1657966926        0.8244167969        4.4339402596
S             8.1816273163        0.8193594179        1.2715357006
Mo            8.1045108361        4.4910005939        2.7189639553
S             6.5014315634        3.7220802538        4.3413322881
S             6.5570984106        3.5216040700        1.1233786949
Mo            6.4898956434        7.2176690957        2.6655270844
S             8.0832008252        6.3390731368        4.2568616667
S             8.0937244218        6.3079882907        1.0930406325
Mo            8.1496718324        9.9114557697        2.8249783240
S             6.4996754716        8.9428062095        4.3818798727
S             6.6151382985        9.0485626260        1.1418311177
Mo            3.3892175872        1.7635646794        2.7526498137
S             4.9703236161        0.9265259363        4.2769433019
S             5.0468571305        0.8471503137        1.2150916411
Mo            4.9790959365        4.5113547805        2.6322420105
S             3.4307198120        3.6781655771        4.2830803574
S             3.4325690791        3.5426990367        1.0704530058
Mo            3.4619148358        7.2133394618        2.6285394094
S             4.9863668307        6.3216485435        1.0373558173
Mo            5.0054094511        9.8943890540        2.7198822214
S             3.4686812805        8.9415751435        4.3248958826
S             3.4079889786        9.0663843129        1.1011550382
Mo            0.2887350372        1.7465597112        2.8361652562
S             1.8581865762        0.8096638650        4.4021526196
S             1.8515023081        0.8523394657        1.2027015068
Mo            1.8562416083        4.4906892810        2.6688872279
S             0.2727891800        3.6538174393        4.3324131865
S             0.2339187755        3.5288215278        1.1681414089
Mo            0.2676632569        7.2249372026        2.6992852557
S             1.9031164981        6.3121590950        4.2358002814
S             1.8526945149        6.3142705006        1.0516137987
Mo            1.8567868682        9.9373188290        2.7667485983
S             0.2982807674        9.0526859597        4.4015027054
S             0.2697072924        9.0503069834        1.1621597149
H             5.2921957195       10.8085450186        5.2330192261



     Writing config-only to output data dir ./MoS2-V-O.save/
     NEW-OLD atomic charge density approx. for the potential

     negative rho (up, down):  1.468E-04 0.000E+00

     total cpu time spent up to now is      224.8 secs

     Self-consistent Calculation

     iteration #  1     ecut=    80.00 Ry     beta= 0.70
     Davidson diagonalization with overlap
     ethr =  1.00E-06,  avg # of iterations =  8.0

     negative rho (up, down):  7.860E-05 0.000E+00

     total cpu time spent up to now is      244.0 secs

     total energy              =   -2205.54188802 Ry
     estimated scf accuracy    <       0.00324287 Ry

     iteration #  2     ecut=    80.00 Ry     beta= 0.70
     Davidson diagonalization with overlap
     ethr =  1.06E-06,  avg # of iterations =  2.0

     negative rho (up, down):  6.283E-05 0.000E+00

     total cpu time spent up to now is      259.0 secs

     total energy              =   -2205.54202737 Ry
     estimated scf accuracy    <       0.00068024 Ry

     iteration #  3     ecut=    80.00 Ry     beta= 0.70
     Davidson diagonalization with overlap
     ethr =  2.22E-07,  avg # of iterations =  3.0

     negative rho (up, down):  4.920E-05 0.000E+00

     total cpu time spent up to now is      275.7 secs

     total energy              =   -2205.54206273 Ry
     estimated scf accuracy    <       0.00029728 Ry

     iteration #  4     ecut=    80.00 Ry     beta= 0.70
     Davidson diagonalization with overlap
     ethr =  9.68E-08,  avg # of iterations =  2.0

     negative rho (up, down):  4.476E-05 0.000E+00

     total cpu time spent up to now is      290.5 secs

     total energy              =   -2205.54208446 Ry
     estimated scf accuracy    <       0.00002441 Ry

     iteration #  5     ecut=    80.00 Ry     beta= 0.70
     Davidson diagonalization with overlap
     ethr =  7.95E-09,  avg # of iterations =  6.0

     negative rho (up, down):  4.432E-05 0.000E+00

     total cpu time spent up to now is      302.8 secs

     total energy              =   -2205.54209034 Ry
     estimated scf accuracy    <       0.00000634 Ry

     iteration #  6     ecut=    80.00 Ry     beta= 0.70
     Davidson diagonalization with overlap
     ethr =  2.06E-09,  avg # of iterations =  3.0

     negative rho (up, down):  4.588E-05 0.000E+00

     total cpu time spent up to now is      314.3 secs

     total energy              =   -2205.54209089 Ry
     estimated scf accuracy    <       0.00000196 Ry

     iteration #  7     ecut=    80.00 Ry     beta= 0.70
     Davidson diagonalization with overlap
     ethr =  6.37E-10,  avg # of iterations =  5.0

     negative rho (up, down):  4.935E-05 0.000E+00

     total cpu time spent up to now is      326.2 secs

     total energy              =   -2205.54209110 Ry
     estimated scf accuracy    <       0.00000083 Ry

     iteration #  8     ecut=    80.00 Ry     beta= 0.70
     Davidson diagonalization with overlap
     ethr =  2.71E-10,  avg # of iterations =  2.0

     negative rho (up, down):  6.903E-05 0.000E+00

     total cpu time spent up to now is      337.9 secs

     total energy              =   -2205.54209110 Ry
     estimated scf accuracy    <       0.00000040 Ry

     iteration #  9     ecut=    80.00 Ry     beta= 0.70
     Davidson diagonalization with overlap
     ethr =  1.31E-10,  avg # of iterations =  3.0

     negative rho (up, down):  1.380E-04 0.000E+00

     total cpu time spent up to now is      340.2 secs

     End of self-consistent calculation

          k = 0.0000 0.0000 0.0000 (105382 PWs)   bands (ev):

   -62.8879 -62.8777 -62.8614 -62.8458 -62.8062 -62.8005 -62.7971 -62.7889
   -62.7279 -62.6343 -62.6106 -62.5482 -37.2206 -37.1692 -37.1455 -37.1284
   -37.1093 -37.1069 -37.0996 -37.0673 -37.0646 -37.0415 -37.0379 -37.0237
   -36.9944 -36.9852 -36.9838 -36.9813 -36.9779 -36.9719 -36.9690 -36.9608
   -36.9194 -36.8967 -36.8914 -36.8711 -36.8479 -36.8399 -36.8313 -36.8214
   -36.7974 -36.7916 -36.7761 -36.7642 -36.7209 -36.6948 -36.5824 -36.5755
   -16.3368 -15.6656 -15.1570 -15.0072 -14.9261 -14.8324 -14.5920 -14.4619
   -14.4277 -14.4001 -14.3778 -14.3508 -14.3029 -14.2617 -14.1255 -14.0973
   -14.0854 -14.0766 -14.0275 -13.8602 -13.7997 -13.7716 -13.7463  -9.0157
    -7.6247  -7.4331  -7.3578  -7.2791  -7.2201  -7.2027  -7.1272  -7.0963
    -6.8523  -6.7455  -6.7025  -6.6354  -6.6065  -6.5676  -6.4384  -6.3777
    -6.2734  -6.2574  -6.1720  -6.0106  -5.9232  -5.8700  -5.7806  -5.7753
    -5.7584  -5.7128  -5.6431  -5.6233  -5.5993  -5.5693  -5.4791  -5.4177
    -5.4079  -5.3143  -5.2274  -5.1062  -5.0084  -4.9955  -4.9447  -4.9142
    -4.8811  -4.8146  -4.7232  -4.4913  -4.4291  -4.3433  -4.2798  -4.2157
    -4.1694  -4.0764  -4.0025  -3.9660  -3.8167  -3.7562  -3.6806  -3.6461
    -3.6050  -3.5338  -3.4868  -3.4643  -3.4556  -3.4418  -3.4167  -3.4040
    -3.3280  -3.2090  -3.1192  -2.8896  -2.8407  -2.7981  -2.7574  -2.7000
    -2.6865  -2.6604  -2.6250  -2.5624  -2.4910  -2.2046  -2.0110  -1.9569
    -1.8663  -0.7338  -0.6508  -0.5786  -0.1417  -0.1246  -0.0538  -0.0208
     0.0830   0.1603   0.1858   0.2043   0.2726   0.2856   0.4614   0.5138
     0.5825   0.5905   0.5964   0.6425   0.6766   0.6936   0.7413   0.7578
     0.7757   0.8577   0.8746   0.9355   0.9855   1.0215   1.0866   1.2563
     1.4129

     the Fermi energy is    -0.7676 ev

!    total energy              =   -2205.54209097 Ry
     estimated scf accuracy    <       0.00000007 Ry
     smearing contrib. (-TS)   =      -0.00882605 Ry
     internal energy E=F+TS    =   -2205.53326491 Ry

     The total energy is F=E-TS. E is the sum of the following terms:
     one-electron contribution =  -18064.99362698 Ry
     hartree contribution      =    9019.57679823 Ry
     xc contribution           =    -385.38771516 Ry
     ewald contribution        =    7225.27127899 Ry

     convergence has been achieved in   9 iterations

     negative rho (up, down):  1.380E-04 0.000E+00

     Forces acting on atoms (cartesian axes, Ry/au):

     atom    1 type  1   force =     0.00936163   -0.00165325   -0.00861426
     atom    2 type  2   force =    -0.00521313    0.00851004   -0.00182073
     atom    3 type  2   force =    -0.00616805    0.00505601   -0.01298660
     atom    4 type  1   force =     0.00636665    0.00095230    0.00146057
     atom    5 type  2   force =     0.00353846   -0.00187785   -0.00578865
     atom    6 type  2   force =     0.00461517    0.00723320    0.00057269
     atom    7 type  1   force =     0.00123104   -0.00079743    0.00014675
     atom    8 type  2   force =     0.00070151   -0.00354626    0.00797164
     atom    9 type  2   force =     0.00999704    0.00239158    0.00619334
     atom   10 type  1   force =    -0.00524041    0.00730400   -0.00319857
     atom   11 type  2   force =    -0.00025167    0.00457970   -0.00428171
     atom   12 type  2   force =    -0.00277999   -0.00145712   -0.00422992
     atom   13 type  1   force =    -0.00651673    0.00834888   -0.00767391
     atom   14 type  2   force =     0.03340822   -0.05367967    0.06397035
     atom   15 type  2   force =    -0.00898661    0.00345555   -0.01012625
     atom   16 type  1   force =    -0.00078406   -0.00176035    0.00032512
     atom   17 type  2   force =     0.00075496    0.00449532    0.00300944
     atom   18 type  2   force =    -0.00564543   -0.00025550    0.00413668
     atom   19 type  1   force =     0.00417168   -0.00356639    0.00152434
     atom   20 type  2   force =     0.00306832   -0.00493824   -0.00250351
     atom   21 type  1   force =    -0.00379526    0.00116345   -0.00509903
     atom   22 type  2   force =     0.00157587   -0.00019806   -0.00223823
     atom   23 type  2   force =    -0.00114495   -0.00196978   -0.00135095
     atom   24 type  1   force =    -0.00529185   -0.00210218   -0.00662550
     atom   25 type  2   force =     0.00329643    0.01245860   -0.00123469
     atom   26 type  2   force =    -0.01284620   -0.00408213   -0.01154114
     atom   27 type  1   force =    -0.00220347    0.00152065    0.00646930
     atom   28 type  2   force =     0.00022851   -0.00274205   -0.00292808
     atom   29 type  2   force =     0.00249449    0.00187234   -0.00492560
     atom   30 type  1   force =    -0.00163527   -0.00015516    0.00365011
     atom   31 type  2   force =     0.00064356    0.00021262    0.00720025
     atom   32 type  2   force =    -0.00693514    0.00294370    0.00678680
     atom   33 type  1   force =     0.00469453    0.00115095    0.00199387
     atom   34 type  2   force =    -0.00011966   -0.02396709   -0.01447986
     atom   35 type  2   force =    -0.00466117    0.00674110    0.00572291
     atom   36 type  3   force =    -0.00992900    0.02835853   -0.00948696
     The non-local contrib.  to forces
     atom    1 type  1   force =     0.00539190    0.03161894   -0.01721674
     atom    2 type  2   force =    -0.00784887   -0.00238806   -0.26489650
     atom    3 type  2   force =    -0.01069786   -0.00695182    0.26187677
     atom    4 type  1   force =     0.00075401    0.01263431    0.00323253
     atom    5 type  2   force =     0.00769960   -0.03544679   -0.25393324
     atom    6 type  2   force =     0.00037018    0.00404852    0.26265965
     atom    7 type  1   force =    -0.02810963   -0.01358956   -0.01749084
     atom    8 type  2   force =     0.00452944   -0.00481592   -0.25974751
     atom    9 type  2   force =     0.00655697   -0.01379368    0.27426363
     atom   10 type  1   force =     0.00420925   -0.00264699   -0.00226975
     atom   11 type  2   force =     0.00398102    0.02225441   -0.23072306
     atom   12 type  2   force =    -0.01391680   -0.01388540    0.25792977
     atom   13 type  1   force =    -0.00702362    0.02475210   -0.01411841
     atom   14 type  2   force =     0.06014821   -0.25956223    0.07139951
     atom   15 type  2   force =    -0.01159560   -0.00454922    0.26908389
     atom   16 type  1   force =     0.00159928    0.05379710   -0.01925895
     atom   17 type  2   force =    -0.00192563   -0.02568024   -0.24890791
     atom   18 type  2   force =    -0.00771634   -0.00343792    0.26755790
     atom   19 type  1   force =     0.02445769   -0.01257800   -0.01386147
     atom   20 type  2   force =     0.00056832   -0.02020065    0.26284946
     atom   21 type  1   force =    -0.00000515    0.00620554    0.00136034
     atom   22 type  2   force =    -0.00217935    0.00524330   -0.25007626
     atom   23 type  2   force =     0.00953966   -0.01483792    0.26291950
     atom   24 type  1   force =     0.00220371    0.01946793   -0.01259158
     atom   25 type  2   force =     0.00164203    0.00144914   -0.25752521
     atom   26 type  2   force =    -0.00173651   -0.01182427    0.26017383
     atom   27 type  1   force =    -0.00288820    0.01506018    0.00692536
     atom   28 type  2   force =    -0.00397827   -0.02724452   -0.27179501
     atom   29 type  2   force =     0.00625963   -0.00085072    0.26274486
     atom   30 type  1   force =    -0.00019538    0.01585370    0.00982059
     atom   31 type  2   force =    -0.00770966   -0.00131965   -0.25983152
     atom   32 type  2   force =    -0.00112314   -0.01481458    0.27208710
[...]
     atom   27 type  1   force =    -0.00235364    0.01819981    0.00357710
     atom   28 type  2   force =     0.00052585   -0.01747047   -0.27145188
     atom   29 type  2   force =    -0.00049283   -0.01023085    0.26896926
     atom   30 type  1   force =    -0.00017505    0.01931954    0.00693257
     atom   31 type  2   force =    -0.00809253   -0.00191752   -0.26467090
     atom   32 type  2   force =     0.00395234   -0.01366633    0.26270500
     atom   33 type  1   force =    -0.00059578   -0.00113863    0.00061561
     atom   34 type  2   force =     0.00055211   -0.00409572   -0.27001836
     atom   35 type  2   force =    -0.00105830   -0.01031028    0.26742041
     atom   36 type  3   force =    -0.00090054   -0.00109260   -0.06425289
     The ionic contribution  to forces
     atom    1 type  1   force =    -0.80547942    0.05772071    2.11218036
     atom    2 type  2   force =    -0.24419275   -0.12345100   38.96243763
     atom    3 type  2   force =    -0.05323900   -0.22110796  -37.59916432
     atom    4 type  1   force =    -0.41056614    0.53856053    0.39711972
     atom    5 type  2   force =    -0.98583898    1.36028785   38.43919468
     atom    6 type  2   force =    -0.04291370   -0.33708697  -38.32445141
     atom    7 type  1   force =    -3.37466901   -2.10120081    1.53613376
     atom    8 type  2   force =    -1.29328627    0.15463512   38.33125267
     atom    9 type  2   force =     0.23445605    0.03655628  -38.22500500
     atom   10 type  1   force =    -0.54724450   -0.27809962    2.79030416
     atom   11 type  2   force =    -0.48672268   -1.44982968   38.69943106
     atom   12 type  2   force =     0.09136514    0.49999065  -38.10387854
     atom   13 type  1   force =     0.82896127    0.01135978    2.63203075
     atom   14 type  2   force =    -0.00777182   -0.21554193   35.22847617
     atom   15 type  2   force =    -0.04349006   -0.27320820  -36.42470918
     atom   16 type  1   force =     0.15944220    3.75951810    1.24577704
     atom   17 type  2   force =     1.02054808    1.33250492   38.59491350
     atom   18 type  2   force =     0.00936433   -0.38334682  -38.30407654
     atom   19 type  1   force =     3.41717850   -1.87712719    2.32642036
     atom   20 type  2   force =    -0.01023653    0.07191111  -38.25099654
     atom   21 type  1   force =    -0.08996669    0.23661081    1.78866312
     atom   22 type  2   force =     0.50520382   -1.41916183   38.73687685
     atom   23 type  2   force =    -0.13313291    0.47231630  -37.90678021
     atom   24 type  1   force =    -0.01769663    0.14297961    2.81297148
     atom   25 type  2   force =     0.22491985   -0.13519737   39.04381371
     atom   26 type  2   force =     0.09135427   -0.25123808  -37.48456463
     atom   27 type  1   force =     0.29940403    0.48336670    0.74342375
     atom   28 type  2   force =    -0.03590514    0.50877779   38.29584212
     atom   29 type  2   force =     0.02048716   -0.22699390  -37.64814013
     atom   30 type  1   force =     0.00446715   -0.17632895    1.81798722
     atom   31 type  2   force =     1.20578869    0.18797929   38.46401174
     atom   32 type  2   force =    -0.21591379    0.06568376  -38.13520225
     atom   33 type  1   force =     0.64568317   -0.32941919    3.27091905
     atom   34 type  2   force =    -0.01790757   -0.43131058   38.71681255
     atom   35 type  2   force =     0.03965324    0.28111728  -37.29068607
     atom   36 type  3   force =     0.01789664    0.02777349    8.71066135
     The local contribution  to forces
     atom    1 type  1   force =     0.79303631   -0.09014606   -2.09964878
     atom    2 type  2   force =     0.25259742    0.12643994  -38.72737310
     atom    3 type  2   force =     0.05603913    0.22691419   37.35380135
     atom    4 type  1   force =     0.40762913   -0.55589152   -0.40098781
     atom    5 type  2   force =     0.98195864   -1.33220287  -38.21182019
     atom    6 type  2   force =     0.03849077    0.34151653   38.08242176
     atom    7 type  1   force =     3.40068038    2.10899554   -1.52812092
     atom    8 type  2   force =     1.28487928   -0.15343601  -38.08737855
     atom    9 type  2   force =    -0.22999003   -0.02487911   37.98180777
     atom   10 type  1   force =     0.54661837    0.27992242   -2.79162583
     atom   11 type  2   force =     0.48467259    1.44025506  -38.46891959
     atom   12 type  2   force =    -0.08668184   -0.48311153   37.86166167
     atom   13 type  1   force =    -0.81603988   -0.04258927   -2.62046872
     atom   14 type  2   force =     0.00416480    0.21304087  -35.49210871
     atom   15 type  2   force =     0.04279112    0.28142296   36.16394632
     atom   16 type  1   force =    -0.16049283   -3.81760820   -1.22432557
     atom   17 type  2   force =    -1.01713062   -1.30395924  -38.36722215
     atom   18 type  2   force =    -0.00478409    0.38780391   38.06246107
     atom   19 type  1   force =    -3.44422400    1.88448633   -2.31562905
     atom   20 type  2   force =     0.00960045   -0.05579524   38.00664793
     atom   21 type  1   force =     0.08838696   -0.23424832   -1.77547439
     atom   22 type  2   force =    -0.50321055    1.41099211  -38.50575992
     atom   23 type  2   force =     0.12745430   -0.45551082   37.66334615
     atom   24 type  1   force =     0.01816251   -0.16420005   -2.81151531
     atom   25 type  2   force =    -0.23381896    0.13805827  -38.80853001
     atom   26 type  2   force =    -0.09346317    0.25689588   37.23855887
     atom   27 type  1   force =    -0.29727734   -0.50179501   -0.74700115
     atom   28 type  2   force =     0.03537359   -0.49223302  -38.04467117
     atom   29 type  2   force =    -0.02014137    0.23743165   37.39950194
     atom   30 type  1   force =    -0.00430727    0.15774879   -1.82499353
     atom   31 type  2   force =    -1.19787781   -0.18730236  -38.22005234
     atom   32 type  2   force =     0.21240978   -0.05324520   37.89229546
     atom   33 type  1   force =    -0.64482720    0.33054833   -3.27193093
     atom   34 type  2   force =     0.01728254    0.43642777  -38.46776887
     atom   35 type  2   force =    -0.03924778   -0.27099901   37.04323326
     atom   36 type  3   force =    -0.01727556   -0.02690332   -8.64481551
     The core correction contribution to forces
     atom    1 type  1   force =     0.00000000    0.00000000    0.00000000
     atom    2 type  2   force =     0.00056697   -0.00011273    0.02023060
     atom    3 type  2   force =     0.00020555    0.00007002   -0.02100584
     atom    4 type  1   force =     0.00000000    0.00000000    0.00000000
     atom    5 type  2   force =    -0.00035299    0.00177927    0.01984801
     atom    6 type  2   force =    -0.00018319    0.00007714   -0.02079694
     atom    7 type  1   force =     0.00000000    0.00000000    0.00000000
     atom    8 type  2   force =    -0.00055460    0.00036523    0.02079716
     atom    9 type  2   force =     0.00052793    0.00069257   -0.02076758
     atom   10 type  1   force =     0.00000000    0.00000000    0.00000000
     atom   11 type  2   force =     0.00029602   -0.00111774    0.02005008
     atom   12 type  2   force =     0.00056705    0.00102520   -0.02087723
     atom   13 type  1   force =     0.00000000    0.00000000    0.00000000
     atom   14 type  2   force =    -0.00026788   -0.00055146   -0.01144235
     atom   15 type  2   force =    -0.00009214    0.00020466   -0.02127759
     atom   16 type  1   force =     0.00000000    0.00000000    0.00000000
     atom   17 type  2   force =     0.00039536    0.00186061    0.01989520
     atom   18 type  2   force =     0.00013781    0.00005488   -0.02081239
     atom   19 type  1   force =     0.00000000    0.00000000    0.00000000
     atom   20 type  2   force =    -0.00005459    0.00091006   -0.02110634
     atom   21 type  1   force =     0.00000000    0.00000000    0.00000000
     atom   22 type  2   force =    -0.00022450   -0.00101488    0.02007479
     atom   23 type  2   force =    -0.00065153    0.00092185   -0.02087330
     atom   24 type  1   force =     0.00000000    0.00000000    0.00000000
     atom   25 type  2   force =    -0.00065840   -0.00005848    0.02022420
     atom   26 type  2   force =    -0.00014753    0.00006187   -0.02098671
     atom   27 type  1   force =     0.00000000    0.00000000    0.00000000
     atom   28 type  2   force =    -0.00004373    0.00109527    0.02095815
     atom   29 type  2   force =     0.00004582    0.00033699   -0.02084725
     atom   30 type  1   force =     0.00000000    0.00000000    0.00000000
     atom   31 type  2   force =     0.00044191    0.00038192    0.02081414
     atom   32 type  2   force =    -0.00047998    0.00075542   -0.02074602
     atom   33 type  1   force =     0.00000000    0.00000000    0.00000000
     atom   34 type  2   force =    -0.00005318   -0.00003496    0.02088935
     atom   35 type  2   force =     0.00008011    0.00065458   -0.02088790
     atom   36 type  3   force =     0.00000000    0.00000000    0.00000000
     The Hubbard contrib.    to forces
     atom    1 type  1   force =     0.00000000    0.00000000    0.00000000
     atom    2 type  2   force =     0.00000000    0.00000000    0.00000000
     atom    3 type  2   force =     0.00000000    0.00000000    0.00000000
     atom    4 type  1   force =     0.00000000    0.00000000    0.00000000
     atom    5 type  2   force =     0.00000000    0.00000000    0.00000000
     atom    6 type  2   force =     0.00000000    0.00000000    0.00000000
     atom    7 type  1   force =     0.00000000    0.00000000    0.00000000
     atom    8 type  2   force =     0.00000000    0.00000000    0.00000000
     atom    9 type  2   force =     0.00000000    0.00000000    0.00000000
     atom   10 type  1   force =     0.00000000    0.00000000    0.00000000
     atom   11 type  2   force =     0.00000000    0.00000000    0.00000000
     atom   12 type  2   force =     0.00000000    0.00000000    0.00000000
     atom   13 type  1   force =     0.00000000    0.00000000    0.00000000
     atom   14 type  2   force =     0.00000000    0.00000000    0.00000000
     atom   15 type  2   force =     0.00000000    0.00000000    0.00000000
     atom   16 type  1   force =     0.00000000    0.00000000    0.00000000
     atom   17 type  2   force =     0.00000000    0.00000000    0.00000000
     atom   18 type  2   force =     0.00000000    0.00000000    0.00000000
     atom   19 type  1   force =     0.00000000    0.00000000    0.00000000
     atom   20 type  2   force =     0.00000000    0.00000000    0.00000000
     atom   21 type  1   force =     0.00000000    0.00000000    0.00000000
     atom   22 type  2   force =     0.00000000    0.00000000    0.00000000
     atom   23 type  2   force =     0.00000000    0.00000000    0.00000000
     atom   24 type  1   force =     0.00000000    0.00000000    0.00000000
     atom   25 type  2   force =     0.00000000    0.00000000    0.00000000
     atom   26 type  2   force =     0.00000000    0.00000000    0.00000000
     atom   27 type  1   force =     0.00000000    0.00000000    0.00000000
     atom   28 type  2   force =     0.00000000    0.00000000    0.00000000
     atom   29 type  2   force =     0.00000000    0.00000000    0.00000000
     atom   30 type  1   force =     0.00000000    0.00000000    0.00000000
     atom   31 type  2   force =     0.00000000    0.00000000    0.00000000
     atom   32 type  2   force =     0.00000000    0.00000000    0.00000000
     atom   33 type  1   force =     0.00000000    0.00000000    0.00000000
     atom   34 type  2   force =     0.00000000    0.00000000    0.00000000
     atom   35 type  2   force =     0.00000000    0.00000000    0.00000000
     atom   36 type  3   force =     0.00000000    0.00000000    0.00000000
     The SCF correction term to forces
     atom    1 type  1   force =     0.00000925   -0.00000445    0.00000144
     atom    2 type  2   force =     0.00000926   -0.00001338    0.00000353
     atom    3 type  2   force =     0.00000112   -0.00000141   -0.00000637
     atom    4 type  1   force =     0.00001712    0.00000385    0.00000578
     atom    5 type  2   force =     0.00000744    0.00000747   -0.00000056
     atom    6 type  2   force =     0.00000402    0.00000483   -0.00000960
     atom    7 type  1   force =    -0.00002149   -0.00000296   -0.00000074
     atom    8 type  2   force =     0.00001881   -0.00000325    0.00001595
     atom    9 type  2   force =     0.00001356   -0.00000873   -0.00001238
     atom   10 type  1   force =     0.00001794    0.00000500    0.00001979
     atom   11 type  2   force =    -0.00000487    0.00000903    0.00001947
     atom   12 type  2   force =    -0.00000568    0.00000553   -0.00000997
     atom   13 type  1   force =    -0.00000451   -0.00000545    0.00002629
     atom   14 type  2   force =    -0.00000504    0.00000182    0.00001850
     atom   15 type  2   force =     0.00000795   -0.00000227   -0.00000834
     atom   16 type  1   force =    -0.00002996    0.00003872   -0.00000803
     atom   17 type  2   force =    -0.00001935    0.00001882    0.00001871
     atom   18 type  2   force =    -0.00000394    0.00002692   -0.00000656
     atom   19 type  1   force =    -0.00003113    0.00000051    0.00002192
     atom   20 type  2   force =    -0.00002889    0.00000570    0.00000284
     atom   21 type  1   force =    -0.00003143   -0.00004062    0.00000761
     atom   22 type  2   force =    -0.00000843   -0.00002127    0.00000604
     atom   23 type  2   force =    -0.00000317   -0.00002885    0.00001541
     atom   24 type  1   force =     0.00000295    0.00000834    0.00000700
     atom   25 type  2   force =    -0.00000148   -0.00001741    0.00002914
     atom   26 type  2   force =    -0.00001199   -0.00001326   -0.00000373
     atom   27 type  1   force =     0.00001804    0.00005880    0.00001519
     atom   28 type  2   force =     0.00001135    0.00000843    0.00001177
     atom   29 type  2   force =    -0.00000265    0.00000843   -0.00000269
     atom   30 type  1   force =     0.00006375   -0.00000084    0.00000721
     atom   31 type  2   force =     0.00001597    0.00000911   -0.00000349
     atom   32 type  2   force =     0.00001319    0.00000726    0.00002156
     atom   33 type  1   force =    -0.00000280   -0.00003485    0.00003163
     atom   34 type  2   force =     0.00001862   -0.00000453    0.00001107
     atom   35 type  2   force =     0.00000871   -0.00000906    0.00000417
     atom   36 type  3   force =    -0.00000212   -0.00000053    0.00000216

     Total force =     0.005712     Total SCF correction =     0.000174
     Energy error            =      7.8E-05 Ry
     Gradient error          =      1.9E-03 Ry/Bohr

     bfgs converged in  38 scf cycles and  37 bfgs steps
     (criteria: energy <  1.0E-04 Ry, force <  1.0E-02 Ry/Bohr)

     End of BFGS Geometry Optimization

     Final energy             =   -2205.5885963614 Ry

     File ./MoS2-V-O.bfgs deleted, as requested
Begin final coordinates

ATOMIC_POSITIONS (angstrom)
Mo            6.6068874858        1.7751883119        2.7523484368
S             8.1413511096        0.8288318344        4.3697333168
S             8.1510538489        0.8231743336        1.1656258442
Mo            8.1376703418        4.4747591663        2.7020808106
S             6.5395070394        3.6683665460        4.3063588471
S             6.5807150781        3.5492304486        1.0873409833
Mo            6.5588674118        7.1626941024        2.6445043972
S             8.1002297644        6.2807045214        4.2929310698
S             8.1669303727        6.2949873347        1.0891739621
Mo            8.1359746650        9.9201041810        2.7613310039
S             6.5508796215        8.8936313308        4.3321896896
S             6.5995425757        9.0164516694        1.1086313787
Mo            3.3948920183        1.7769266620        2.7623296866
S             5.0038464195        0.7971259674        4.2272231256
S             4.9974701368        0.8159046009        1.2136243055
Mo            4.9977544514        4.5002359705        2.6413817333
S             3.4661926323        3.6739055810        4.3175591759
S             3.4212077002        3.5481654625        1.0922661606
Mo            3.4476198873        7.1512092078        2.6593931393
S             4.9998040123        6.2968131067        1.0466532322
Mo            5.0051933316        9.8214211133        2.7409045222
S             3.4615311948        8.8923346874        4.3397662354
S             3.4059176038        9.0080278849        1.1205985382
Mo            0.2726214268        1.7139655940        2.7717616935
S             1.8567712649        0.8329687629        4.3761327534
S             1.8551492793        0.8222950169        1.1755844374
Mo            1.8670649435        4.4754787615        2.7094581375
S             0.2707483634        3.5881292686        4.3108687938
S             0.2765324014        3.5292168754        1.1433103482
Mo            0.2729720198        7.1915346966        2.7269786845
S             1.8959937143        6.2809306363        4.3031711115
S             1.8407020925        6.2952607025        1.0985457968
Mo            1.8716003806        9.9205685282        2.7707693697
S             0.2725550025        9.0038652390        4.3480192146
S             0.2803324654        9.0365191892        1.1762013596
H             5.0220205103       11.7489191147        5.5903362541
End final coordinates



     Writing all to output data dir ./MoS2-V-O.save/
 
     init_run     :      2.37s CPU      2.66s WALL (       1 calls)
     electrons    :   3858.29s CPU   4310.68s WALL (      38 calls)
     update_pot   :     53.81s CPU     57.15s WALL (      37 calls)
     forces       :     53.00s CPU     61.89s WALL (      38 calls)

     Called by init_run:
     wfcinit      :      0.38s CPU      0.43s WALL (       1 calls)
     potinit      :      1.31s CPU      1.44s WALL (       1 calls)
     hinit0       :      0.16s CPU      0.18s WALL (       1 calls)

     Called by electrons:
     c_bands      :    452.33s CPU    460.15s WALL (     343 calls)
     sum_band     :    102.15s CPU    134.69s WALL (     343 calls)
     v_of_rho     :    164.72s CPU    201.87s WALL (     366 calls)
     newd         :     48.71s CPU     78.91s WALL (     366 calls)
     mix_rho      :   3107.38s CPU   3452.83s WALL (     343 calls)

     Called by c_bands:
     init_us_2    :      7.27s CPU      7.91s WALL (     687 calls)
     init_us_2:cp :      7.27s CPU      7.91s WALL (     687 calls)
     regterg      :    426.77s CPU    433.87s WALL (     343 calls)

     Called by *egterg:
     rdiaghg      :     30.73s CPU     31.13s WALL (    1805 calls)
     h_psi        :    228.51s CPU    230.76s WALL (    1858 calls)
     s_psi        :     27.35s CPU     27.47s WALL (    1858 calls)
     g_psi        :      2.64s CPU      2.67s WALL (    1514 calls)

     Called by h_psi:
     h_psi:calbec :     33.49s CPU     33.66s WALL (    1858 calls)
     vloc_psi     :    162.08s CPU    163.91s WALL (    1858 calls)
     add_vuspsi   :     27.34s CPU     27.54s WALL (    1858 calls)

     General routines
     calbec       :     47.57s CPU     47.82s WALL (    2353 calls)
     fft          :    107.49s CPU    125.22s WALL (   24544 calls)
     ffts         :   1398.14s CPU   1731.71s WALL (  759139 calls)
     fftw         :    138.90s CPU    140.31s WALL (  204069 calls)
     interpolate  :      2.61s CPU      3.07s WALL (     366 calls)
 
     Parallel routines
 
     PWSCF        :      1h 6m CPU      1h14m WALL

 
   This run was terminated on:  12:26:36   4Nov2023            

=------------------------------------------------------------------------------=
   JOB DONE.
=------------------------------------------------------------------------------=
