
     Program PWSCF v.7.2 starts on  4Nov2023 at 11:17:38 

     This program is part of the open-source Quantum ESPRESSO suite
     for quantum simulation of materials; please cite
         "P. Giannozzi et al., J. Phys.:Condens. Matter 21 395502 (2009);
         "P. Giannozzi et al., J. Phys.:Condens. Matter 29 465901 (2017);
         "P. Giannozzi et al., J. Chem. Phys. 152 154105 (2020);
          URL http://www.quantum-espresso.org", 
     in publications or presentations arising from this work. More details at
     http://www.quantum-espresso.org/quote

     Parallel version (MPI & OpenMP), running on      48 processor cores
     Number of MPI processes:                48
     Threads/MPI process:                     1

     MPI processes distributed on     1 nodes
     20075 MiB available memory on the printing compute node when the environment starts
 
     Waiting for input...
     Reading input from standard input
Warning: card &CELL ignored
Warning: card CELL_DYNAMICS = 'BFGS', ignored
Warning: card CELL_DOFREE = '2DXY' ignored
Warning: card / ignored

     Current dimensions of program PWSCF are:
     Max number of different atomic species (ntypx) = 10
     Max number of k-points (npk) =  40000
     Max angular momentum in pseudopotentials (lmaxx) =  4

     IMPORTANT: XC functional enforced from input :
     Exchange-correlation= RVV10
                           (   1   4  13   4  26   0   0)
     Any further DFT definition will be discarded
     Please, verify this is what you really want


     gamma-point specific algorithms are used
     signal trapping enabled: kill the code with -SIGUSR1 to stop cleanly the simulation 
 
     R & G space division:  proc/nbgrp/npool/nimage =      48
     Subspace diagonalization in iterative solution of the eigenvalue problem:
     one sub-group per band group will be used
     scalapack distributed-memory algorithm (size of sub-group:  2*  2 procs)

 
     Parallelization info
     --------------------
     sticks:   dense  smooth     PW     G-vecs:    dense   smooth      PW
     Min         243     194     47                49060    35090    4376
     Max         246     196     50                49086    35128    4410
     Sum       11735    9389   2349              2355467  1685513  210763
 
     Using Slab Decomposition
 


     bravais-lattice index     =            0
     lattice parameter (alat)  =      17.8707  a.u.
     unit-cell volume          =   17436.2743 (a.u.)^3
     number of atoms/cell      =           36
     number of atomic types    =            3
     number of electrons       =       307.00
     number of Kohn-Sham states=          185
     kinetic-energy cutoff     =      80.0000  Ry
     charge density cutoff     =     400.0000  Ry
     scf convergence threshold =      1.0E-06
     mixing beta               =       0.7000
     number of iterations used =            8  local-TF  mixing
     energy convergence thresh.=      1.0E-04
     force convergence thresh. =      1.0E-02
     Exchange-correlation= RVV10
                           (   1   4  13   4  26   0   0)
     nstep                     =          200


     celldm(1)=  17.870686  celldm(2)=   0.000000  celldm(3)=   0.000000
     celldm(4)=   0.000000  celldm(5)=   0.000000  celldm(6)=   0.000000

     crystal axes: (cart. coord. in units of alat)
               a(1) = (   1.000000   0.000000   0.000000 )  
               a(2) = (   0.000000   1.155671   0.000000 )  
               a(3) = (   0.000000   0.000000   2.643601 )  

     reciprocal axes: (cart. coord. in units 2 pi/alat)
               b(1) = (  1.000000  0.000000  0.000000 )  
               b(2) = (  0.000000  0.865298  0.000000 )  
               b(3) = (  0.000000  0.000000  0.378272 )  


     PseudoPot. # 1 for Mo read from file:
     ../pseudo/Mo_ONCV_PBE-1.0.oncvpsp.upf
     MD5 check sum: 1b5d28e075c9ccadda658a603575cd1f
     Pseudo is Norm-conserving, Zval = 14.0
     Generated using ONCVPSP code by D. R. Hamann
     Using radial grid of 1526 points,  6 beta functions with: 
                l(1) =   0
                l(2) =   0
                l(3) =   1
                l(4) =   1
                l(5) =   2
                l(6) =   2

     PseudoPot. # 2 for S  read from file:
     ../pseudo/s_pbe_v1.4.uspp.F.UPF
     MD5 check sum: 88d86576ff6df21479756cfb9bdac1df
     Pseudo is Ultrasoft + core correction, Zval =  6.0
     Generated by new atomic code, or converted to UPF format
     Using radial grid of  907 points,  6 beta functions with: 
                l(1) =   0
                l(2) =   0
                l(3) =   1
                l(4) =   1
                l(5) =   2
                l(6) =   2
     Q(r) pseudized with  8 coefficients,  rinner =    1.300   1.300   1.300
                                                       1.300   1.300

     PseudoPot. # 3 for H  read from file:
     ../pseudo/H_ONCV_PBE-1.0.oncvpsp.upf
     MD5 check sum: 1790becc920ee074925cf490c71280fe
     Pseudo is Norm-conserving, Zval =  1.0
     Generated using ONCVPSP code by D. R. Hamann
     Using radial grid of 1166 points,  2 beta functions with: 
                l(1) =   0
                l(2) =   0

     atomic species   valence    mass     pseudopotential
        Mo            14.00    95.94000     Mo( 1.00)
        S              6.00    32.06500     S ( 1.00)
        H              1.00     1.00794     H ( 1.00)

     No symmetry found



   Cartesian axes

     site n.     atom                  positions (alat units)
         1           Mo  tau(   1) = (   0.6952221   0.1890506   0.2985846  )
         2           S   tau(   2) = (   0.8646417   0.0856217   0.4689279  )
         3           S   tau(   3) = (   0.8663890   0.0857843   0.1351291  )
         4           Mo  tau(   4) = (   0.8560186   0.4753274   0.2873942  )
         5           S   tau(   5) = (   0.6873294   0.3936244   0.4596353  )
         6           S   tau(   6) = (   0.6929804   0.3713468   0.1185692  )
         7           Mo  tau(   7) = (   0.6862796   0.7633098   0.2825370  )
         8           S   tau(   8) = (   0.8545980   0.6708292   0.4486168  )
         9           S   tau(   9) = (   0.8545123   0.6666874   0.1146125  )
        10           Mo  tau(  10) = (   0.8629403   1.0471007   0.3006803  )
        11           S   tau(  11) = (   0.6868280   0.9456650   0.4634891  )
        12           S   tau(  12) = (   0.6998113   0.9568511   0.1205389  )
        13           Mo  tau(  13) = (   0.3618216   0.1847309   0.2935964  )
        14           S   tau(  14) = (   0.5260962   0.0863870   0.4600448  )
        15           S   tau(  15) = (   0.5348379   0.0894875   0.1297123  )
        16           Mo  tau(  16) = (   0.5265817   0.4772436   0.2784130  )
        17           S   tau(  17) = (   0.3624753   0.3882513   0.4525556  )
        18           S   tau(  18) = (   0.3635411   0.3752055   0.1119148  )
        19           Mo  tau(  19) = (   0.3652268   0.7630864   0.2781795  )
        20           S   tau(  20) = (   0.5269494   0.6690381   0.1096838  )
        21           Mo  tau(  21) = (   0.5300192   1.0470394   0.2900995  )
        22           S   tau(  22) = (   0.3670346   0.9457522   0.4574073  )
        23           S   tau(  23) = (   0.3604225   0.9585725   0.1159032  )
        24           Mo  tau(  24) = (   0.0313099   0.1847895   0.3013130  )
        25           S   tau(  25) = (   0.1956761   0.0838230   0.4650863  )
        26           S   tau(  26) = (   0.1967693   0.0903508   0.1278874  )
        27           Mo  tau(  27) = (   0.1967578   0.4753919   0.2813011  )
        28           S   tau(  28) = (   0.0287851   0.3864324   0.4586755  )
        29           S   tau(  29) = (   0.0244514   0.3729871   0.1239344  )
        30           Mo  tau(  30) = (   0.0286728   0.7631204   0.2856894  )
        31           S   tau(  31) = (   0.2011512   0.6675435   0.4465001  )
        32           S   tau(  32) = (   0.1969214   0.6672839   0.1104564  )
        33           Mo  tau(  33) = (   0.1950294   1.0511147   0.2932237  )
        34           S   tau(  34) = (   0.0312912   0.9612169   0.4667423  )
        35           S   tau(  35) = (   0.0292670   0.9563028   0.1216485  )
        36           H   tau(  36) = (   0.6666667   1.1556707   0.5391074  )

     number of k points=     1  Gaussian smearing, width (Ry)=  0.0100
                       cart. coord. in units 2pi/alat
        k(    1) = (   0.0000000   0.0000000   0.0000000), wk =   2.0000000

     Dense  grid:  1177734 G-vectors     FFT dimensions: ( 120, 135, 320)

     Smooth grid:   842757 G-vectors     FFT dimensions: ( 108, 120, 270)

     Estimated max dynamical RAM per process >     146.59 MB

     Estimated total dynamical RAM >       6.87 GB

     Initial potential from superposition of free atoms

     starting charge     306.9873, renormalised to     307.0000

     negative rho (up, down):  1.419E-04 0.000E+00


---------------------------------------------------------------------------------
Carrying out rVV10 run using the following parameters:
Nqs =      20    Nr_points =    1024   r_max =   100.000
b_value =  6.30000    beta =  0.00901
     q_mesh =  0.00010000  0.00030000  0.00058939  0.00100810
               0.00161396  0.00249058  0.00375900  0.00559430
               0.00824984  0.01209221  0.01765183  0.02569619
               0.03733578  0.05417739  0.07854596  0.11380545
               0.16482331  0.23864234  0.34545298  0.50000000

Gradients computed in Reciprocal space

---------------------------------------------------------------------------------


     Starting wfcs are  213 randomized atomic wfcs

     total cpu time spent up to now is        2.8 secs

     Self-consistent Calculation

     iteration #  1     ecut=    80.00 Ry     beta= 0.70
     Davidson diagonalization with overlap
     ethr =  1.00E-02,  avg # of iterations =  2.0

     Threshold (ethr) on eigenvalues was too large:
     Diagonalizing with lowered threshold

     Davidson diagonalization with overlap
     ethr =  3.57E-04,  avg # of iterations =  4.0

     negative rho (up, down):  1.931E-08 0.000E+00

     total cpu time spent up to now is       23.7 secs

     total energy              =   -2205.58052336 Ry
     estimated scf accuracy    <       1.38090360 Ry

     iteration #  2     ecut=    80.00 Ry     beta= 0.70
     Davidson diagonalization with overlap
     ethr =  4.50E-04,  avg # of iterations =  2.0

     total cpu time spent up to now is       26.2 secs

     total energy              =   -2205.43722527 Ry
     estimated scf accuracy    <       0.55669016 Ry

     iteration #  3     ecut=    80.00 Ry     beta= 0.70
     Davidson diagonalization with overlap
     ethr =  1.81E-04,  avg # of iterations =  2.0

     total cpu time spent up to now is       28.6 secs

     total energy              =   -2205.50578182 Ry
     estimated scf accuracy    <       0.10065903 Ry

     iteration #  4     ecut=    80.00 Ry     beta= 0.70
     Davidson diagonalization with overlap
     ethr =  3.28E-05,  avg # of iterations = 10.0

     total cpu time spent up to now is       31.6 secs

     total energy              =   -2205.51427865 Ry
     estimated scf accuracy    <       0.02908434 Ry

     iteration #  5     ecut=    80.00 Ry     beta= 0.70
     Davidson diagonalization with overlap
     ethr =  9.47E-06,  avg # of iterations =  3.0

     total cpu time spent up to now is       33.9 secs

     total energy              =   -2205.51436135 Ry
     estimated scf accuracy    <       0.01728142 Ry

     iteration #  6     ecut=    80.00 Ry     beta= 0.70
     Davidson diagonalization with overlap
     ethr =  5.63E-06,  avg # of iterations =  2.0

     total cpu time spent up to now is       36.1 secs

     total energy              =   -2205.51332913 Ry
     estimated scf accuracy    <       0.01256043 Ry

     iteration #  7     ecut=    80.00 Ry     beta= 0.70
     Davidson diagonalization with overlap
     ethr =  4.09E-06,  avg # of iterations =  2.0

     total cpu time spent up to now is       39.7 secs

     total energy              =   -2205.51154152 Ry
     estimated scf accuracy    <       0.00757124 Ry

     iteration #  8     ecut=    80.00 Ry     beta= 0.70
     Davidson diagonalization with overlap
     c_bands:  2 eigenvalues not converged
     ethr =  2.47E-06,  avg # of iterations = 20.0

     negative rho (up, down):  5.279E-03 0.000E+00

     total cpu time spent up to now is       45.0 secs

     total energy              =   -2205.51133933 Ry
     estimated scf accuracy    <       0.00353208 Ry

     iteration #  9     ecut=    80.00 Ry     beta= 0.70
     Davidson diagonalization with overlap
     ethr =  1.15E-06,  avg # of iterations = 10.0

     negative rho (up, down):  2.842E-02 0.000E+00

     total cpu time spent up to now is       50.6 secs

     total energy              =   -2205.51122370 Ry
     estimated scf accuracy    <       0.00219989 Ry

     iteration # 10     ecut=    80.00 Ry     beta= 0.70
     Davidson diagonalization with overlap
     ethr =  7.17E-07,  avg # of iterations =  2.0

     negative rho (up, down):  2.986E-02 0.000E+00

     total cpu time spent up to now is       55.1 secs

     total energy              =   -2205.51129962 Ry
     estimated scf accuracy    <       0.00086960 Ry

     iteration # 11     ecut=    80.00 Ry     beta= 0.70
     Davidson diagonalization with overlap
     ethr =  2.83E-07,  avg # of iterations =  2.0

     negative rho (up, down):  1.582E-02 0.000E+00

     total cpu time spent up to now is       59.7 secs

     total energy              =   -2205.51133046 Ry
     estimated scf accuracy    <       0.00022429 Ry

     iteration # 12     ecut=    80.00 Ry     beta= 0.70
     Davidson diagonalization with overlap
     ethr =  7.31E-08,  avg # of iterations =  4.0

     negative rho (up, down):  4.146E-03 0.000E+00

     total cpu time spent up to now is       65.5 secs

     total energy              =   -2205.51139451 Ry
     estimated scf accuracy    <       0.00003950 Ry

     iteration # 13     ecut=    80.00 Ry     beta= 0.70
     Davidson diagonalization with overlap
     ethr =  1.29E-08,  avg # of iterations =  5.0

     negative rho (up, down):  6.854E-04 0.000E+00

     total cpu time spent up to now is       74.3 secs

     total energy              =   -2205.51140564 Ry
     estimated scf accuracy    <       0.00000374 Ry

     iteration # 14     ecut=    80.00 Ry     beta= 0.70
     Davidson diagonalization with overlap
     ethr =  1.22E-09,  avg # of iterations =  5.0

     negative rho (up, down):  1.380E-04 0.000E+00

     total cpu time spent up to now is       77.0 secs

     End of self-consistent calculation

          k = 0.0000 0.0000 0.0000 (105382 PWs)   bands (ev):

   -62.8787 -62.8719 -62.8660 -62.8571 -62.8395 -62.8229 -62.8134 -62.8011
   -62.7922 -62.7917 -62.7655 -62.7500 -37.2327 -37.1610 -37.1539 -37.1463
   -37.1360 -37.1118 -37.0831 -37.0761 -37.0757 -37.0605 -37.0587 -37.0427
   -37.0386 -37.0364 -37.0226 -37.0163 -37.0087 -37.0028 -36.9971 -36.9774
   -36.9723 -36.9537 -36.9484 -36.9377 -36.9284 -36.9248 -36.9189 -36.9072
   -36.8895 -36.8848 -36.8769 -36.8622 -36.8512 -36.7966 -36.7482 -36.7130
   -16.0489 -15.3030 -15.1869 -15.0027 -14.9665 -14.8983 -14.5433 -14.5048
   -14.4836 -14.4711 -14.4221 -14.3830 -14.3743 -14.2927 -14.1704 -14.1634
   -14.1189 -14.1107 -14.0684 -13.9159 -13.8509 -13.8345 -13.8072  -8.2736
    -7.6334  -7.4688  -7.3010  -7.2913  -7.2466  -7.2045  -7.1356  -6.9696
    -6.8471  -6.7813  -6.7596  -6.6882  -6.6159  -6.5170  -6.4655  -6.4252
    -6.3786  -6.2883  -6.0303  -5.9941  -5.9315  -5.8551  -5.8294  -5.8099
    -5.7707  -5.7450  -5.6844  -5.6648  -5.6199  -5.5826  -5.5505  -5.4641
    -5.4395  -5.3912  -5.2145  -5.1466  -5.0554  -5.0290  -5.0000  -4.9345
    -4.9275  -4.8359  -4.7121  -4.5272  -4.3705  -4.3271  -4.2744  -4.2410
    -4.1911  -4.1528  -4.0084  -3.9756  -3.8352  -3.7934  -3.7584  -3.6932
    -3.6457  -3.5713  -3.5438  -3.5043  -3.4938  -3.4674  -3.4383  -3.4110
    -3.3932  -3.2216  -3.1493  -2.9151  -2.9128  -2.8021  -2.7774  -2.7401
    -2.7186  -2.6879  -2.6535  -2.6463  -2.5695  -2.2937  -2.0865  -2.0030
    -1.9202  -1.0070  -0.8055  -0.6696  -0.1937  -0.1314  -0.1012  -0.0417
     0.0218   0.1165   0.1581   0.2088   0.2506   0.2764   0.3594   0.4248
     0.4569   0.5171   0.5394   0.5703   0.5964   0.6560   0.6936   0.7414
     0.7451   0.7959   0.8240   0.8765   0.9394   0.9745   1.0406   1.3422
     1.3814

     the Fermi energy is    -1.0110 ev

!    total energy              =   -2205.51141239 Ry
     estimated scf accuracy    <       0.00000057 Ry
     smearing contrib. (-TS)   =      -0.00622394 Ry
     internal energy E=F+TS    =   -2205.50518846 Ry

     The total energy is F=E-TS. E is the sum of the following terms:
     one-electron contribution =  -18054.60758204 Ry
     hartree contribution      =    9013.95562720 Ry
     xc contribution           =    -385.25850099 Ry
     ewald contribution        =    7220.40526737 Ry

     convergence has been achieved in  14 iterations

     negative rho (up, down):  1.380E-04 0.000E+00

     Forces acting on atoms (cartesian axes, Ry/au):

     atom    1 type  1   force =     0.01406297   -0.01577400   -0.00894559
     atom    2 type  2   force =    -0.02863186    0.00729359    0.00936676
     atom    3 type  2   force =    -0.01216004    0.00972225   -0.00326418
     atom    4 type  1   force =     0.00717589   -0.00093896   -0.00264633
     atom    5 type  2   force =    -0.00064974   -0.00503880   -0.00648352
     atom    6 type  2   force =     0.00266101    0.01206726    0.00126347
     atom    7 type  1   force =     0.00250512   -0.01486374   -0.01912138
     atom    8 type  2   force =     0.00190600   -0.00442428    0.01773722
     atom    9 type  2   force =     0.01048715    0.00630867    0.01237538
     atom   10 type  1   force =    -0.00824685    0.00753865   -0.03192795
     atom   11 type  2   force =     0.00573235    0.02233703    0.00454030
     atom   12 type  2   force =    -0.00084906    0.00040957    0.00612365
     atom   13 type  1   force =    -0.01566478    0.01918750   -0.03085975
     atom   14 type  2   force =     0.05917035   -0.03105572    0.05111228
     atom   15 type  2   force =    -0.01311494    0.00328009   -0.00939704
     atom   16 type  1   force =    -0.00286514    0.00590210    0.00143005
     atom   17 type  2   force =     0.00449780    0.00016837    0.00580422
     atom   18 type  2   force =    -0.00313895   -0.00831703    0.01278397
     atom   19 type  1   force =     0.00568594   -0.01612186   -0.00404538
     atom   20 type  2   force =     0.00467649   -0.00507741    0.00223069
     atom   21 type  1   force =    -0.00673285   -0.00233902   -0.01344804
     atom   22 type  2   force =    -0.00391712   -0.00178248   -0.00209719
     atom   23 type  2   force =    -0.00420033    0.00249758    0.00740710
     atom   24 type  1   force =    -0.00135092    0.00242293   -0.02772128
     atom   25 type  2   force =     0.01556848    0.01803822    0.00893677
     atom   26 type  2   force =    -0.01072139   -0.00193116   -0.00525569
     atom   27 type  1   force =    -0.00043563    0.00203078    0.00755587
     atom   28 type  2   force =     0.00131057   -0.00062302   -0.00463833
     atom   29 type  2   force =     0.00304227   -0.00153448   -0.00213642
     atom   30 type  1   force =    -0.00473651    0.01259016   -0.00628662
     atom   31 type  2   force =     0.00072654    0.00007510    0.01602564
     atom   32 type  2   force =    -0.00870793    0.00690674    0.00780435
     atom   33 type  1   force =     0.01381386   -0.00252062   -0.00965276
     atom   34 type  2   force =     0.00348342   -0.04337567   -0.00918290
     atom   35 type  2   force =    -0.00621384    0.00529026    0.01391398
     atom   36 type  3   force =    -0.02416834    0.01165141    0.01069866
     The non-local contrib.  to forces
     atom    1 type  1   force =    -0.00176814    0.03202184   -0.00712992
     atom    2 type  2   force =    -0.04695820   -0.01157831   -0.23102654
     atom    3 type  2   force =    -0.01635517   -0.00236452    0.27125684
     atom    4 type  1   force =     0.00058336    0.00531249    0.00426534
     atom    5 type  2   force =     0.00551151   -0.03572328   -0.25087247
     atom    6 type  2   force =    -0.00188880    0.01028471    0.26370570
     atom    7 type  1   force =    -0.01881929    0.00158939   -0.02181214
     atom    8 type  2   force =     0.00594613   -0.00433934   -0.25354536
     atom    9 type  2   force =     0.00688642   -0.00840899    0.27834865
     atom   10 type  1   force =     0.00443611    0.00108159    0.00054766
     atom   11 type  2   force =     0.01394310    0.04984895   -0.20433780
     atom   12 type  2   force =    -0.01210135   -0.01657772    0.26354127
     atom   13 type  1   force =     0.00495253    0.01289590   -0.00308944
     atom   14 type  2   force =     0.15862401   -0.09473707   -0.12851096
     atom   15 type  2   force =    -0.01194701   -0.00644462    0.26187295
     atom   16 type  1   force =     0.00223578    0.03264988   -0.02843449
     atom   17 type  2   force =     0.00133996   -0.02584854   -0.24827092
     atom   18 type  2   force =    -0.00521669   -0.00542231    0.27555614
     atom   19 type  1   force =     0.01414829    0.00031222   -0.01671363
     atom   20 type  2   force =    -0.00020237   -0.02107694    0.26625790
     atom   21 type  1   force =     0.00151446    0.02436497    0.01199452
     atom   22 type  2   force =    -0.00775055    0.00498210   -0.25479289
     atom   23 type  2   force =     0.00551306   -0.01535403    0.26917074
     atom   24 type  1   force =     0.00325678    0.01488912   -0.00938800
     atom   25 type  2   force =     0.00616770    0.00470109   -0.24840088
     atom   26 type  2   force =    -0.00233690   -0.01032931    0.26665148
     atom   27 type  1   force =    -0.00364872    0.00903177    0.00908782
     atom   28 type  2   force =    -0.00362119   -0.02227998   -0.27298246
     atom   29 type  2   force =     0.00692159    0.00194520    0.26450283
     atom   30 type  1   force =     0.00062218    0.01630169    0.01079781
     atom   31 type  2   force =    -0.00763206    0.00172743   -0.25296001
     atom   32 type  2   force =    -0.00232500   -0.01052296    0.27345146
     atom   33 type  1   force =    -0.00500605    0.00545802    0.00646630
     atom   34 type  2   force =    -0.00158472   -0.03677224   -0.27200973
     atom   35 type  2   force =    -0.00122905   -0.01066407    0.27160296
     atom   36 type  3   force =    -0.01090677    0.00633837   -0.00893800
     The ionic contribution  to forces
     atom    1 type  1   force =     0.46487508    0.75459014    5.10227924
     atom    2 type  2   force =    -0.06220718    0.67274908   39.08598280
     atom    3 type  2   force =    -0.11023164    0.04312532  -36.17707564
     atom    4 type  1   force =     0.15203339    0.67991081    0.65251961
     atom    5 type  2   force =    -0.95693063    1.67047195   38.73201011
     atom    6 type  2   force =     0.34902645   -0.45449106  -38.05358677
     atom    7 type  1   force =    -2.60290910   -3.00065742    2.46822711
     atom    8 type  2   force =    -0.94934228   -0.02681282   37.39419837
     atom    9 type  2   force =     0.35434458   -0.05245751  -38.00399855
     atom   10 type  1   force =    -0.68030898   -0.56674197    5.19777490
     atom   11 type  2   force =    -0.49849386   -2.28290081   38.91979709
     atom   12 type  2   force =     0.45147838    0.63469529  -37.94208947
     atom   13 type  1   force =     0.26160971    1.15982501    2.70014356
     atom   14 type  2   force =    -0.77799015    0.51435058   38.06582265
     atom   15 type  2   force =     0.11485637   -0.03104646  -36.91822026
     atom   16 type  1   force =    -0.07147571    4.05271727    0.45682057
     atom   17 type  2   force =     0.75707735    1.58103646   37.93626711
     atom   18 type  2   force =    -0.17830527   -0.61742880  -38.57049371
     atom   19 type  1   force =     2.63996260   -2.56182110    0.63065798
     atom   20 type  2   force =     0.21878486   -0.21500972  -38.48128909
     atom   21 type  1   force =    -0.33815555   -0.26515061    0.52397942
     atom   22 type  2   force =     0.29697267   -1.85198609   38.40290469
     atom   23 type  2   force =    -0.11850359    0.63401256  -38.32238425
     atom   24 type  1   force =    -0.38934411    1.27561731    5.74276284
     atom   25 type  2   force =     0.62475482    0.31636227   39.26401144
     atom   26 type  2   force =    -0.29656878    0.07805130  -37.35564678
     atom   27 type  1   force =     0.01358810    0.45809641   -2.23025539
     atom   28 type  2   force =     0.09318438    1.07311892   38.21492588
     atom   29 type  2   force =    -0.25066739   -0.40086636  -37.26693917
     atom   30 type  1   force =    -0.27930276   -1.00148448   -0.03993307
     atom   31 type  2   force =     1.21905986   -0.07952233   37.34175594
     atom   32 type  2   force =    -0.48325575   -0.01586976  -38.62328134
     atom   33 type  1   force =     0.75223182   -0.92145119    1.99614899
     atom   34 type  2   force =     0.35306124   -1.53403523   39.34450706
     atom   35 type  2   force =    -0.27509230    0.44959505  -37.83766513
     atom   36 type  3   force =     0.20218338   -0.16859202    7.64936125
     The local contribution  to forces
     atom    1 type  1   force =    -0.44904815   -0.80221901   -5.10348776
     atom    2 type  2   force =     0.07807687   -0.65459164  -38.86384004
     atom    3 type  2   force =     0.11365166   -0.03103242   35.92349968
     atom    4 type  1   force =    -0.14558783   -0.68635010   -0.65906869
     atom    5 type  2   force =     0.95130471   -1.64192785  -38.50756034
     atom    6 type  2   force =    -0.34480482    0.45734640   37.81202272
     atom    7 type  1   force =     2.62442478    2.98438367   -2.46492927
     atom    8 type  2   force =     0.94547689    0.02628497  -37.14289541
     atom    9 type  2   force =    -0.35058784    0.06663519   37.75892259
     atom   10 type  1   force =     0.66750537    0.57323010   -5.22947280
     atom   11 type  2   force =     0.49093399    2.25859871  -38.72818398
     atom   12 type  2   force =    -0.44131372   -0.61911910   37.70539422
     atom   13 type  1   force =    -0.28221105   -1.15322758   -2.72756005
     atom   14 type  2   force =     0.68810423   -0.45588690  -37.89874456
     atom   15 type  2   force =    -0.11674504    0.04051391   36.66756270
     atom   16 type  1   force =     0.06636478   -4.08016212   -0.42644917
     atom   17 type  2   force =    -0.75385606   -1.55659905  -37.70205529
     atom   18 type  2   force =     0.18030691    0.61481661   38.32880163
     atom   19 type  1   force =    -2.64847738    2.54560405   -0.61746455
     atom   20 type  2   force =    -0.21400651    0.23019082   38.23827824
     atom   21 type  1   force =     0.32999419    0.23850031   -0.54884476
     atom   22 type  2   force =    -0.29327143    1.84583648  -38.17009486
     atom   23 type  2   force =     0.10926295   -0.61745975   38.08142118
     atom   24 type  1   force =     0.38471173   -1.28814639   -5.76029995
     atom   25 type  2   force =    -0.61537733   -0.30259790  -39.02634768
     atom   26 type  2   force =     0.28841969   -0.07017243   37.10470582
     atom   27 type  1   force =    -0.01024405   -0.46532115    2.22899747
     atom   28 type  2   force =    -0.08855343   -1.05327558  -37.96701121
     atom   29 type  2   force =     0.24737418    0.39797308   37.02080939
     atom   30 type  1   force =     0.27378398    0.99774495    0.02319708
     atom   31 type  2   force =    -1.21120926    0.07784163  -37.09287668
     atom   32 type  2   force =     0.47697048    0.03262958   38.37848375
     atom   33 type  1   force =    -0.73343913    0.91358702   -2.01162052
     atom   34 type  2   force =    -0.34852612    1.52640564  -39.10228640
     atom   35 type  2   force =     0.27020592   -0.43468365   37.60099631
     atom   36 type  3   force =    -0.21542699    0.17389218   -7.62965547
     The core correction contribution to forces
     atom    1 type  1   force =     0.00000000    0.00000000    0.00000000
     atom    2 type  2   force =     0.00246919    0.00069101    0.01867250
     atom    3 type  2   force =     0.00073724    0.00000483   -0.02093815
     atom    4 type  1   force =     0.00000000    0.00000000    0.00000000
     atom    5 type  2   force =    -0.00057300    0.00200890    0.02024288
     atom    6 type  2   force =     0.00027469   -0.00108138   -0.02091388
     atom    7 type  1   force =     0.00000000    0.00000000    0.00000000
     atom    8 type  2   force =    -0.00015868    0.00048668    0.02036569
     atom    9 type  2   force =    -0.00012615    0.00051847   -0.02105463
     atom   10 type  1   force =     0.00000000    0.00000000    0.00000000
     atom   11 type  2   force =    -0.00058330   -0.00317387    0.01771468
     atom   12 type  2   force =     0.00112716    0.00138154   -0.02084079
     atom   13 type  1   force =     0.00000000    0.00000000    0.00000000
     atom   14 type  2   force =    -0.00957780    0.00529183    0.01299401
     atom   15 type  2   force =     0.00066108    0.00039376   -0.02062965
     atom   16 type  1   force =     0.00000000    0.00000000    0.00000000
     atom   17 type  2   force =     0.00000706    0.00141711    0.02012828
     atom   18 type  2   force =     0.00011966   -0.00038798   -0.02110222
     atom   19 type  1   force =     0.00000000    0.00000000    0.00000000
     atom   20 type  2   force =     0.00014422    0.00077700   -0.02121791
     atom   21 type  1   force =     0.00000000    0.00000000    0.00000000
     atom   22 type  2   force =     0.00016466   -0.00056983    0.02031984
     atom   23 type  2   force =    -0.00047243    0.00127418   -0.02095855
     atom   24 type  1   force =     0.00000000    0.00000000    0.00000000
     atom   25 type  2   force =     0.00001078   -0.00038756    0.02008754
     atom   26 type  2   force =    -0.00014405    0.00061260   -0.02098433
     atom   27 type  1   force =     0.00000000    0.00000000    0.00000000
     atom   28 type  2   force =     0.00026919    0.00170207    0.02086806
     atom   29 type  2   force =    -0.00058223   -0.00058155   -0.02063075
     atom   30 type  1   force =     0.00000000    0.00000000    0.00000000
     atom   31 type  2   force =     0.00044972    0.00001238    0.02050766
     atom   32 type  2   force =    -0.00015638    0.00063068   -0.02102375
     atom   33 type  1   force =     0.00000000    0.00000000    0.00000000
     atom   34 type  2   force =     0.00044059    0.00111078    0.02105345
     atom   35 type  2   force =    -0.00014312    0.00098282   -0.02111437
     atom   36 type  3   force =     0.00000000    0.00000000    0.00000000
     The Hubbard contrib.    to forces
     atom    1 type  1   force =     0.00000000    0.00000000    0.00000000
     atom    2 type  2   force =     0.00000000    0.00000000    0.00000000
     atom    3 type  2   force =     0.00000000    0.00000000    0.00000000
     atom    4 type  1   force =     0.00000000    0.00000000    0.00000000
     atom    5 type  2   force =     0.00000000    0.00000000    0.00000000
     atom    6 type  2   force =     0.00000000    0.00000000    0.00000000
     atom    7 type  1   force =     0.00000000    0.00000000    0.00000000
     atom    8 type  2   force =     0.00000000    0.00000000    0.00000000
     atom    9 type  2   force =     0.00000000    0.00000000    0.00000000
     atom   10 type  1   force =     0.00000000    0.00000000    0.00000000
     atom   11 type  2   force =     0.00000000    0.00000000    0.00000000
     atom   12 type  2   force =     0.00000000    0.00000000    0.00000000
     atom   13 type  1   force =     0.00000000    0.00000000    0.00000000
     atom   14 type  2   force =     0.00000000    0.00000000    0.00000000
     atom   15 type  2   force =     0.00000000    0.00000000    0.00000000
     atom   16 type  1   force =     0.00000000    0.00000000    0.00000000
     atom   17 type  2   force =     0.00000000    0.00000000    0.00000000
     atom   18 type  2   force =     0.00000000    0.00000000    0.00000000
     atom   19 type  1   force =     0.00000000    0.00000000    0.00000000
     atom   20 type  2   force =     0.00000000    0.00000000    0.00000000
     atom   21 type  1   force =     0.00000000    0.00000000    0.00000000
     atom   22 type  2   force =     0.00000000    0.00000000    0.00000000
     atom   23 type  2   force =     0.00000000    0.00000000    0.00000000
     atom   24 type  1   force =     0.00000000    0.00000000    0.00000000
     atom   25 type  2   force =     0.00000000    0.00000000    0.00000000
     atom   26 type  2   force =     0.00000000    0.00000000    0.00000000
     atom   27 type  1   force =     0.00000000    0.00000000    0.00000000
     atom   28 type  2   force =     0.00000000    0.00000000    0.00000000
     atom   29 type  2   force =     0.00000000    0.00000000    0.00000000
     atom   30 type  1   force =     0.00000000    0.00000000    0.00000000
     atom   31 type  2   force =     0.00000000    0.00000000    0.00000000
     atom   32 type  2   force =     0.00000000    0.00000000    0.00000000
     atom   33 type  1   force =     0.00000000    0.00000000    0.00000000
     atom   34 type  2   force =     0.00000000    0.00000000    0.00000000
     atom   35 type  2   force =     0.00000000    0.00000000    0.00000000
     atom   36 type  3   force =     0.00000000    0.00000000    0.00000000
     The SCF correction term to forces
     atom    1 type  1   force =     0.00000398   -0.00017235   -0.00059783
     atom    2 type  2   force =    -0.00001276    0.00001806   -0.00041264
     atom    3 type  2   force =     0.00003765   -0.00001636    0.00000242
     atom    4 type  1   force =     0.00014676    0.00018245   -0.00035327
     atom    5 type  2   force =     0.00003745    0.00012610   -0.00029438
     atom    6 type  2   force =     0.00005327    0.00000321    0.00004503
     atom    7 type  1   force =    -0.00019148   -0.00018476   -0.00059776
     atom    8 type  2   force =    -0.00001628   -0.00004915   -0.00037674
     atom    9 type  2   force =    -0.00003007    0.00001612    0.00016665
     atom   10 type  1   force =     0.00012043   -0.00003646   -0.00076839
     atom   11 type  2   force =    -0.00006780   -0.00004134   -0.00044035
     atom   12 type  2   force =    -0.00003973    0.00002418    0.00012775
     atom   13 type  1   force =    -0.00001619   -0.00031122   -0.00034450
     atom   14 type  2   force =     0.00000985   -0.00007956   -0.00043954
     atom   15 type  2   force =     0.00005944   -0.00014188    0.00002654
     atom   16 type  1   force =     0.00000979    0.00069168   -0.00049754
     atom   17 type  2   force =    -0.00007072    0.00015700   -0.00025564
     atom   18 type  2   force =    -0.00004376    0.00010006    0.00003145
     atom   19 type  1   force =     0.00005220   -0.00022242   -0.00051584
     atom   20 type  2   force =    -0.00004392    0.00003605    0.00021088
     atom   21 type  1   force =    -0.00008616   -0.00005907   -0.00056789
     atom   22 type  2   force =    -0.00003268   -0.00005054   -0.00042466
     atom   23 type  2   force =    -0.00000053    0.00001924    0.00016730
     atom   24 type  1   force =     0.00002446    0.00005750   -0.00078685
     atom   25 type  2   force =     0.00001230   -0.00004507   -0.00040432
     atom   26 type  2   force =    -0.00009156   -0.00009871    0.00002745
     atom   27 type  1   force =    -0.00013117    0.00021836   -0.00026471
     atom   28 type  2   force =     0.00003141    0.00010616   -0.00042927
     atom   29 type  2   force =    -0.00000409   -0.00001024    0.00013060
     atom   30 type  1   force =     0.00015988    0.00002262   -0.00033912
     atom   31 type  2   force =     0.00005807    0.00001060   -0.00039195
     atom   32 type  2   force =     0.00005850    0.00003382    0.00018357
     atom   33 type  1   force =     0.00002699   -0.00011985   -0.00063821
     atom   34 type  2   force =     0.00009221   -0.00009000   -0.00043796
     atom   35 type  2   force =     0.00004450    0.00005473    0.00010354
     atom   36 type  3   force =    -0.00001818    0.00000749   -0.00005979

     Total force =     0.143659     Total SCF correction =     0.002570

     BFGS Geometry Optimization
     Energy error            =      0.0E+00 Ry
     Gradient error          =      5.9E-02 Ry/Bohr

     number of scf cycles    =   1
     number of bfgs steps    =   0

     energy             new  =   -2205.5114123940 Ry

     new trust radius        =       0.0841311629 bohr
     new conv_thr            =       0.0000010000 Ry


ATOMIC_POSITIONS (angstrom)
Mo            6.5819902128        1.7794589900        2.8189092290
S             8.1615580120        0.8135636235        4.4394950269
S             8.1867982689        0.8163865390        1.2761560947
Mo            8.0989598844        4.4945600685        2.7164180137
S             6.4995654271        3.7197450712        4.3432297199
S             6.5547579442        3.5181232761        1.1219488273
Mo            6.4913073503        7.2105717305        2.6617658878
S             8.0827363379        6.3415297638        4.2518476945
S             8.0864672066        6.3080407196        1.0904117686
Mo            8.1562550046        9.9061696943        2.8265662193
S             6.4982010254        8.9547470594        4.3855081576
S             6.6174978988        9.0489279486        1.1431477980
Mo            3.4133702161        1.7571094393        2.7601408877
S             5.0064770892        0.8005072298        4.3775805458
S             5.0508936270        0.8479978560        1.2216857609
Mo            4.9782405158        4.5163012596        2.6336412990
S             3.4302217969        3.6716887832        4.2827810407
S             3.4362595211        3.5438275156        1.0651166662
Mo            3.4568706081        7.2077932173        2.6285361408
S             4.9857088853        6.3242454348        1.0384341635
Mo            5.0087010518        9.9003622962        2.7362845645
S             3.4688852649        8.9428080195        4.3244815245
S             3.4062064486        9.0663116482        1.0999879675
Mo            0.2953756120        1.7487916900        2.8347752378
S             1.8587006985        0.8022394210        4.4029385751
S             1.8551265197        0.8534039918        1.2066196611
Mo            1.8604607839        4.4967414033        2.6641957724
S             0.2729073727        3.6540691393        4.3351296032
S             0.2328411082        3.5264372135        1.1708873401
Mo            0.2686456984        7.2233085180        2.6983696911
S             1.9026227152        6.3128385758        4.2309245241
S             1.8576301743        6.3139987035        1.0486891697
Mo            1.8516566406        9.9388053006        2.7678382292
S             0.2977562460        9.0670444126        4.4090100822
S             0.2734831797        9.0463251987        1.1577637384
H             6.2917173318       10.9350656587        5.1038709262



     Writing config-only to output data dir ./MoS2-V-O.save/
     NEW-OLD atomic charge density approx. for the potential

     negative rho (up, down):  1.471E-04 0.000E+00

     total cpu time spent up to now is       80.6 secs

     Self-consistent Calculation

     iteration #  1     ecut=    80.00 Ry     beta= 0.70
     Davidson diagonalization with overlap
     ethr =  1.00E-06,  avg # of iterations = 10.0

     negative rho (up, down):  1.151E-04 0.000E+00

     total cpu time spent up to now is       93.7 secs

     total energy              =   -2205.52828955 Ry
     estimated scf accuracy    <       0.00163822 Ry

     iteration #  2     ecut=    80.00 Ry     beta= 0.70
     Davidson diagonalization with overlap
     ethr =  5.34E-07,  avg # of iterations =  2.0

     negative rho (up, down):  1.070E-04 0.000E+00

     total cpu time spent up to now is      111.6 secs

     total energy              =   -2205.52829666 Ry
     estimated scf accuracy    <       0.00036962 Ry

     iteration #  3     ecut=    80.00 Ry     beta= 0.70
     Davidson diagonalization with overlap
     ethr =  1.20E-07,  avg # of iterations =  4.0

     negative rho (up, down):  1.051E-04 0.000E+00

     total cpu time spent up to now is      126.3 secs

     total energy              =   -2205.52834325 Ry
     estimated scf accuracy    <       0.00004631 Ry

     iteration #  4     ecut=    80.00 Ry     beta= 0.70
     Davidson diagonalization with overlap
     ethr =  1.51E-08,  avg # of iterations = 17.0

     negative rho (up, down):  1.010E-04 0.000E+00

     total cpu time spent up to now is      147.1 secs

     total energy              =   -2205.52835475 Ry
     estimated scf accuracy    <       0.00001052 Ry

     iteration #  5     ecut=    80.00 Ry     beta= 0.70
     Davidson diagonalization with overlap
     ethr =  3.43E-09,  avg # of iterations =  2.0

     negative rho (up, down):  9.444E-05 0.000E+00

     total cpu time spent up to now is      160.6 secs

     total energy              =   -2205.52835573 Ry
     estimated scf accuracy    <       0.00000219 Ry

     iteration #  6     ecut=    80.00 Ry     beta= 0.70
     Davidson diagonalization with overlap
     ethr =  7.13E-10,  avg # of iterations =  5.0

     negative rho (up, down):  9.376E-05 0.000E+00

     total cpu time spent up to now is      174.4 secs

     total energy              =   -2205.52835616 Ry
     estimated scf accuracy    <       0.00000141 Ry

     iteration #  7     ecut=    80.00 Ry     beta= 0.70
     Davidson diagonalization with overlap
     ethr =  4.58E-10,  avg # of iterations =  1.0

     negative rho (up, down):  1.383E-04 0.000E+00

     total cpu time spent up to now is      176.5 secs

     End of self-consistent calculation

          k = 0.0000 0.0000 0.0000 (105382 PWs)   bands (ev):

   -62.8785 -62.8741 -62.8644 -62.8551 -62.8382 -62.8250 -62.8114 -62.7991
   -62.7915 -62.7799 -62.7692 -62.7566 -37.2306 -37.1633 -37.1521 -37.1429
   -37.1316 -37.1125 -37.0800 -37.0755 -37.0753 -37.0630 -37.0594 -37.0402
   -37.0364 -37.0300 -37.0187 -37.0161 -37.0071 -37.0019 -36.9952 -36.9734
   -36.9610 -36.9534 -36.9474 -36.9375 -36.9254 -36.9249 -36.9183 -36.9069
   -36.8901 -36.8869 -36.8779 -36.8624 -36.8520 -36.7898 -36.7513 -36.7191
   -16.0480 -15.3199 -15.1869 -15.0024 -14.9621 -14.8892 -14.5444 -14.5027
   -14.4741 -14.4526 -14.4222 -14.3855 -14.3722 -14.2899 -14.1658 -14.1604
   -14.1203 -14.1116 -14.0770 -13.8994 -13.8630 -13.8337 -13.8087  -8.3169
    -7.6294  -7.4574  -7.2924  -7.2711  -7.2457  -7.2018  -7.1434  -6.9722
    -6.8463  -6.7756  -6.7583  -6.6778  -6.6105  -6.5162  -6.4652  -6.4259
    -6.3779  -6.2766  -6.0225  -5.9863  -5.9074  -5.8522  -5.8238  -5.8185
    -5.7714  -5.7405  -5.6892  -5.6716  -5.6352  -5.5745  -5.5511  -5.4591
    -5.4179  -5.3717  -5.1963  -5.1397  -5.0491  -5.0192  -4.9993  -4.9419
    -4.9314  -4.8387  -4.7086  -4.5244  -4.3573  -4.3217  -4.2753  -4.2430
    -4.2039  -4.1719  -4.0159  -3.9893  -3.8383  -3.7820  -3.7506  -3.6891
    -3.6520  -3.5589  -3.5366  -3.5069  -3.5028  -3.4674  -3.4355  -3.3973
    -3.3872  -3.2328  -3.1587  -2.9161  -2.9057  -2.7944  -2.7809  -2.7270
    -2.7184  -2.7070  -2.6619  -2.6432  -2.5654  -2.2865  -2.0957  -1.9986
    -1.9495  -1.0040  -0.7976  -0.6809  -0.1955  -0.1351  -0.1051  -0.0297
     0.0415   0.1161   0.1516   0.2212   0.2710   0.2719   0.3837   0.4297
     0.4582   0.5289   0.5413   0.5719   0.6020   0.6493   0.6965   0.7287
     0.7544   0.8069   0.8280   0.8875   0.9540   0.9817   1.0344   1.3242
     1.3697

     the Fermi energy is    -1.0076 ev

!    total energy              =   -2205.52835549 Ry
     estimated scf accuracy    <       0.00000080 Ry
     smearing contrib. (-TS)   =      -0.00617657 Ry
     internal energy E=F+TS    =   -2205.52217892 Ry

     The total energy is F=E-TS. E is the sum of the following terms:
     one-electron contribution =  -18051.94395990 Ry
     hartree contribution      =    9012.66043174 Ry
     xc contribution           =    -385.25537629 Ry
     ewald contribution        =    7219.01672553 Ry

     convergence has been achieved in   7 iterations

     negative rho (up, down):  1.383E-04 0.000E+00

     Forces acting on atoms (cartesian axes, Ry/au):

     atom    1 type  1   force =     0.00466801   -0.00865065   -0.00385605
     atom    2 type  2   force =    -0.01574855    0.00635893   -0.00091568
     atom    3 type  2   force =    -0.01009219    0.00834326   -0.01066227
     atom    4 type  1   force =     0.00605396    0.00033825    0.00121767
     atom    5 type  2   force =     0.00073003   -0.00533165   -0.00750734
     atom    6 type  2   force =     0.00218948    0.00960593    0.00040466
     atom    7 type  1   force =     0.00376538   -0.00713894   -0.00324084
     atom    8 type  2   force =     0.00078786   -0.00358395    0.01070148
     atom    9 type  2   force =     0.01023546    0.00463345    0.00661081
     atom   10 type  1   force =    -0.00342214    0.00716695   -0.01014751
     atom   11 type  2   force =     0.00507950    0.01218956   -0.00523324
     atom   12 type  2   force =    -0.00235752   -0.00028402   -0.00105081
     atom   13 type  1   force =    -0.00196277    0.00902517   -0.01215758
     atom   14 type  2   force =     0.04760236   -0.02592111    0.03689143
     atom   15 type  2   force =    -0.01114435    0.00333820   -0.00856186
     atom   16 type  1   force =    -0.00170696    0.00248295    0.00259794
     atom   17 type  2   force =     0.00392560   -0.00064723    0.00423692
     atom   18 type  2   force =    -0.00361008   -0.00357801    0.00732712
     atom   19 type  1   force =     0.00299622   -0.01079405    0.00122077
     atom   20 type  2   force =     0.00329663   -0.00590567   -0.00326976
     atom   21 type  1   force =    -0.00333922   -0.00155831   -0.00160630
     atom   22 type  2   force =    -0.00191081   -0.00272659   -0.00445762
     atom   23 type  2   force =    -0.00328034   -0.00056015    0.00248523
     atom   24 type  1   force =    -0.00377034   -0.00139987   -0.00885559
     atom   25 type  2   force =     0.01182300    0.01525476   -0.00017935
     atom   26 type  2   force =    -0.00892463   -0.00240303   -0.00982916
     atom   27 type  1   force =    -0.00046416    0.00255155    0.00733531
     atom   28 type  2   force =     0.00098215   -0.00236452   -0.00545603
     atom   29 type  2   force =     0.00350949    0.00114064   -0.00474971
     atom   30 type  1   force =    -0.00279835    0.00339986    0.00290827
     atom   31 type  2   force =    -0.00013440    0.00072223    0.01063021
     atom   32 type  2   force =    -0.00733417    0.00544304    0.00580583
     atom   33 type  1   force =     0.00661590    0.00098756    0.00108032
     atom   34 type  2   force =     0.00068454   -0.03115797   -0.01463778
     atom   35 type  2   force =    -0.00402509    0.00659523    0.00605494
     atom   36 type  3   force =    -0.02891949    0.01442821    0.00886555
     The non-local contrib.  to forces
     atom    1 type  1   force =    -0.00051952    0.02893387   -0.00836545
     atom    2 type  2   force =    -0.03201613   -0.01236829   -0.23714372
     atom    3 type  2   force =    -0.01347156   -0.00414405    0.26642305
     atom    4 type  1   force =     0.00180643    0.00570081    0.00330593
     atom    5 type  2   force =     0.00634921   -0.03562739   -0.25208013
     atom    6 type  2   force =    -0.00206653    0.00789854    0.26416188
     atom    7 type  1   force =    -0.01875887    0.00007470   -0.02411640
     atom    8 type  2   force =     0.00536743   -0.00399635   -0.25778993
     atom    9 type  2   force =     0.00568810   -0.00948563    0.27508385
     atom   10 type  1   force =     0.00351661    0.00063858   -0.00221986
     atom   11 type  2   force =     0.01565735    0.03814048   -0.21376665
     atom   12 type  2   force =    -0.01288563   -0.01775428    0.26098844
     atom   13 type  1   force =     0.00314370    0.01493248   -0.00261638
     atom   14 type  2   force =     0.16436076   -0.10019039   -0.13259887
     atom   15 type  2   force =    -0.01053183   -0.00714699    0.26338051
     atom   16 type  1   force =     0.00143336    0.03279636   -0.02987933
     atom   17 type  2   force =     0.00056953   -0.02326102   -0.24876240
     atom   18 type  2   force =    -0.00560452   -0.00291140    0.27268458
     atom   19 type  1   force =     0.01511396    0.00018439   -0.01888047
     atom   20 type  2   force =    -0.00074189   -0.02085691    0.26269354
     atom   21 type  1   force =     0.00100650    0.02552702    0.00927184
     atom   22 type  2   force =    -0.00570673    0.00306333   -0.25643307
     atom   23 type  2   force =     0.00616130   -0.01870943    0.26647813
     atom   24 type  1   force =     0.00304286    0.01583720   -0.00881981
     atom   25 type  2   force =     0.00213416    0.00207270   -0.25310624
     atom   26 type  2   force =    -0.00112622   -0.00982898    0.26366063
     atom   27 type  1   force =    -0.00367494    0.00806039    0.00740352
     atom   28 type  2   force =    -0.00372538   -0.02222289   -0.27374822
     atom   29 type  2   force =     0.00705124    0.00227097    0.26377964
     atom   30 type  1   force =     0.00030998    0.01767973    0.00974486
     atom   31 type  2   force =    -0.00781327    0.00225530   -0.25669644
     atom   32 type  2   force =    -0.00099053   -0.01098258    0.27252941
     atom   33 type  1   force =    -0.00327034    0.00449551    0.00414426
     atom   34 type  2   force =    -0.00364484   -0.02694971   -0.27631031
     atom   35 type  2   force =    -0.00000800   -0.00942347    0.26733133
     atom   36 type  3   force =    -0.01400458    0.00831869   -0.01049596
     The ionic contribution  to forces
     atom    1 type  1   force =     0.05184057    0.94411759    4.95816222
     atom    2 type  2   force =     0.18211053    0.59233554   39.13834781
     atom    3 type  2   force =    -0.08912052    0.04493911  -36.25475792
     atom    4 type  1   force =     0.07690909    0.68252398    0.75613230
     atom    5 type  2   force =    -0.97485895    1.63033314   38.65717408
     atom    6 type  2   force =     0.29850882   -0.47288888  -37.97197418
     atom    7 type  1   force =    -2.56679869   -2.76173743    2.32285240
     atom    8 type  2   force =    -0.99310857    0.01274584   37.49840399
     atom    9 type  2   force =     0.37887389   -0.09789527  -37.96294684
     atom   10 type  1   force =    -0.46667222   -0.56044520    4.81070186
     atom   11 type  2   force =    -0.46518317   -2.36897295   38.85771373
     atom   12 type  2   force =     0.38657956    0.59527450  -37.90884440
     atom   13 type  1   force =     0.67447923    0.79108653    2.43361329
     atom   14 type  2   force =    -1.11403323    0.67822971   38.11764964
     atom   15 type  2   force =     0.12371510   -0.00471710  -36.85877647
     atom   16 type  1   force =     0.03225476    3.83806695    0.66667766
     atom   17 type  2   force =     0.80291764    1.46763591   38.01194461
     atom   18 type  2   force =    -0.14202805   -0.50668469  -38.54501186
     atom   19 type  1   force =     2.59625981   -2.39955080    0.69437656
     atom   20 type  2   force =     0.17789564   -0.21876728  -38.53747775
     atom   21 type  1   force =    -0.41650889   -0.16213545    0.41751164
     atom   22 type  2   force =     0.31419562   -1.82237584   38.38943638
     atom   23 type  2   force =    -0.11442815    0.56663984  -38.28179824
     atom   24 type  1   force =    -0.35070583    1.01729840    5.47754308
     atom   25 type  2   force =     0.57783140    0.25679508   39.25187088
     atom   26 type  2   force =    -0.28404853   -0.00899088  -37.36907216
     atom   27 type  1   force =    -0.01504409    0.55812814   -1.90015970
     atom   28 type  2   force =     0.07971269    0.97722519   38.23507323
     atom   29 type  2   force =    -0.23812192   -0.30989847  -37.30129652
     atom   30 type  1   force =    -0.21786418   -1.10960485   -0.01560173
     atom   31 type  2   force =     1.19390037   -0.03425312   37.42741631
     atom   32 type  2   force =    -0.47468733   -0.03651925  -38.57040603
     atom   33 type  1   force =     0.62655639   -0.72217557    2.18193445
     atom   34 type  2   force =     0.30113807   -1.30629983   39.26013827
     atom   35 type  2   force =    -0.20690521    0.46038738  -37.76836424
     atom   36 type  3   force =     0.25443833   -0.20984996    7.68181367
     The local contribution  to forces
     atom    1 type  1   force =    -0.04629692   -0.98172297   -4.95501178
     atom    2 type  2   force =    -0.16787333   -0.57418031  -38.92148952
     atom    3 type  2   force =     0.09187254   -0.03251607   35.99810050
     atom    4 type  1   force =    -0.07251004   -0.68802427   -0.75939749
     atom    5 type  2   force =     0.96988255   -1.60196485  -38.43323750
     atom    6 type  2   force =    -0.29446802    0.47551660   37.72873136
     atom    7 type  1   force =     2.58922767    2.75447618   -2.30329747
     atom    8 type  2   force =     0.98879816   -0.01290843  -37.25080402
     atom    9 type  2   force =    -0.37422863    0.11150818   37.71508339
     atom   10 type  1   force =     0.45976276    0.56707364   -4.82017076
     atom   11 type  2   force =     0.45519675    2.34576989  -38.66753709
     atom   12 type  2   force =    -0.37715034   -0.57912499   37.66711082
     atom   13 type  1   force =    -0.67993415   -0.79679744   -2.44473360
     atom   14 type  2   force =     1.00794816   -0.61004037  -37.96103415
     atom   15 type  2   force =    -0.12494630    0.01474274   36.60698734
     atom   16 type  1   force =    -0.03558728   -3.86827885   -0.63535580
     atom   17 type  2   force =    -0.79971190   -1.44611758  -37.77949821
     atom   18 type  2   force =     0.14383729    0.50637304   38.30040071
     atom   19 type  1   force =    -2.60855647    2.38847355   -0.67546387
     atom   20 type  2   force =    -0.17409282    0.23294594   38.29230540
     atom   21 type  1   force =     0.41218546    0.13495730   -0.42982002
     atom   22 type  2   force =    -0.31054761    1.81699607  -38.15831188
     atom   23 type  2   force =     0.10546250   -0.54984962   38.03835097
     atom   24 type  1   force =     0.34392512   -1.03435135   -5.47900872
     atom   25 type  2   force =    -0.56833463   -0.24324663  -39.01955230
     atom   26 type  2   force =     0.27643014    0.01593881   37.11607083
     atom   27 type  1   force =     0.01828841   -0.56366698    1.89899423
     atom   28 type  2   force =    -0.07521868   -0.95893076  -37.98812047
     atom   29 type  2   force =     0.23515062    0.30922163   37.05307991
     atom   30 type  1   force =     0.21498138    1.09530114    0.00755120
     atom   31 type  2   force =    -1.18660099    0.03264707  -37.18114979
     atom   32 type  2   force =     0.46861593    0.05238438   38.32439906
     atom   33 type  1   force =    -0.61671012    0.71853940   -2.18642040
     atom   34 type  2   force =    -0.29717530    1.30112280  -39.02009232
     atom   35 type  2   force =     0.20304817   -0.44530444   37.52770234
     atom   36 type  3   force =    -0.26934388    0.21596144   -7.66253237
     The core correction contribution to forces
     atom    1 type  1   force =     0.00000000    0.00000000    0.00000000
     atom    2 type  2   force =     0.00191405    0.00067769    0.01890391
     atom    3 type  2   force =     0.00062382    0.00009674   -0.02083918
     atom    4 type  1   force =     0.00000000    0.00000000    0.00000000
     atom    5 type  2   force =    -0.00062010    0.00196753    0.02024289
     atom    6 type  2   force =     0.00025332   -0.00095655   -0.02089558
     atom    7 type  1   force =     0.00000000    0.00000000    0.00000000
     atom    8 type  2   force =    -0.00014517    0.00049106    0.02049700
     atom    9 type  2   force =    -0.00002024    0.00051223   -0.02099690
     atom   10 type  1   force =     0.00000000    0.00000000    0.00000000
     atom   11 type  2   force =    -0.00062616   -0.00266276    0.01800845
     atom   12 type  2   force =     0.00111373    0.00140767   -0.02077419
     atom   13 type  1   force =     0.00000000    0.00000000    0.00000000
     atom   14 type  2   force =    -0.01046750    0.00599455    0.01256734
     atom   15 type  2   force =     0.00062084    0.00044639   -0.02066884
     atom   16 type  1   force =     0.00000000    0.00000000    0.00000000
     atom   17 type  2   force =     0.00006478    0.00122835    0.02015466
     atom   18 type  2   force =     0.00014380   -0.00038938   -0.02106935
     atom   19 type  1   force =     0.00000000    0.00000000    0.00000000
     atom   20 type  2   force =     0.00013950    0.00075773   -0.02114122
     atom   21 type  1   force =     0.00000000    0.00000000    0.00000000
     atom   22 type  2   force =     0.00008232   -0.00050554    0.02038106
     atom   23 type  2   force =    -0.00050849    0.00135561   -0.02090091
     atom   24 type  1   force =     0.00000000    0.00000000    0.00000000
     atom   25 type  2   force =     0.00017622   -0.00028188    0.02020601
     atom   26 type  2   force =    -0.00020531    0.00051289   -0.02090121
     atom   27 type  1   force =     0.00000000    0.00000000    0.00000000
     atom   28 type  2   force =     0.00026860    0.00161361    0.02092214
     atom   29 type  2   force =    -0.00055810   -0.00052304   -0.02063782
     atom   30 type  1   force =     0.00000000    0.00000000    0.00000000
     atom   31 type  2   force =     0.00041801    0.00003460    0.02060327
     atom   32 type  2   force =    -0.00023987    0.00061201   -0.02099349
     atom   33 type  1   force =     0.00000000    0.00000000    0.00000000
     atom   34 type  2   force =     0.00047498    0.00078812    0.02119029
     atom   35 type  2   force =    -0.00014400    0.00093580   -0.02100146
     atom   36 type  3   force =     0.00000000    0.00000000    0.00000000
     The Hubbard contrib.    to forces
     atom    1 type  1   force =     0.00000000    0.00000000    0.00000000
     atom    2 type  2   force =     0.00000000    0.00000000    0.00000000
     atom    3 type  2   force =     0.00000000    0.00000000    0.00000000
     atom    4 type  1   force =     0.00000000    0.00000000    0.00000000
     atom    5 type  2   force =     0.00000000    0.00000000    0.00000000
     atom    6 type  2   force =     0.00000000    0.00000000    0.00000000
     atom    7 type  1   force =     0.00000000    0.00000000    0.00000000
     atom    8 type  2   force =     0.00000000    0.00000000    0.00000000
     atom    9 type  2   force =     0.00000000    0.00000000    0.00000000
     atom   10 type  1   force =     0.00000000    0.00000000    0.00000000
     atom   11 type  2   force =     0.00000000    0.00000000    0.00000000
     atom   12 type  2   force =     0.00000000    0.00000000    0.00000000
     atom   13 type  1   force =     0.00000000    0.00000000    0.00000000
     atom   14 type  2   force =     0.00000000    0.00000000    0.00000000
     atom   15 type  2   force =     0.00000000    0.00000000    0.00000000
     atom   16 type  1   force =     0.00000000    0.00000000    0.00000000
     atom   17 type  2   force =     0.00000000    0.00000000    0.00000000
     atom   18 type  2   force =     0.00000000    0.00000000    0.00000000
     atom   19 type  1   force =     0.00000000    0.00000000    0.00000000
     atom   20 type  2   force =     0.00000000    0.00000000    0.00000000
     atom   21 type  1   force =     0.00000000    0.00000000    0.00000000
     atom   22 type  2   force =     0.00000000    0.00000000    0.00000000
     atom   23 type  2   force =     0.00000000    0.00000000    0.00000000
     atom   24 type  1   force =     0.00000000    0.00000000    0.00000000
     atom   25 type  2   force =     0.00000000    0.00000000    0.00000000
     atom   26 type  2   force =     0.00000000    0.00000000    0.00000000
     atom   27 type  1   force =     0.00000000    0.00000000    0.00000000
     atom   28 type  2   force =     0.00000000    0.00000000    0.00000000
     atom   29 type  2   force =     0.00000000    0.00000000    0.00000000
     atom   30 type  1   force =     0.00000000    0.00000000    0.00000000
     atom   31 type  2   force =     0.00000000    0.00000000    0.00000000
     atom   32 type  2   force =     0.00000000    0.00000000    0.00000000
     atom   33 type  1   force =     0.00000000    0.00000000    0.00000000
     atom   34 type  2   force =     0.00000000    0.00000000    0.00000000
     atom   35 type  2   force =     0.00000000    0.00000000    0.00000000
     atom   36 type  3   force =     0.00000000    0.00000000    0.00000000
     The SCF correction term to forces
     atom    1 type  1   force =    -0.00035404    0.00002196    0.00133337
     atom    2 type  2   force =     0.00011841   -0.00010460    0.00044027
     atom    3 type  2   force =     0.00000560   -0.00003137    0.00038569
     atom    4 type  1   force =    -0.00014943    0.00013883    0.00115133
     atom    5 type  2   force =    -0.00002060   -0.00003898    0.00036772
     atom    6 type  2   force =    -0.00003605    0.00003731    0.00035559
     atom    7 type  1   force =     0.00009734    0.00004871    0.00129505
     atom    8 type  2   force =    -0.00012192    0.00008503    0.00036886
     atom    9 type  2   force =    -0.00007558   -0.00000495    0.00036172
     atom   10 type  1   force =    -0.00002721   -0.00009898    0.00151565
     atom   11 type  2   force =     0.00003681   -0.00008400    0.00032273
     atom   12 type  2   force =    -0.00001276   -0.00008583    0.00044294
     atom   13 type  1   force =     0.00035053   -0.00019530    0.00155352
     atom   14 type  2   force =    -0.00020377    0.00008649    0.00028189
     atom   15 type  2   force =    -0.00000008    0.00001425    0.00049002
     atom   16 type  1   force =     0.00019428   -0.00010041    0.00112983
     atom   17 type  2   force =     0.00008762   -0.00013180    0.00037268
     atom   18 type  2   force =     0.00004348    0.00003552    0.00029746
     atom   19 type  1   force =     0.00018099    0.00009989    0.00116296
     atom   20 type  2   force =     0.00009828    0.00001595    0.00032469
     atom   21 type  1   force =    -0.00002021    0.00009392    0.00140465
     atom   22 type  2   force =     0.00006766    0.00009649    0.00044430
     atom   23 type  2   force =     0.00003457    0.00000457    0.00032969
     atom   24 type  1   force =    -0.00003042   -0.00018303    0.00140427
     atom   25 type  2   force =     0.00001792   -0.00008343    0.00037670
     atom   26 type  2   force =     0.00002736   -0.00003378    0.00038717
     atom   27 type  1   force =    -0.00003147    0.00003109    0.00107168
     atom   28 type  2   force =    -0.00005301   -0.00004858    0.00039170
     atom   29 type  2   force =    -0.00001028    0.00007065    0.00029949
     atom   30 type  1   force =    -0.00022344    0.00002493    0.00118835
     atom   31 type  2   force =    -0.00003644    0.00003947    0.00043127
     atom   32 type  2   force =    -0.00003030   -0.00005043    0.00025130
     atom   33 type  1   force =     0.00004204    0.00012932    0.00139641
     atom   34 type  2   force =    -0.00010629    0.00018175    0.00041071
     atom   35 type  2   force =    -0.00001397    0.00000107    0.00036137
     atom   36 type  3   force =    -0.00000728   -0.00000085    0.00005463

     Total force =     0.101312     Total SCF correction =     0.004959
     Energy error            =      1.7E-02 Ry
     Gradient error          =      4.8E-02 Ry/Bohr

     number of scf cycles    =   2
     number of bfgs steps    =   1

     energy             old  =   -2205.5114123940 Ry
     energy             new  =   -2205.5283554914 Ry

     CASE: energy            _new < energy            _old

     new trust radius        =       0.0925442792 bohr
     new conv_thr            =       0.0000000476 Ry


ATOMIC_POSITIONS (angstrom)
Mo            6.5865387324        1.7723816344        2.8155029193
S             8.1486847946        0.8182007746        4.4401962049
S             8.1793618898        0.8224907936        1.2695589436
Mo            8.1034051439        4.4946323592        2.7167746817
S             6.4999023729        3.7159985144        4.3380346583
S             6.5563742627        3.5252661566        1.1223489618
Mo            6.4938148504        7.2044885266        2.6573782622
S             8.0834425895        6.3388750202        4.2603694602
S             8.0937666293        6.3115502392        1.0958624450
Mo            8.1531915374        9.9113064938        2.8165000964
S             6.5018928522        8.9647341577        4.3830773432
S             6.6160224820        9.0488174628        1.1433446193
Mo            3.4101761985        1.7648520317        2.7490523004
S             5.0417910853        0.7814305867        4.4056392670
S             5.0427230786        0.8503600707        1.2154977777
Mo            4.9768765155        4.5185132718        2.6353321540
S             3.4330838503        3.6713364825        4.2859948751
S             3.4337585710        3.5406646558        1.0710354235
Mo            3.4593511405        7.1994301749        2.6287107561
S             4.9882305582        6.3201617313        1.0368357250
Mo            5.0058845103        9.8991534288        2.7335880760
S             3.4672650934        8.9409964297        4.3216271642
S             3.4037567737        9.0663158125        1.1023990709
Mo            0.2930169184        1.7483002554        2.8260093031
S             1.8675862710        0.8134348453        4.4040092188
S             1.8485546371        0.8517600416        1.2002427638
Mo            1.8601350165        4.4984843617        2.6694322344
S             0.2736477769        3.6526193745        4.3313637172
S             0.2352711616        3.5268954317        1.1678588503
Mo            0.2664043999        7.2269298615        2.6992260069
S             1.9026404402        6.3132662576        4.2391801370
S             1.8522429750        6.3180551688        1.0530734710
Mo            1.8572992922        9.9390453700        2.7671947110
S             0.2986100230        9.0433192231        4.3993352800
S             0.2703380634        9.0508357921        1.1630950255
H             6.2718111910       10.9449436177        5.1104056447



     Writing config-only to output data dir ./MoS2-V-O.save/
     NEW-OLD atomic charge density approx. for the potential

     negative rho (up, down):  1.485E-04 0.000E+00

     total cpu time spent up to now is      180.2 secs

     Self-consistent Calculation

     iteration #  1     ecut=    80.00 Ry     beta= 0.70
     Davidson diagonalization with overlap
     ethr =  1.00E-06,  avg # of iterations = 10.0

     negative rho (up, down):  1.059E-04 0.000E+00

     total cpu time spent up to now is      193.9 secs

     total energy              =   -2205.54078535 Ry
     estimated scf accuracy    <       0.00106791 Ry

     iteration #  2     ecut=    80.00 Ry     beta= 0.70
     Davidson diagonalization with overlap
     ethr =  3.48E-07,  avg # of iterations =  2.0

     negative rho (up, down):  8.204E-05 0.000E+00

     total cpu time spent up to now is      212.1 secs

     total energy              =   -2205.54079868 Ry
     estimated scf accuracy    <       0.00022335 Ry

     iteration #  3     ecut=    80.00 Ry     beta= 0.70
     Davidson diagonalization with overlap
     ethr =  7.28E-08,  avg # of iterations =  5.0

     negative rho (up, down):  7.343E-05 0.000E+00

     total cpu time spent up to now is      227.3 secs

     total energy              =   -2205.54083020 Ry
     estimated scf accuracy    <       0.00002585 Ry

     iteration #  4     ecut=    80.00 Ry     beta= 0.70
     Davidson diagonalization with overlap
     ethr =  8.42E-09,  avg # of iterations =  6.0

     negative rho (up, down):  7.114E-05 0.000E+00

     total cpu time spent up to now is      245.5 secs

     total energy              =   -2205.54083621 Ry
     estimated scf accuracy    <       0.00000526 Ry

     iteration #  5     ecut=    80.00 Ry     beta= 0.70
     Davidson diagonalization with overlap
     ethr =  1.71E-09,  avg # of iterations =  3.0

     negative rho (up, down):  7.318E-05 0.000E+00

     total cpu time spent up to now is      261.0 secs

     total energy              =   -2205.54083669 Ry
     estimated scf accuracy    <       0.00000119 Ry

     iteration #  6     ecut=    80.00 Ry     beta= 0.70
     Davidson diagonalization with overlap
     ethr =  3.86E-10,  avg # of iterations =  5.0

     negative rho (up, down):  7.859E-05 0.000E+00

     total cpu time spent up to now is      275.0 secs

     total energy              =   -2205.54083683 Ry
     estimated scf accuracy    <       0.00000022 Ry

     iteration #  7     ecut=    80.00 Ry     beta= 0.70
     Davidson diagonalization with overlap
     ethr =  7.20E-11,  avg # of iterations =  4.0

     negative rho (up, down):  8.962E-05 0.000E+00

     total cpu time spent up to now is      285.7 secs

     total energy              =   -2205.54083681 Ry
     estimated scf accuracy    <       0.00000008 Ry

     iteration #  8     ecut=    80.00 Ry     beta= 0.70
     Davidson diagonalization with overlap
     ethr =  2.54E-11,  avg # of iterations =  5.0

     negative rho (up, down):  1.388E-04 0.000E+00

     total cpu time spent up to now is      288.1 secs

     End of self-consistent calculation

          k = 0.0000 0.0000 0.0000 (105382 PWs)   bands (ev):

   -62.8760 -62.8722 -62.8593 -62.8516 -62.8341 -62.8245 -62.8061 -62.7944
   -62.7867 -62.7723 -62.7632 -62.7573 -37.2259 -37.1622 -37.1477 -37.1372
   -37.1254 -37.1098 -37.0753 -37.0725 -37.0717 -37.0623 -37.0558 -37.0371
   -37.0302 -37.0231 -37.0155 -37.0098 -37.0031 -36.9980 -36.9910 -36.9696
   -36.9498 -36.9465 -36.9380 -36.9352 -36.9213 -36.9202 -36.9153 -36.8996
   -36.8886 -36.8843 -36.8759 -36.8584 -36.8491 -36.7786 -36.7497 -36.7216
   -16.0525 -15.3603 -15.1848 -15.0033 -14.9541 -14.8768 -14.5527 -14.4934
   -14.4633 -14.4364 -14.4174 -14.3852 -14.3594 -14.2833 -14.1600 -14.1512
   -14.1171 -14.1084 -14.0767 -13.8923 -13.8626 -13.8351 -13.7960  -8.3849
    -7.6241  -7.4462  -7.2829  -7.2632  -7.2320  -7.1909  -7.1402  -6.9773
    -6.8429  -6.7654  -6.7541  -6.6645  -6.6030  -6.5185  -6.4613  -6.4262
    -6.3697  -6.2648  -6.0185  -5.9807  -5.8795  -5.8564  -5.8293  -5.8062
    -5.7717  -5.7352  -5.6844  -5.6646  -5.6349  -5.5787  -5.5382  -5.4524
    -5.4004  -5.3597  -5.1824  -5.1290  -5.0471  -5.0165  -4.9818  -4.9489
    -4.9307  -4.8333  -4.7019  -4.5180  -4.3552  -4.3151  -4.2830  -4.2405
    -4.2097  -4.1791  -4.0237  -3.9936  -3.8347  -3.7657  -3.7365  -3.6835
    -3.6519  -3.5478  -3.5229  -3.5126  -3.5034  -3.4617  -3.4333  -3.3903
    -3.3645  -3.2439  -3.1596  -2.9161  -2.8962  -2.7863  -2.7748  -2.7244
    -2.7209  -2.7058  -2.6655  -2.6311  -2.5575  -2.2802  -2.0952  -1.9907
    -1.9647  -0.9950  -0.7867  -0.6894  -0.1926  -0.1366  -0.1077  -0.0141
     0.0620   0.1177   0.1448   0.2264   0.2743   0.2926   0.4013   0.4259
     0.4701   0.5401   0.5449   0.5760   0.6118   0.6475   0.7013   0.7265
     0.7622   0.8151   0.8516   0.8951   0.9624   0.9863   1.0360   1.3040
     1.3774

     the Fermi energy is    -0.9985 ev

!    total energy              =   -2205.54083662 Ry
     estimated scf accuracy    <       0.00000003 Ry
     smearing contrib. (-TS)   =      -0.00617075 Ry
     internal energy E=F+TS    =   -2205.53466587 Ry

     The total energy is F=E-TS. E is the sum of the following terms:
     one-electron contribution =  -18049.01585114 Ry
     hartree contribution      =    9011.24196746 Ry
     xc contribution           =    -385.25910494 Ry
     ewald contribution        =    7217.49832276 Ry

     convergence has been achieved in   8 iterations

     negative rho (up, down):  1.388E-04 0.000E+00

     Forces acting on atoms (cartesian axes, Ry/au):

     atom    1 type  1   force =    -0.00205939   -0.00315854   -0.00240075
     atom    2 type  2   force =    -0.00364175    0.00615079   -0.00703376
     atom    3 type  2   force =    -0.00777360    0.00629752   -0.01318998
     atom    4 type  1   force =     0.00454777    0.00119356    0.00178452
     atom    5 type  2   force =     0.00170467   -0.00495708   -0.00664043
     atom    6 type  2   force =     0.00171470    0.00728388    0.00037260
     atom    7 type  1   force =     0.00358246   -0.00160246    0.00466472
     atom    8 type  2   force =    -0.00006509   -0.00330458    0.00662381
     atom    9 type  2   force =     0.00893706    0.00312403    0.00316277
     atom   10 type  1   force =    -0.00097303    0.00648373   -0.00007002
     atom   11 type  2   force =     0.00479841    0.00164080   -0.01043790
     atom   12 type  2   force =    -0.00316698   -0.00070283   -0.00372748
     atom   13 type  1   force =     0.00349422    0.00212938   -0.00352239
     atom   14 type  2   force =     0.03668411   -0.02128625    0.02815918
     atom   15 type  2   force =    -0.00860082    0.00238112   -0.00571904
     atom   16 type  1   force =    -0.00055495    0.00007719    0.00207935
     atom   17 type  2   force =     0.00368660   -0.00121513    0.00361507
     atom   18 type  2   force =    -0.00380383    0.00044775    0.00353361
     atom   19 type  1   force =     0.00128817   -0.00577403    0.00259958
     atom   20 type  2   force =     0.00240209   -0.00542819   -0.00466729
     atom   21 type  1   force =    -0.00033578   -0.00070487    0.00293897
     atom   22 type  2   force =    -0.00052129   -0.00341506   -0.00407866
     atom   23 type  2   force =    -0.00246962   -0.00281957    0.00069233
     atom   24 type  1   force =    -0.00465034   -0.00292104    0.00032721
     atom   25 type  2   force =     0.00878305    0.01196893   -0.00478115
     atom   26 type  2   force =    -0.00591646   -0.00209591   -0.00918352
     atom   27 type  1   force =    -0.00020851    0.00204907    0.00516946
     atom   28 type  2   force =     0.00069855   -0.00344409   -0.00430015
     atom   29 type  2   force =     0.00366508    0.00263330   -0.00452616
     atom   30 type  1   force =    -0.00115005   -0.00248723    0.00557631
     atom   31 type  2   force =    -0.00035642    0.00057346    0.00751554
     atom   32 type  2   force =    -0.00550489    0.00386927    0.00500242
     atom   33 type  1   force =     0.00144887    0.00283732    0.00421677
     atom   34 type  2   force =    -0.00101156   -0.01915673   -0.01402293
     atom   35 type  2   force =    -0.00197813    0.00639958    0.00212253
     atom   36 type  3   force =    -0.03269332    0.01693295    0.00814483
     The non-local contrib.  to forces
     atom    1 type  1   force =    -0.00023225    0.02645208   -0.00883502
     atom    2 type  2   force =    -0.01661425   -0.01238348   -0.24175827
     atom    3 type  2   force =    -0.01075526   -0.00589750    0.26412009
     atom    4 type  1   force =     0.00302535    0.00602545    0.00312284
     atom    5 type  2   force =     0.00699259   -0.03499732   -0.25200929
     atom    6 type  2   force =    -0.00211609    0.00567562    0.26490961
     atom    7 type  1   force =    -0.01796065   -0.00109104   -0.02544487
     atom    8 type  2   force =     0.00502579   -0.00378406   -0.25997004
     atom    9 type  2   force =     0.00364710   -0.01063244    0.27299039
     atom   10 type  1   force =     0.00294369    0.00045948   -0.00338705
     atom   11 type  2   force =     0.01795603    0.02474257   -0.22114982
     atom   12 type  2   force =    -0.01304500   -0.01849996    0.26091051
     atom   13 type  1   force =     0.00269521    0.01577184   -0.00150035
     atom   14 type  2   force =     0.17442459   -0.10871303   -0.13010363
     atom   15 type  2   force =    -0.00817021   -0.00867849    0.26537883
     atom   16 type  1   force =     0.00042884    0.03288582   -0.03047379
     atom   17 type  2   force =    -0.00024301   -0.02105155   -0.24864518
     atom   18 type  2   force =    -0.00573413   -0.00080513    0.27065571
     atom   19 type  1   force =     0.01542262    0.00001121   -0.02008976
     atom   20 type  2   force =    -0.00086718   -0.01977166    0.26153506
     atom   21 type  1   force =     0.00037252    0.02676360    0.00757554
     atom   22 type  2   force =    -0.00413665    0.00175840   -0.25630565
     atom   23 type  2   force =     0.00660973   -0.02121691    0.26563774
     atom   24 type  1   force =     0.00264225    0.01616969   -0.00762828
     atom   25 type  2   force =    -0.00157193   -0.00091528   -0.25526183
     atom   26 type  2   force =     0.00128549   -0.00834898    0.26391063
     atom   27 type  1   force =    -0.00365892    0.00723443    0.00629278
     atom   28 type  2   force =    -0.00375255   -0.02205512   -0.27362779
     atom   29 type  2   force =     0.00687702    0.00181431    0.26471440
     atom   30 type  1   force =     0.00014224    0.01878574    0.00940858
     atom   31 type  2   force =    -0.00767572    0.00230720   -0.25870048
     atom   32 type  2   force =     0.00087284   -0.01156531    0.27206528
     atom   33 type  1   force =    -0.00217829    0.00376634    0.00324021
     atom   34 type  2   force =    -0.00485443   -0.01736804   -0.27674743
     atom   35 type  2   force =     0.00122291   -0.00962593    0.26570673
     atom   36 type  3   force =    -0.01851616    0.01122876   -0.01279157
     The ionic contribution  to forces
     atom    1 type  1   force =    -0.28654450    1.11198824    4.74576945
     atom    2 type  2   force =     0.38438174    0.52947558   39.17108780
     atom    3 type  2   force =    -0.06108584    0.03582666  -36.37995602
     atom    4 type  1   force =    -0.00824332    0.65915075    0.82750095
     atom    5 type  2   force =    -0.99072640    1.60496374   38.56732508
     atom    6 type  2   force =     0.26297599   -0.48408819  -37.90634887
     atom    7 type  1   force =    -2.59473661   -2.59028099    2.25226691
     atom    8 type  2   force =    -1.04134206    0.03268734   37.60438710
     atom    9 type  2   force =     0.37484526   -0.12079347  -37.93488920
     atom   10 type  1   force =    -0.29691032   -0.57060495    4.52639142
     atom   11 type  2   force =    -0.43634971   -2.44290834   38.77995833
     atom   12 type  2   force =     0.33558123    0.55543806  -37.89234306
     atom   13 type  1   force =     0.92962175    0.47679170    2.25275572
     atom   14 type  2   force =    -1.44588570    0.83771554   38.20313412
     atom   15 type  2   force =     0.13029338   -0.01051696  -36.84290364
     atom   16 type  1   force =     0.11522778    3.69304009    0.82149710
     atom   17 type  2   force =     0.83166945    1.36967072   38.06973067
     atom   18 type  2   force =    -0.12520420   -0.42106349  -38.51383098
     atom   19 type  1   force =     2.60157470   -2.24495462    0.73534275
     atom   20 type  2   force =     0.15606908   -0.19577484  -38.59325128
     atom   21 type  1   force =    -0.51970879   -0.08451914    0.34567238
[...]
     atom   27 type  1   force =    -0.00303495    0.00521777    0.00335017
     atom   28 type  2   force =    -0.00194553   -0.01184789   -0.27388964
     atom   29 type  2   force =     0.00132685   -0.00836946    0.26883295
     atom   30 type  1   force =     0.00122188    0.01979719    0.00648676
     atom   31 type  2   force =    -0.00544378    0.00454386   -0.26295246
     atom   32 type  2   force =     0.00596682   -0.01453793    0.26711537
     atom   33 type  1   force =    -0.00201642    0.00541931    0.00403406
     atom   34 type  2   force =    -0.00116106   -0.00759523   -0.27023908
     atom   35 type  2   force =    -0.00091627   -0.01097032    0.26791337
     atom   36 type  3   force =    -0.03250895    0.02048428   -0.03705566
     The ionic contribution  to forces
     atom    1 type  1   force =    -0.81131303    1.10257454    4.50221283
     atom    2 type  2   force =     0.44512079    0.24777275   38.60086637
     atom    3 type  2   force =    -0.10021649    0.00408181  -37.36224018
     atom    4 type  1   force =    -0.33105511    0.42259368    0.43596382
     atom    5 type  2   force =    -0.91103309    1.45878961   38.26642285
     atom    6 type  2   force =     0.21553277   -0.42372490  -37.78087025
     atom    7 type  1   force =    -2.80008918   -2.36660935    2.51391046
     atom    8 type  2   force =    -1.12116666    0.03680832   38.13111620
     atom    9 type  2   force =     0.25877901    0.00210948  -37.82555690
     atom   10 type  1   force =    -0.18238282   -0.58706073    2.56574246
     atom   11 type  2   force =    -0.23815859   -2.00075430   38.48507079
     atom   12 type  2   force =     0.09703846    0.33225908  -37.84171455
     atom   13 type  1   force =     1.36430333   -0.17859245   -0.24290232
     atom   14 type  2   force =    -1.86639621    1.14956338   38.39785716
     atom   15 type  2   force =     0.17369621   -0.28560575  -36.81268507
     atom   16 type  1   force =     0.27687986    3.56888871    1.21621569
     atom   17 type  2   force =     0.82770679    1.01975461   38.15720149
     atom   18 type  2   force =    -0.02487570   -0.12655265  -38.63029951
     atom   19 type  1   force =     2.89565058   -1.98186182    3.28290465
     atom   20 type  2   force =     0.05627226    0.04341723  -38.35952362
     atom   21 type  1   force =    -0.71171154    0.14630069    2.74208675
     atom   22 type  2   force =     0.16945553   -1.48885103   38.55831595
     atom   23 type  2   force =    -0.02214978    0.32617340  -37.64424355
     atom   24 type  1   force =    -0.14520110    0.49735848    1.55215575
     atom   25 type  2   force =     0.42730943    0.15182053   38.45955125
     atom   26 type  2   force =    -0.11938972   -0.30667725  -38.04410315
     atom   27 type  1   force =     0.07306192    0.51990306    0.15371584
     atom   28 type  2   force =     0.06567240    0.54122652   38.01831525
     atom   29 type  2   force =    -0.17497907   -0.02882810  -37.69474075
     atom   30 type  1   force =    -0.06183667   -0.67418341    1.86096576
     atom   31 type  2   force =     1.14160624    0.01981739   38.33841864
     atom   32 type  2   force =    -0.30413703    0.13112902  -37.93885238
     atom   33 type  1   force =     0.64023018   -0.43401437    2.42341425
     atom   34 type  2   force =     0.16191426   -0.52186186   38.72845164
     atom   35 type  2   force =    -0.01174901    0.11648393  -37.49857145
     atom   36 type  3   force =     0.64761080   -0.43364827    8.28542783
     The local contribution  to forces
     atom    1 type  1   force =     0.81786593   -1.12485568   -4.49213764
     atom    2 type  2   force =    -0.44114894   -0.23633864  -38.36953422
     atom    3 type  2   force =     0.09977120    0.00466363   37.11477203
     atom    4 type  1   force =     0.32506522   -0.42872584   -0.44069857
     atom    5 type  2   force =     0.90674351   -1.42960440  -38.03689787
     atom    6 type  2   force =    -0.21602299    0.42514531   37.53558217
     atom    7 type  1   force =     2.81247628    2.36882503   -2.48936628
     atom    8 type  2   force =     1.11545542   -0.03813246  -37.88763845
     atom    9 type  2   force =    -0.25209997    0.01056055   37.57690544
     atom   10 type  1   force =     0.17954308    0.58433389   -2.56720514
     atom   11 type  2   force =     0.22651918    1.99693550  -38.26516951
     atom   12 type  2   force =    -0.09152896   -0.31603041   37.59729673
     atom   13 type  1   force =    -1.36854319    0.16698479    0.24105335
     atom   14 type  2   force =     1.63985891   -1.01223752  -38.37370049
     atom   15 type  2   force =    -0.17245746    0.29657777   36.56683622
     atom   16 type  1   force =    -0.27266686   -3.60281507   -1.18785823
     atom   17 type  2   force =    -0.82114058   -1.01224555  -37.92938490
     atom   18 type  2   force =     0.02720938    0.13583525   38.38357958
     atom   19 type  1   force =    -2.90863405    1.98118637   -3.26048674
     atom   20 type  2   force =    -0.05653437   -0.02860126   38.11660325
     atom   21 type  1   force =     0.71394932   -0.17494365   -2.73893864
     atom   22 type  2   force =    -0.16929482    1.48687578  -38.32395821
     atom   23 type  2   force =     0.01636859   -0.31116217   37.39886054
     atom   24 type  1   force =     0.14169695   -0.51309648   -1.55527885
     atom   25 type  2   force =    -0.41538033   -0.13771598  -38.22775480
     atom   26 type  2   force =     0.11548621    0.30793524   37.79731060
     atom   27 type  1   force =    -0.07004357   -0.52555362   -0.15725150
     atom   28 type  2   force =    -0.06348013   -0.52982523  -37.76500574
     atom   29 type  2   force =     0.17326982    0.03805020   37.44614526
     atom   30 type  1   force =     0.06058902    0.65415952   -1.86774486
     atom   31 type  2   force =    -1.13593544   -0.02453355  -38.09709341
     atom   32 type  2   force =     0.29852213   -0.11889513   37.69181392
     atom   33 type  1   force =    -0.63793125    0.42816223   -2.42690249
     atom   34 type  2   force =    -0.16104850    0.52944292  -38.47827918
     atom   35 type  2   force =     0.01288248   -0.10676901   37.25193797
     atom   36 type  3   force =    -0.61598606    0.41472858   -8.24920598
     The core correction contribution to forces
     atom    1 type  1   force =     0.00000000    0.00000000    0.00000000
     atom    2 type  2   force =     0.00071488    0.00051520    0.01999498
     atom    3 type  2   force =    -0.00018129    0.00040510   -0.02095002
     atom    4 type  1   force =     0.00000000    0.00000000    0.00000000
     atom    5 type  2   force =    -0.00044975    0.00170971    0.02003307
     atom    6 type  2   force =     0.00015935   -0.00052934   -0.02081924
     atom    7 type  1   force =     0.00000000    0.00000000    0.00000000
     atom    8 type  2   force =    -0.00028888    0.00024663    0.02075789
     atom    9 type  2   force =     0.00065234    0.00070417   -0.02093007
     atom   10 type  1   force =     0.00000000    0.00000000    0.00000000
     atom   11 type  2   force =    -0.00011026   -0.00086350    0.01945511
     atom   12 type  2   force =     0.00046380    0.00123599   -0.02091095
     atom   13 type  1   force =     0.00000000    0.00000000    0.00000000
     atom   14 type  2   force =    -0.01579724    0.00935488    0.00379538
     atom   15 type  2   force =     0.00036505    0.00018286   -0.02093877
     atom   16 type  1   force =     0.00000000    0.00000000    0.00000000
     atom   17 type  2   force =     0.00045513    0.00019359    0.02010363
     atom   18 type  2   force =    -0.00006281    0.00025198   -0.02097634
     atom   19 type  1   force =     0.00000000    0.00000000    0.00000000
     atom   20 type  2   force =    -0.00002071    0.00075231   -0.02117136
     atom   21 type  1   force =     0.00000000    0.00000000    0.00000000
     atom   22 type  2   force =    -0.00042843   -0.00035093    0.02026375
     atom   23 type  2   force =    -0.00038440    0.00103177   -0.02086052
     atom   24 type  1   force =     0.00000000    0.00000000    0.00000000
     atom   25 type  2   force =     0.00080340    0.00080745    0.02017431
     atom   26 type  2   force =    -0.00041257   -0.00013737   -0.02093495
     atom   27 type  1   force =     0.00000000    0.00000000    0.00000000
     atom   28 type  2   force =     0.00017742    0.00080582    0.02109475
     atom   29 type  2   force =    -0.00006663    0.00024175   -0.02082759
     atom   30 type  1   force =     0.00000000    0.00000000    0.00000000
     atom   31 type  2   force =     0.00022868   -0.00001260    0.02074770
     atom   32 type  2   force =    -0.00053340    0.00080702   -0.02092288
     atom   33 type  1   force =     0.00000000    0.00000000    0.00000000
     atom   34 type  2   force =     0.00016479    0.00029580    0.02099363
     atom   35 type  2   force =     0.00006507    0.00070196   -0.02096410
     atom   36 type  3   force =     0.00000000    0.00000000    0.00000000
     The Hubbard contrib.    to forces
     atom    1 type  1   force =     0.00000000    0.00000000    0.00000000
     atom    2 type  2   force =     0.00000000    0.00000000    0.00000000
     atom    3 type  2   force =     0.00000000    0.00000000    0.00000000
     atom    4 type  1   force =     0.00000000    0.00000000    0.00000000
     atom    5 type  2   force =     0.00000000    0.00000000    0.00000000
     atom    6 type  2   force =     0.00000000    0.00000000    0.00000000
     atom    7 type  1   force =     0.00000000    0.00000000    0.00000000
     atom    8 type  2   force =     0.00000000    0.00000000    0.00000000
     atom    9 type  2   force =     0.00000000    0.00000000    0.00000000
     atom   10 type  1   force =     0.00000000    0.00000000    0.00000000
     atom   11 type  2   force =     0.00000000    0.00000000    0.00000000
     atom   12 type  2   force =     0.00000000    0.00000000    0.00000000
     atom   13 type  1   force =     0.00000000    0.00000000    0.00000000
     atom   14 type  2   force =     0.00000000    0.00000000    0.00000000
     atom   15 type  2   force =     0.00000000    0.00000000    0.00000000
     atom   16 type  1   force =     0.00000000    0.00000000    0.00000000
     atom   17 type  2   force =     0.00000000    0.00000000    0.00000000
     atom   18 type  2   force =     0.00000000    0.00000000    0.00000000
     atom   19 type  1   force =     0.00000000    0.00000000    0.00000000
     atom   20 type  2   force =     0.00000000    0.00000000    0.00000000
     atom   21 type  1   force =     0.00000000    0.00000000    0.00000000
     atom   22 type  2   force =     0.00000000    0.00000000    0.00000000
     atom   23 type  2   force =     0.00000000    0.00000000    0.00000000
     atom   24 type  1   force =     0.00000000    0.00000000    0.00000000
     atom   25 type  2   force =     0.00000000    0.00000000    0.00000000
     atom   26 type  2   force =     0.00000000    0.00000000    0.00000000
     atom   27 type  1   force =     0.00000000    0.00000000    0.00000000
     atom   28 type  2   force =     0.00000000    0.00000000    0.00000000
     atom   29 type  2   force =     0.00000000    0.00000000    0.00000000
     atom   30 type  1   force =     0.00000000    0.00000000    0.00000000
     atom   31 type  2   force =     0.00000000    0.00000000    0.00000000
     atom   32 type  2   force =     0.00000000    0.00000000    0.00000000
     atom   33 type  1   force =     0.00000000    0.00000000    0.00000000
     atom   34 type  2   force =     0.00000000    0.00000000    0.00000000
     atom   35 type  2   force =     0.00000000    0.00000000    0.00000000
     atom   36 type  3   force =     0.00000000    0.00000000    0.00000000
     The SCF correction term to forces
     atom    1 type  1   force =    -0.00001093   -0.00002252    0.00006277
     atom    2 type  2   force =    -0.00001717    0.00000037    0.00002967
     atom    3 type  2   force =    -0.00000130   -0.00000336    0.00000877
     atom    4 type  1   force =     0.00000496   -0.00000233    0.00004266
     atom    5 type  2   force =    -0.00000983   -0.00001084    0.00003065
     atom    6 type  2   force =    -0.00000587   -0.00000773    0.00001128
     atom    7 type  1   force =     0.00000335    0.00002270    0.00004486
     atom    8 type  2   force =     0.00000128    0.00000036    0.00002298
     atom    9 type  2   force =     0.00000515   -0.00000163    0.00000510
     atom   10 type  1   force =    -0.00000612    0.00000130    0.00006127
     atom   11 type  2   force =    -0.00000852    0.00002123    0.00001310
     atom   12 type  2   force =    -0.00000756   -0.00000334    0.00000990
     atom   13 type  1   force =     0.00001460   -0.00002427    0.00006291
     atom   14 type  2   force =     0.00001022   -0.00000593    0.00003831
     atom   15 type  2   force =     0.00000387   -0.00000112    0.00001741
     atom   16 type  1   force =     0.00000504   -0.00002932    0.00006180
     atom   17 type  2   force =     0.00000914   -0.00000568    0.00003707
     atom   18 type  2   force =     0.00000886    0.00000059    0.00000561
     atom   19 type  1   force =     0.00000620    0.00001860    0.00004448
     atom   20 type  2   force =    -0.00000023    0.00000333    0.00000177
     atom   21 type  1   force =     0.00002250    0.00002173    0.00006355
     atom   22 type  2   force =     0.00000055    0.00000984    0.00002729
     atom   23 type  2   force =     0.00000474    0.00000122    0.00000853
     atom   24 type  1   force =     0.00001004   -0.00001248    0.00005628
     atom   25 type  2   force =     0.00000631    0.00000041    0.00003263
     atom   26 type  2   force =     0.00000388   -0.00000932    0.00000910
     atom   27 type  1   force =    -0.00000366   -0.00000744    0.00004196
     atom   28 type  2   force =    -0.00000122   -0.00000830    0.00003231
     atom   29 type  2   force =    -0.00000303    0.00000343    0.00000713
     atom   30 type  1   force =     0.00000926   -0.00000538    0.00003390
     atom   31 type  2   force =    -0.00000600    0.00000462    0.00002752
     atom   32 type  2   force =    -0.00000758    0.00000636    0.00001084
     atom   33 type  1   force =     0.00000973    0.00001126    0.00004867
     atom   34 type  2   force =    -0.00000008    0.00000966    0.00002526
     atom   35 type  2   force =    -0.00000024    0.00000642    0.00000848
     atom   36 type  3   force =    -0.00000178    0.00000196    0.00000259

     Total force =     0.005619     Total SCF correction =     0.000227
     Energy error            =      7.7E-05 Ry
     Gradient error          =      1.6E-03 Ry/Bohr

     bfgs converged in  20 scf cycles and  19 bfgs steps
     (criteria: energy <  1.0E-04 Ry, force <  1.0E-02 Ry/Bohr)

     End of BFGS Geometry Optimization

     Final energy             =   -2205.5755015061 Ry

     File ./MoS2-V-O.bfgs deleted, as requested
Begin final coordinates

ATOMIC_POSITIONS (angstrom)
Mo            6.5691426957        1.7443335136        2.7975301505
S             8.1777225348        0.8475809378        4.3601788790
S             8.1244345072        0.8395081993        1.1783831671
Mo            8.1280893611        4.4886897428        2.7040458052
S             6.5233973669        3.6838433373        4.3084416114
S             6.5628092312        3.5362309704        1.1154495091
Mo            6.5254576919        7.1806329216        2.6650950166
S             8.0970494677        6.2993835767        4.2915193133
S             8.1456088741        6.3225213775        1.1099501622
Mo            8.1490311919        9.9325145292        2.7656656790
S             6.5512221758        8.9258268373        4.3359871762
S             6.5902113729        9.0316214247        1.1300775833
Mo            3.4095440206        1.7821314321        2.6820101382
S             5.0928105203        0.7401249014        4.5042314552
S             5.0146664342        0.8241589352        1.1973052885
Mo            4.9894373518        4.5118933153        2.6376027687
S             3.4642742123        3.6487093338        4.2845156633
S             3.4208424692        3.5765847524        1.0604956778
Mo            3.4747133456        7.1799462630        2.6755532375
S             5.0003781813        6.3105406241        1.0484518929
Mo            5.0139704590        9.8898275431        2.7679339818
S             3.4548520999        8.9417892927        4.3356056687
S             3.4215019380        9.0316798832        1.1343935423
Mo            0.2823292096        1.7429597607        2.7454936103
S             1.8877010099        0.8699289213        4.3308121620
S             1.8438985645        0.8360212758        1.1274767479
Mo            1.8724150846        4.5047311106        2.6916565957
S             0.2798117355        3.6066973596        4.2964766767
S             0.2700896523        3.5607229161        1.1302887272
Mo            0.2757490657        7.2194049625        2.7289523222
S             1.9044151681        6.3004181370        4.3002794962
S             1.8590605008        6.3421896441        1.1039400167
Mo            1.8685362789        9.9489100206        2.7532068739
S             0.2889369192        9.0313230621        4.3491183261
S             0.2754076741        9.0546839791        1.1630381113
H             5.9673353123       11.1217816164        5.4639245155
End final coordinates



     Writing all to output data dir ./MoS2-V-O.save/
 
     init_run     :      2.35s CPU      2.66s WALL (       1 calls)
     electrons    :   1776.15s CPU   1990.42s WALL (      20 calls)
     update_pot   :     27.07s CPU     28.52s WALL (      19 calls)
     forces       :     28.27s CPU     33.44s WALL (      20 calls)

     Called by init_run:
     wfcinit      :      0.37s CPU      0.43s WALL (       1 calls)
     potinit      :      1.31s CPU      1.44s WALL (       1 calls)
     hinit0       :      0.16s CPU      0.19s WALL (       1 calls)

     Called by electrons:
     c_bands      :    238.73s CPU    243.26s WALL (     176 calls)
     sum_band     :     51.87s CPU     72.28s WALL (     176 calls)
     v_of_rho     :     77.00s CPU     95.81s WALL (     183 calls)
     newd         :     26.40s CPU     44.81s WALL (     183 calls)
     mix_rho      :   1391.07s CPU   1543.61s WALL (     176 calls)

     Called by c_bands:
     init_us_2    :      3.73s CPU      4.03s WALL (     353 calls)
     init_us_2:cp :      3.73s CPU      4.03s WALL (     353 calls)
     regterg      :    225.64s CPU    229.86s WALL (     176 calls)

     Called by *egterg:
     rdiaghg      :     17.14s CPU     17.36s WALL (     984 calls)
     h_psi        :    120.48s CPU    121.60s WALL (    1017 calls)
     s_psi        :     14.47s CPU     14.53s WALL (    1017 calls)
     g_psi        :      1.62s CPU      1.63s WALL (     840 calls)

     Called by h_psi:
     h_psi:calbec :     16.81s CPU     16.89s WALL (    1017 calls)
     vloc_psi     :     86.09s CPU     86.99s WALL (    1017 calls)
     add_vuspsi   :     14.61s CPU     14.74s WALL (    1017 calls)

     General routines
     calbec       :     23.91s CPU     24.02s WALL (    1273 calls)
     fft          :     48.63s CPU     57.33s WALL (   12335 calls)
     ffts         :    625.41s CPU    772.77s WALL (  341224 calls)
     fftw         :     73.98s CPU     74.63s WALL (  106296 calls)
     interpolate  :      1.31s CPU      1.56s WALL (     183 calls)
 
     Parallel routines
 
     PWSCF        :  30m37.73s CPU  34m21.91s WALL

 
   This run was terminated on:  11:52: 0   4Nov2023            

=------------------------------------------------------------------------------=
   JOB DONE.
=------------------------------------------------------------------------------=
