
     Program PWSCF v.7.2 starts on  4Nov2023 at 11:36:57 

     This program is part of the open-source Quantum ESPRESSO suite
     for quantum simulation of materials; please cite
         "P. Giannozzi et al., J. Phys.:Condens. Matter 21 395502 (2009);
         "P. Giannozzi et al., J. Phys.:Condens. Matter 29 465901 (2017);
         "P. Giannozzi et al., J. Chem. Phys. 152 154105 (2020);
          URL http://www.quantum-espresso.org", 
     in publications or presentations arising from this work. More details at
     http://www.quantum-espresso.org/quote

     Parallel version (MPI & OpenMP), running on      48 processor cores
     Number of MPI processes:                48
     Threads/MPI process:                     1

     MPI processes distributed on     1 nodes
     16653 MiB available memory on the printing compute node when the environment starts
 
     Waiting for input...
     Reading input from standard input
Warning: card &CELL ignored
Warning: card CELL_DYNAMICS = 'BFGS', ignored
Warning: card CELL_DOFREE = '2DXY' ignored
Warning: card / ignored

     Current dimensions of program PWSCF are:
     Max number of different atomic species (ntypx) = 10
     Max number of k-points (npk) =  40000
     Max angular momentum in pseudopotentials (lmaxx) =  4

     IMPORTANT: XC functional enforced from input :
     Exchange-correlation= RVV10
                           (   1   4  13   4  26   0   0)
     Any further DFT definition will be discarded
     Please, verify this is what you really want


     gamma-point specific algorithms are used
     signal trapping enabled: kill the code with -SIGUSR1 to stop cleanly the simulation 
 
     R & G space division:  proc/nbgrp/npool/nimage =      48
     Subspace diagonalization in iterative solution of the eigenvalue problem:
     one sub-group per band group will be used
     scalapack distributed-memory algorithm (size of sub-group:  2*  2 procs)

 
     Parallelization info
     --------------------
     sticks:   dense  smooth     PW     G-vecs:    dense   smooth      PW
     Min         243     194     47                49060    35090    4376
     Max         246     196     50                49086    35128    4410
     Sum       11735    9389   2349              2355467  1685513  210763
 
     Using Slab Decomposition
 


     bravais-lattice index     =            0
     lattice parameter (alat)  =      17.8707  a.u.
     unit-cell volume          =   17436.2743 (a.u.)^3
     number of atoms/cell      =           36
     number of atomic types    =            3
     number of electrons       =       307.00
     number of Kohn-Sham states=          185
     kinetic-energy cutoff     =      80.0000  Ry
     charge density cutoff     =     400.0000  Ry
     scf convergence threshold =      1.0E-06
     mixing beta               =       0.7000
     number of iterations used =            8  local-TF  mixing
     energy convergence thresh.=      1.0E-04
     force convergence thresh. =      1.0E-02
     Exchange-correlation= RVV10
                           (   1   4  13   4  26   0   0)
     nstep                     =          200


     celldm(1)=  17.870686  celldm(2)=   0.000000  celldm(3)=   0.000000
     celldm(4)=   0.000000  celldm(5)=   0.000000  celldm(6)=   0.000000

     crystal axes: (cart. coord. in units of alat)
               a(1) = (   1.000000   0.000000   0.000000 )  
               a(2) = (   0.000000   1.155671   0.000000 )  
               a(3) = (   0.000000   0.000000   2.643601 )  

     reciprocal axes: (cart. coord. in units 2 pi/alat)
               b(1) = (  1.000000  0.000000  0.000000 )  
               b(2) = (  0.000000  0.865298  0.000000 )  
               b(3) = (  0.000000  0.000000  0.378272 )  


     PseudoPot. # 1 for Mo read from file:
     ../pseudo/Mo_ONCV_PBE-1.0.oncvpsp.upf
     MD5 check sum: 1b5d28e075c9ccadda658a603575cd1f
     Pseudo is Norm-conserving, Zval = 14.0
     Generated using ONCVPSP code by D. R. Hamann
     Using radial grid of 1526 points,  6 beta functions with: 
                l(1) =   0
                l(2) =   0
                l(3) =   1
                l(4) =   1
                l(5) =   2
                l(6) =   2

     PseudoPot. # 2 for S  read from file:
     ../pseudo/s_pbe_v1.4.uspp.F.UPF
     MD5 check sum: 88d86576ff6df21479756cfb9bdac1df
     Pseudo is Ultrasoft + core correction, Zval =  6.0
     Generated by new atomic code, or converted to UPF format
     Using radial grid of  907 points,  6 beta functions with: 
                l(1) =   0
                l(2) =   0
                l(3) =   1
                l(4) =   1
                l(5) =   2
                l(6) =   2
     Q(r) pseudized with  8 coefficients,  rinner =    1.300   1.300   1.300
                                                       1.300   1.300

     PseudoPot. # 3 for H  read from file:
     ../pseudo/H_ONCV_PBE-1.0.oncvpsp.upf
     MD5 check sum: 1790becc920ee074925cf490c71280fe
     Pseudo is Norm-conserving, Zval =  1.0
     Generated using ONCVPSP code by D. R. Hamann
     Using radial grid of 1166 points,  2 beta functions with: 
                l(1) =   0
                l(2) =   0

     atomic species   valence    mass     pseudopotential
        Mo            14.00    95.94000     Mo( 1.00)
        S              6.00    32.06500     S ( 1.00)
        H              1.00     1.00794     H ( 1.00)

     No symmetry found



   Cartesian axes

     site n.     atom                  positions (alat units)
         1           Mo  tau(   1) = (   0.6952221   0.1890506   0.2985846  )
         2           S   tau(   2) = (   0.8646417   0.0856217   0.4689279  )
         3           S   tau(   3) = (   0.8663890   0.0857843   0.1351291  )
         4           Mo  tau(   4) = (   0.8560186   0.4753274   0.2873942  )
         5           S   tau(   5) = (   0.6873294   0.3936244   0.4596353  )
         6           S   tau(   6) = (   0.6929804   0.3713468   0.1185692  )
         7           Mo  tau(   7) = (   0.6862796   0.7633098   0.2825370  )
         8           S   tau(   8) = (   0.8545980   0.6708292   0.4486168  )
         9           S   tau(   9) = (   0.8545123   0.6666874   0.1146125  )
        10           Mo  tau(  10) = (   0.8629403   1.0471007   0.3006803  )
        11           S   tau(  11) = (   0.6868280   0.9456650   0.4634891  )
        12           S   tau(  12) = (   0.6998113   0.9568511   0.1205389  )
        13           Mo  tau(  13) = (   0.3618216   0.1847309   0.2935964  )
        14           S   tau(  14) = (   0.5260962   0.0863870   0.4600448  )
        15           S   tau(  15) = (   0.5348379   0.0894875   0.1297123  )
        16           Mo  tau(  16) = (   0.5265817   0.4772436   0.2784130  )
        17           S   tau(  17) = (   0.3624753   0.3882513   0.4525556  )
        18           S   tau(  18) = (   0.3635411   0.3752055   0.1119148  )
        19           Mo  tau(  19) = (   0.3652268   0.7630864   0.2781795  )
        20           S   tau(  20) = (   0.5269494   0.6690381   0.1096838  )
        21           Mo  tau(  21) = (   0.5300192   1.0470394   0.2900995  )
        22           S   tau(  22) = (   0.3670346   0.9457522   0.4574073  )
        23           S   tau(  23) = (   0.3604225   0.9585725   0.1159032  )
        24           Mo  tau(  24) = (   0.0313099   0.1847895   0.3013130  )
        25           S   tau(  25) = (   0.1956761   0.0838230   0.4650863  )
        26           S   tau(  26) = (   0.1967693   0.0903508   0.1278874  )
        27           Mo  tau(  27) = (   0.1967578   0.4753919   0.2813011  )
        28           S   tau(  28) = (   0.0287851   0.3864324   0.4586755  )
        29           S   tau(  29) = (   0.0244514   0.3729871   0.1239344  )
        30           Mo  tau(  30) = (   0.0286728   0.7631204   0.2856894  )
        31           S   tau(  31) = (   0.2011512   0.6675435   0.4465001  )
        32           S   tau(  32) = (   0.1969214   0.6672839   0.1104564  )
        33           Mo  tau(  33) = (   0.1950294   1.0511147   0.2932237  )
        34           S   tau(  34) = (   0.0312912   0.9612169   0.4667423  )
        35           S   tau(  35) = (   0.0292670   0.9563028   0.1216485  )
        36           H   tau(  36) = (   0.7777778   1.1556707   0.5656742  )

     number of k points=     1  Gaussian smearing, width (Ry)=  0.0100
                       cart. coord. in units 2pi/alat
        k(    1) = (   0.0000000   0.0000000   0.0000000), wk =   2.0000000

     Dense  grid:  1177734 G-vectors     FFT dimensions: ( 120, 135, 320)

     Smooth grid:   842757 G-vectors     FFT dimensions: ( 108, 120, 270)

     Estimated max dynamical RAM per process >     146.59 MB

     Estimated total dynamical RAM >       6.87 GB

     Initial potential from superposition of free atoms

     starting charge     306.9873, renormalised to     307.0000

     negative rho (up, down):  1.412E-04 0.000E+00


---------------------------------------------------------------------------------
Carrying out rVV10 run using the following parameters:
Nqs =      20    Nr_points =    1024   r_max =   100.000
b_value =  6.30000    beta =  0.00901
     q_mesh =  0.00010000  0.00030000  0.00058939  0.00100810
               0.00161396  0.00249058  0.00375900  0.00559430
               0.00824984  0.01209221  0.01765183  0.02569619
               0.03733578  0.05417739  0.07854596  0.11380545
               0.16482331  0.23864234  0.34545298  0.50000000

Gradients computed in Reciprocal space

---------------------------------------------------------------------------------


     Starting wfcs are  213 randomized atomic wfcs

     total cpu time spent up to now is        2.8 secs

     Self-consistent Calculation

     iteration #  1     ecut=    80.00 Ry     beta= 0.70
     Davidson diagonalization with overlap
     ethr =  1.00E-02,  avg # of iterations =  2.0

     Threshold (ethr) on eigenvalues was too large:
     Diagonalizing with lowered threshold

     Davidson diagonalization with overlap
     ethr =  3.90E-04,  avg # of iterations =  4.0

     negative rho (up, down):  1.969E-08 0.000E+00

     total cpu time spent up to now is       16.5 secs

     total energy              =   -2205.60869671 Ry
     estimated scf accuracy    <       1.48925771 Ry

     iteration #  2     ecut=    80.00 Ry     beta= 0.70
     Davidson diagonalization with overlap
     ethr =  4.85E-04,  avg # of iterations =  2.0

     total cpu time spent up to now is       19.0 secs

     total energy              =   -2205.48580109 Ry
     estimated scf accuracy    <       0.59299966 Ry

     iteration #  3     ecut=    80.00 Ry     beta= 0.70
     Davidson diagonalization with overlap
     ethr =  1.93E-04,  avg # of iterations =  4.0

     total cpu time spent up to now is       21.5 secs

     total energy              =   -2205.52487834 Ry
     estimated scf accuracy    <       0.17494758 Ry

     iteration #  4     ecut=    80.00 Ry     beta= 0.70
     Davidson diagonalization with overlap
     ethr =  5.70E-05,  avg # of iterations =  4.0

     total cpu time spent up to now is       24.0 secs

     total energy              =   -2205.54318049 Ry
     estimated scf accuracy    <       0.03600106 Ry

     iteration #  5     ecut=    80.00 Ry     beta= 0.70
     Davidson diagonalization with overlap
     c_bands:  1 eigenvalues not converged
     ethr =  1.17E-05,  avg # of iterations = 20.0

     total cpu time spent up to now is       27.0 secs

     total energy              =   -2205.54380310 Ry
     estimated scf accuracy    <       0.01868533 Ry

     iteration #  6     ecut=    80.00 Ry     beta= 0.70
     Davidson diagonalization with overlap
     ethr =  6.09E-06,  avg # of iterations = 11.0

     total cpu time spent up to now is       29.4 secs

     total energy              =   -2205.54288979 Ry
     estimated scf accuracy    <       0.01345726 Ry

     iteration #  7     ecut=    80.00 Ry     beta= 0.70
     Davidson diagonalization with overlap
     ethr =  4.38E-06,  avg # of iterations =  1.0

     total cpu time spent up to now is       33.0 secs

     total energy              =   -2205.54089895 Ry
     estimated scf accuracy    <       0.00827030 Ry

     iteration #  8     ecut=    80.00 Ry     beta= 0.70
     Davidson diagonalization with overlap
     ethr =  2.69E-06,  avg # of iterations =  2.0

     negative rho (up, down):  7.119E-03 0.000E+00

     total cpu time spent up to now is       37.1 secs

     total energy              =   -2205.54064598 Ry
     estimated scf accuracy    <       0.00397313 Ry

     iteration #  9     ecut=    80.00 Ry     beta= 0.70
     Davidson diagonalization with overlap
     ethr =  1.29E-06,  avg # of iterations =  2.0

     negative rho (up, down):  2.762E-02 0.000E+00

     total cpu time spent up to now is       42.7 secs

     total energy              =   -2205.54037881 Ry
     estimated scf accuracy    <       0.00254167 Ry

     iteration # 10     ecut=    80.00 Ry     beta= 0.70
     Davidson diagonalization with overlap
     ethr =  8.28E-07,  avg # of iterations =  2.0

     negative rho (up, down):  2.944E-02 0.000E+00

     total cpu time spent up to now is       47.4 secs

     total energy              =   -2205.54048108 Ry
     estimated scf accuracy    <       0.00097636 Ry

     iteration # 11     ecut=    80.00 Ry     beta= 0.70
     Davidson diagonalization with overlap
     ethr =  3.18E-07,  avg # of iterations =  2.0

     negative rho (up, down):  1.753E-02 0.000E+00

     total cpu time spent up to now is       53.0 secs

     total energy              =   -2205.54052396 Ry
     estimated scf accuracy    <       0.00030443 Ry

     iteration # 12     ecut=    80.00 Ry     beta= 0.70
     Davidson diagonalization with overlap
     c_bands:  1 eigenvalues not converged
     ethr =  9.92E-08,  avg # of iterations = 20.0

     negative rho (up, down):  5.154E-03 0.000E+00

     total cpu time spent up to now is       58.9 secs

     total energy              =   -2205.54055618 Ry
     estimated scf accuracy    <       0.00009874 Ry

     iteration # 13     ecut=    80.00 Ry     beta= 0.70
     Davidson diagonalization with overlap
     ethr =  3.22E-08,  avg # of iterations =  5.0

     negative rho (up, down):  1.368E-03 0.000E+00

     total cpu time spent up to now is       65.9 secs

     total energy              =   -2205.54058533 Ry
     estimated scf accuracy    <       0.00000854 Ry

     iteration # 14     ecut=    80.00 Ry     beta= 0.70
     Davidson diagonalization with overlap
     ethr =  2.78E-09,  avg # of iterations =  5.0

     negative rho (up, down):  4.049E-04 0.000E+00

     total cpu time spent up to now is       75.8 secs

     total energy              =   -2205.54058920 Ry
     estimated scf accuracy    <       0.00000153 Ry

     iteration # 15     ecut=    80.00 Ry     beta= 0.70
     Davidson diagonalization with overlap
     ethr =  4.98E-10,  avg # of iterations =  4.0

     negative rho (up, down):  1.371E-04 0.000E+00

     total cpu time spent up to now is       78.0 secs

     End of self-consistent calculation

          k = 0.0000 0.0000 0.0000 (105382 PWs)   bands (ev):

   -62.8484 -62.8428 -62.8285 -62.8211 -62.8125 -62.8049 -62.8021 -62.7903
   -62.7682 -62.6950 -62.6751 -62.6694 -37.1907 -37.1239 -37.1120 -37.1106
   -37.1012 -37.0839 -37.0547 -37.0474 -37.0412 -37.0349 -37.0206 -37.0158
   -37.0092 -37.0028 -36.9961 -36.9915 -36.9833 -36.9796 -36.9729 -36.9677
   -36.9280 -36.9135 -36.9017 -36.8858 -36.8723 -36.8580 -36.8518 -36.8422
   -36.8394 -36.8323 -36.8278 -36.8141 -36.8063 -36.7788 -36.6708 -36.6358
   -16.1211 -15.5236 -15.1481 -15.0409 -14.9267 -14.8276 -14.6638 -14.4647
   -14.4342 -14.4077 -14.3690 -14.3424 -14.3150 -14.2571 -14.1539 -14.1158
   -14.0852 -14.0679 -13.9974 -13.9131 -13.8102 -13.7997 -13.7675  -8.6390
    -7.6070  -7.4249  -7.2931  -7.2469  -7.2320  -7.1539  -7.1296  -7.0243
    -6.8171  -6.7702  -6.7446  -6.6815  -6.5782  -6.4997  -6.4591  -6.4071
    -6.3329  -6.2709  -6.0839  -5.9524  -5.9278  -5.8649  -5.8117  -5.7723
    -5.7505  -5.7004  -5.6475  -5.6285  -5.5766  -5.5369  -5.5071  -5.4360
    -5.4105  -5.3412  -5.2245  -5.1431  -5.0403  -5.0013  -4.9611  -4.9268
    -4.8917  -4.7897  -4.6444  -4.5287  -4.4263  -4.2991  -4.2861  -4.2195
    -4.2008  -4.0233  -4.0161  -3.8769  -3.8136  -3.7591  -3.7162  -3.6774
    -3.6569  -3.5785  -3.5285  -3.4789  -3.4738  -3.4409  -3.4096  -3.3574
    -3.3438  -3.1773  -3.1174  -2.8935  -2.8593  -2.7725  -2.7438  -2.7013
    -2.6804  -2.6507  -2.6357  -2.6006  -2.5203  -2.2591  -2.0128  -1.9700
    -1.8760  -0.8659  -0.7367  -0.5816  -0.1685  -0.1054  -0.0938  -0.0232
     0.0452   0.1479   0.1848   0.2566   0.2949   0.3260   0.3565   0.4830
     0.5233   0.5556   0.5847   0.6231   0.6550   0.6787   0.7301   0.7741
     0.7901   0.8364   0.8433   0.9217   0.9802   0.9935   1.0640   1.2623
     1.4052

     the Fermi energy is    -0.8820 ev

!    total energy              =   -2205.54058970 Ry
     estimated scf accuracy    <       0.00000053 Ry
     smearing contrib. (-TS)   =      -0.00741188 Ry
     internal energy E=F+TS    =   -2205.53317782 Ry

     The total energy is F=E-TS. E is the sum of the following terms:
     one-electron contribution =  -18049.01358344 Ry
     hartree contribution      =    9011.52095459 Ry
     xc contribution           =    -385.31735161 Ry
     ewald contribution        =    7217.27680265 Ry

     convergence has been achieved in  15 iterations

     negative rho (up, down):  1.371E-04 0.000E+00

     Forces acting on atoms (cartesian axes, Ry/au):

     atom    1 type  1   force =     0.00851842   -0.02557239    0.00597457
     atom    2 type  2   force =    -0.06615147   -0.02117493    0.04894540
     atom    3 type  2   force =    -0.01063427    0.00996697   -0.00217775
     atom    4 type  1   force =     0.00885886   -0.00368808   -0.00086649
     atom    5 type  2   force =    -0.00211666   -0.00278086   -0.00716909
     atom    6 type  2   force =     0.00222397    0.01251415    0.00013477
     atom    7 type  1   force =     0.00487721   -0.01111906   -0.01288930
     atom    8 type  2   force =     0.00176356   -0.00525343    0.01758339
     atom    9 type  2   force =     0.01213312    0.00715532    0.01202191
     atom   10 type  1   force =    -0.00333709   -0.00026926   -0.04886248
     atom   11 type  2   force =     0.00539601    0.00683732   -0.00011910
     atom   12 type  2   force =     0.00034866    0.00162739    0.00623890
     atom   13 type  1   force =     0.00473344    0.00731711   -0.00428846
     atom   14 type  2   force =     0.00808984    0.00085198    0.00987322
     atom   15 type  2   force =    -0.01164605    0.00300194   -0.00884938
     atom   16 type  1   force =    -0.00213381    0.00792655    0.00412393
     atom   17 type  2   force =     0.00556878    0.00029903    0.00259800
     atom   18 type  2   force =    -0.00468122   -0.00685306    0.01278893
     atom   19 type  1   force =     0.00179569   -0.01609885   -0.00367386
     atom   20 type  2   force =     0.00439247   -0.00497368    0.00150623
     atom   21 type  1   force =    -0.00102315    0.00605103   -0.00022747
     atom   22 type  2   force =    -0.00330921   -0.00153466   -0.00180840
     atom   23 type  2   force =    -0.00231804    0.00323753    0.00687646
     atom   24 type  1   force =     0.02200929    0.01503135   -0.05504918
     atom   25 type  2   force =     0.02021181    0.01815374    0.00824094
     atom   26 type  2   force =    -0.01458875   -0.00067490   -0.00452179
     atom   27 type  1   force =    -0.00081129    0.00077337    0.00710531
     atom   28 type  2   force =     0.00241057    0.00248609   -0.00391006
     atom   29 type  2   force =     0.00351852   -0.00329936   -0.00180709
     atom   30 type  1   force =    -0.00557013    0.01245337   -0.00685858
     atom   31 type  2   force =     0.00157139   -0.00032077    0.01677432
     atom   32 type  2   force =    -0.00913175    0.00684446    0.00762535
     atom   33 type  1   force =     0.00976307   -0.00247766   -0.00994658
     atom   34 type  2   force =     0.00315305   -0.04359821   -0.00819452
     atom   35 type  2   force =    -0.00705024    0.00549046    0.01461232
     atom   36 type  3   force =     0.01316539    0.02166998   -0.00180439
     The non-local contrib.  to forces
     atom    1 type  1   force =    -0.00030314    0.03482485   -0.01110149
     atom    2 type  2   force =    -0.20276721   -0.16003509    0.00641415
     atom    3 type  2   force =    -0.01688897   -0.00379277    0.27376795
     atom    4 type  1   force =     0.00004304    0.01236824    0.00446414
     atom    5 type  2   force =     0.00567415   -0.03541359   -0.25091770
     atom    6 type  2   force =    -0.00214728    0.00980476    0.26291069
     atom    7 type  1   force =    -0.02527683   -0.00383029   -0.02082872
     atom    8 type  2   force =     0.00626569   -0.00680580   -0.25464883
     atom    9 type  2   force =     0.00721620   -0.00809371    0.27762244
     atom   10 type  1   force =     0.00492505   -0.00082381    0.00120424
     atom   11 type  2   force =     0.01573430    0.01957831   -0.22286620
     atom   12 type  2   force =    -0.00921051   -0.01673540    0.26364188
     atom   13 type  1   force =    -0.00072997    0.02318340   -0.00433479
     atom   14 type  2   force =     0.01354159   -0.01038955   -0.25289794
     atom   15 type  2   force =    -0.01081240   -0.00298414    0.25956014
     atom   16 type  1   force =    -0.00317386    0.03691896   -0.02411976
     atom   17 type  2   force =     0.00333092   -0.02998818   -0.25148694
     atom   18 type  2   force =    -0.00590328   -0.00446992    0.27347308
     atom   19 type  1   force =     0.01786603   -0.00046187   -0.01612920
     atom   20 type  2   force =    -0.00041501   -0.02218362    0.26540375
     atom   21 type  1   force =     0.00241381    0.01969737    0.00624627
     atom   22 type  2   force =    -0.01035349    0.00471432   -0.25642963
     atom   23 type  2   force =     0.00638935   -0.01284249    0.26911176
     atom   24 type  1   force =    -0.00286063    0.01372135   -0.01511226
     atom   25 type  2   force =     0.02043127    0.00655963   -0.24920691
     atom   26 type  2   force =    -0.00755235   -0.00902250    0.26617578
     atom   27 type  1   force =    -0.00100084    0.01191938    0.00874725
     atom   28 type  2   force =    -0.00129569   -0.01691166   -0.26793844
     atom   29 type  2   force =     0.00851047   -0.00113640    0.26635770
     atom   30 type  1   force =     0.00146044    0.01468227    0.00848958
     atom   31 type  2   force =    -0.00920578    0.00126065   -0.25239789
     atom   32 type  2   force =    -0.00487615   -0.01089210    0.27256834
     atom   33 type  1   force =    -0.00128095    0.00447283    0.00543511
     atom   34 type  2   force =    -0.00655737   -0.03687418   -0.26624031
     atom   35 type  2   force =    -0.00305451   -0.01125281    0.27246044
     atom   36 type  3   force =     0.02385019    0.02406881   -0.02709557
     The ionic contribution  to forces
     atom    1 type  1   force =     0.22529647    0.61654923    5.21336352
     atom    2 type  2   force =     0.18688755    1.24824774   38.34633638
     atom    3 type  2   force =    -0.13661611    0.04494168  -36.19736625
     atom    4 type  1   force =     0.12107803    0.68926666    0.62375429
     atom    5 type  2   force =    -1.00482216    1.64835728   38.71899007
     atom    6 type  2   force =     0.33618712   -0.46227686  -38.04848388
     atom    7 type  1   force =    -2.66416360   -2.96222879    2.47131120
     atom    8 type  2   force =    -0.96686094   -0.03822566   37.37817753
     atom    9 type  2   force =     0.34747405   -0.05258116  -38.00841909
     atom   10 type  1   force =    -0.84800892   -0.64911600    4.92384904
     atom   11 type  2   force =    -0.76602473   -2.08415690   38.92472316
     atom   12 type  2   force =     0.42606599    0.64626675  -37.92554810
     atom   13 type  1   force =     0.39420832    1.08711144    2.77387680
     atom   14 type  2   force =    -0.29594561    0.12496457   38.37602596
     atom   15 type  2   force =     0.11574101   -0.04358765  -36.86809966
     atom   16 type  1   force =    -0.07767679    4.02235432    0.46695406
     atom   17 type  2   force =     0.78630785    1.55432592   37.93263606
     atom   18 type  2   force =    -0.16888736   -0.62507429  -38.56316542
     atom   19 type  1   force =     2.68216962   -2.52410834    0.64414630
     atom   20 type  2   force =     0.21749222   -0.20995324  -38.47531113
     atom   21 type  1   force =    -0.24863495   -0.09721578    0.86462424
     atom   22 type  2   force =     0.39349895   -1.78793023   38.41313492
     atom   23 type  2   force =    -0.09994172    0.64405787  -38.30471800
     atom   24 type  1   force =    -0.31546673    1.34182121    5.61613097
     atom   25 type  2   force =     0.74629412    0.32108566   39.24167799
     atom   26 type  2   force =    -0.27143420    0.07730741  -37.35810884
     atom   27 type  1   force =     0.05001519    0.45726909   -2.24453377
     atom   28 type  2   force =     0.11175754    1.10390762   38.19392862
     atom   29 type  2   force =    -0.24802125   -0.39761322  -37.27614383
     atom   30 type  1   force =    -0.26110360   -1.02901800   -0.08208381
     atom   31 type  2   force =     1.24107898   -0.08023145   37.33251099
     atom   32 type  2   force =    -0.47534920   -0.01517922  -38.62494482
     atom   33 type  1   force =     0.89708398   -0.92298004    1.96519729
     atom   34 type  2   force =     0.44973003   -1.62150362   39.28098976
     atom   35 type  2   force =    -0.26949868    0.44488075  -37.85470513
     atom   36 type  3   force =    -0.60991046   -0.46973475    8.12929255
     The local contribution  to forces
     atom    1 type  1   force =    -0.21659703   -0.67692932   -5.19532253
     atom    2 type  2   force =    -0.06273071   -1.11997693  -38.30742858
     atom    3 type  2   force =     0.14209702   -0.03122315   35.94298576
     atom    4 type  1   force =    -0.11224548   -0.70524596   -0.62821747
     atom    5 type  2   force =     0.99769098   -1.61778496  -38.49525404
     atom    6 type  2   force =    -0.33211807    0.46605987   37.80702279
     atom    7 type  1   force =     2.69457277    2.95510005   -2.46248228
     atom    8 type  2   force =     0.96261481    0.03917555  -37.12612445
     atom    9 type  2   force =    -0.34236038    0.06732766   37.76422427
     atom   10 type  1   force =     0.83972214    0.64949174   -4.97286008
     atom   11 type  2   force =     0.75663363    2.07297618  -38.72036045
     atom   12 type  2   force =    -0.41747139   -0.62933289   37.68941925
     atom   13 type  1   force =    -0.38865513   -1.10293614   -2.77288836
     atom   14 type  2   force =     0.29144707   -0.11376678  -38.13311758
     atom   15 type  2   force =    -0.11716443    0.04938160   36.62065865
     atom   16 type  1   force =     0.07872569   -4.05166700   -0.43789598
     atom   17 type  2   force =    -0.78403037   -1.52562667  -37.69860877
     atom   18 type  2   force =     0.16994607    0.62314074   38.32388547
     atom   19 type  1   force =    -2.69838094    2.50856129   -0.63086488
     atom   20 type  2   force =    -0.21278507    0.22630932   38.23290988
     atom   21 type  1   force =     0.24532022    0.08351293   -0.87011158
     atom   22 type  2   force =    -0.38676810    1.78223794  -38.17862328
     atom   23 type  2   force =     0.09175526   -0.62911464   38.06379094
     atom   24 type  1   force =     0.34047507   -1.34036344   -5.65518430
     atom   25 type  2   force =    -0.74602700   -0.30899661  -39.00409393
     atom   26 type  2   force =     0.26431213   -0.06947503   37.10880985
     atom   27 type  1   force =    -0.04986098   -0.46840208    2.24376813
     atom   28 type  2   force =    -0.10825995   -1.08605074  -37.95022950
     atom   29 type  2   force =     0.24368623    0.39594119   37.02909787
     atom   30 type  1   force =     0.25397275    1.02673666    0.06758544
     atom   31 type  2   force =    -1.23092219    0.07858874  -37.08351036
     atom   32 type  2   force =     0.47104061    0.03223828   38.38131650
     atom   33 type  1   force =    -0.88611799    0.91596824   -1.97959866
     atom   34 type  2   force =    -0.44083991    1.61379022  -39.04339326
     atom   35 type  2   force =     0.26555471   -0.42924269   37.61844102
     atom   36 type  3   force =     0.59922300    0.46732178   -8.10395126
     The core correction contribution to forces
     atom    1 type  1   force =     0.00000000    0.00000000    0.00000000
     atom    2 type  2   force =     0.01243533    0.01056944    0.00387182
     atom    3 type  2   force =     0.00077090    0.00007026   -0.02112704
     atom    4 type  1   force =     0.00000000    0.00000000    0.00000000
     atom    5 type  2   force =    -0.00064611    0.00203944    0.02020871
     atom    6 type  2   force =     0.00027298   -0.00101777   -0.02088298
     atom    7 type  1   force =     0.00000000    0.00000000    0.00000000
     atom    8 type  2   force =    -0.00022040    0.00062963    0.02040063
     atom    9 type  2   force =    -0.00016739    0.00051672   -0.02101710
     atom   10 type  1   force =     0.00000000    0.00000000    0.00000000
     atom   11 type  2   force =    -0.00092506   -0.00159566    0.01859277
     atom   12 type  2   force =     0.00097124    0.00134909   -0.02083942
     atom   13 type  1   force =     0.00000000    0.00000000    0.00000000
     atom   14 type  2   force =    -0.00093199    0.00005719    0.02007797
     atom   15 type  2   force =     0.00059970    0.00020907   -0.02050021
     atom   16 type  1   force =     0.00000000    0.00000000    0.00000000
     atom   17 type  2   force =    -0.00005390    0.00159987    0.02029210
     atom   18 type  2   force =     0.00018428   -0.00038619   -0.02101146
     atom   19 type  1   force =     0.00000000    0.00000000    0.00000000
     atom   20 type  2   force =     0.00013393    0.00083210   -0.02117356
     atom   21 type  1   force =     0.00000000    0.00000000    0.00000000
     atom   22 type  2   force =     0.00033052   -0.00054716    0.02038816
     atom   23 type  2   force =    -0.00052418    0.00110023   -0.02093828
     atom   24 type  1   force =     0.00000000    0.00000000    0.00000000
     atom   25 type  2   force =    -0.00051036   -0.00048431    0.02009495
     atom   26 type  2   force =     0.00008644    0.00054041   -0.02096599
     atom   27 type  1   force =     0.00000000    0.00000000    0.00000000
     atom   28 type  2   force =     0.00021703    0.00154426    0.02058001
     atom   29 type  2   force =    -0.00064184   -0.00042597   -0.02070225
     atom   30 type  1   force =     0.00000000    0.00000000    0.00000000
     atom   31 type  2   force =     0.00054988    0.00003639    0.02045559
     atom   32 type  2   force =    -0.00000182    0.00065945   -0.02097202
     atom   33 type  1   force =     0.00000000    0.00000000    0.00000000
     atom   34 type  2   force =     0.00078256    0.00097273    0.02068578
     atom   35 type  2   force =    -0.00005707    0.00100008   -0.02115933
     atom   36 type  3   force =     0.00000000    0.00000000    0.00000000
     The Hubbard contrib.    to forces
     atom    1 type  1   force =     0.00000000    0.00000000    0.00000000
     atom    2 type  2   force =     0.00000000    0.00000000    0.00000000
     atom    3 type  2   force =     0.00000000    0.00000000    0.00000000
     atom    4 type  1   force =     0.00000000    0.00000000    0.00000000
     atom    5 type  2   force =     0.00000000    0.00000000    0.00000000
     atom    6 type  2   force =     0.00000000    0.00000000    0.00000000
     atom    7 type  1   force =     0.00000000    0.00000000    0.00000000
     atom    8 type  2   force =     0.00000000    0.00000000    0.00000000
     atom    9 type  2   force =     0.00000000    0.00000000    0.00000000
     atom   10 type  1   force =     0.00000000    0.00000000    0.00000000
     atom   11 type  2   force =     0.00000000    0.00000000    0.00000000
     atom   12 type  2   force =     0.00000000    0.00000000    0.00000000
     atom   13 type  1   force =     0.00000000    0.00000000    0.00000000
     atom   14 type  2   force =     0.00000000    0.00000000    0.00000000
     atom   15 type  2   force =     0.00000000    0.00000000    0.00000000
     atom   16 type  1   force =     0.00000000    0.00000000    0.00000000
     atom   17 type  2   force =     0.00000000    0.00000000    0.00000000
     atom   18 type  2   force =     0.00000000    0.00000000    0.00000000
     atom   19 type  1   force =     0.00000000    0.00000000    0.00000000
     atom   20 type  2   force =     0.00000000    0.00000000    0.00000000
     atom   21 type  1   force =     0.00000000    0.00000000    0.00000000
     atom   22 type  2   force =     0.00000000    0.00000000    0.00000000
     atom   23 type  2   force =     0.00000000    0.00000000    0.00000000
     atom   24 type  1   force =     0.00000000    0.00000000    0.00000000
     atom   25 type  2   force =     0.00000000    0.00000000    0.00000000
     atom   26 type  2   force =     0.00000000    0.00000000    0.00000000
     atom   27 type  1   force =     0.00000000    0.00000000    0.00000000
     atom   28 type  2   force =     0.00000000    0.00000000    0.00000000
     atom   29 type  2   force =     0.00000000    0.00000000    0.00000000
     atom   30 type  1   force =     0.00000000    0.00000000    0.00000000
     atom   31 type  2   force =     0.00000000    0.00000000    0.00000000
     atom   32 type  2   force =     0.00000000    0.00000000    0.00000000
     atom   33 type  1   force =     0.00000000    0.00000000    0.00000000
     atom   34 type  2   force =     0.00000000    0.00000000    0.00000000
     atom   35 type  2   force =     0.00000000    0.00000000    0.00000000
     atom   36 type  3   force =     0.00000000    0.00000000    0.00000000
     The SCF correction term to forces
     atom    1 type  1   force =     0.00012245   -0.00002114   -0.00094304
     atom    2 type  2   force =     0.00002391    0.00001593   -0.00022647
     atom    3 type  2   force =     0.00000324   -0.00003302   -0.00041627
     atom    4 type  1   force =    -0.00001639   -0.00008100   -0.00084555
     atom    5 type  2   force =    -0.00001318    0.00001700   -0.00017425
     atom    6 type  2   force =     0.00002955   -0.00005983   -0.00040996
     atom    7 type  1   force =    -0.00025479   -0.00016401   -0.00086761
     atom    8 type  2   force =    -0.00003526   -0.00003112   -0.00019960
     atom    9 type  2   force =    -0.00002903   -0.00001816   -0.00036672
     atom   10 type  1   force =     0.00002498    0.00017482   -0.00103379
     atom   11 type  2   force =    -0.00002180    0.00003142   -0.00018649
     atom   12 type  2   force =    -0.00000634    0.00007587   -0.00041282
     atom   13 type  1   force =    -0.00008944   -0.00004558   -0.00092021
     atom   14 type  2   force =    -0.00002088   -0.00001743   -0.00019330
     atom   15 type  2   force =    -0.00000960   -0.00002092   -0.00044639
     atom   16 type  1   force =    -0.00000851    0.00031629   -0.00079250
     atom   17 type  2   force =     0.00001462   -0.00001588   -0.00021256
     atom   18 type  2   force =    -0.00002059   -0.00006739   -0.00037085
     atom   19 type  1   force =     0.00014132   -0.00009391   -0.00080419
     atom   20 type  2   force =    -0.00003327    0.00001779   -0.00030081
     atom   21 type  1   force =    -0.00012190    0.00005254   -0.00096450
     atom   22 type  2   force =    -0.00001674   -0.00001352   -0.00025667
     atom   23 type  2   force =     0.00000358    0.00003259   -0.00034807
     atom   24 type  1   force =    -0.00013809   -0.00015174   -0.00086171
     atom   25 type  2   force =     0.00002411   -0.00001462   -0.00020928
     atom   26 type  2   force =    -0.00000043   -0.00002917   -0.00041071
     atom   27 type  1   force =     0.00003567   -0.00001699   -0.00085440
     atom   28 type  2   force =    -0.00000802   -0.00000737   -0.00022886
     atom   29 type  2   force =    -0.00001476   -0.00006893   -0.00039468
     atom   30 type  1   force =     0.00010061    0.00004846   -0.00082789
     atom   31 type  2   force =     0.00007084    0.00002093   -0.00026212
     atom   32 type  2   force =     0.00005516    0.00001408   -0.00032076
     atom   33 type  1   force =     0.00007837    0.00005733   -0.00095843
     atom   34 type  2   force =     0.00003808    0.00001266   -0.00021460
     atom   35 type  2   force =     0.00000565    0.00010115   -0.00040279
     atom   36 type  3   force =     0.00000299    0.00001017   -0.00002822

     Total force =     0.148374     Total SCF correction =     0.003504

     BFGS Geometry Optimization
     Energy error            =      0.0E+00 Ry
     Gradient error          =      6.6E-02 Ry/Bohr

     number of scf cycles    =   1
     number of bfgs steps    =   0

     energy             new  =   -2205.5405897005 Ry

     new trust radius        =       0.0849708592 bohr
     new conv_thr            =       0.0000010000 Ry


ATOMIC_POSITIONS (angstrom)
Mo            6.5790561622        1.7742739037        2.8268046367
S             8.1417034876        0.7984987342        4.4604391423
S             8.1876056706        0.8165160395        1.2767310125
Mo            8.0998504716        4.4931052945        2.7173598666
S             6.4987891692        3.7209399198        4.3428669284
S             6.5545266730        3.5183597591        1.1213515471
Mo            6.4925626023        7.2125533293        2.6650637599
S             8.0826609627        6.3410909994        4.2517662916
S             8.0873382202        6.3084887487        1.0902247208
Mo            8.1588531368        9.9020379245        2.8176048481
S             6.4980230414        8.9465449700        4.3830425062
S             6.6181317022        9.0495723922        1.1432087842
Mo            3.4241644928        1.7508278960        2.7742018096
S             4.9794464480        0.8173920593        4.3557577764
S             5.0516709277        0.8478506663        1.2219755727
Mo            4.9786275175        4.5173725521        2.6350668398
S             3.4307885359        3.6717579273        4.2810843803
S             3.4354433877        3.5446022127        1.0651192948
Mo            3.4548119803        7.2078053952        2.6287327365
S             4.9855585865        6.3243003299        1.0380507946
Mo            5.0117224916        9.9048021209        2.7432805888
S             3.4692069609        8.9429391603        4.3246343504
S             3.4072025123        9.0667032119        1.0997071654
Mo            0.3077373005        1.7554637803        2.8203139377
S             1.8611578430        0.8023005524        4.4025703552
S             1.8530799985        0.8540687768        1.2070080243
Mo            1.8602619916        4.4960760135        2.6639573503
S             0.2734894660        3.6557144072        4.3355149840
S             0.2330931260        3.5255032807        1.1710616144
Mo            0.2682045667        7.2232361330        2.6980670263
S             1.9030697936        6.3126290934        4.2313207112
S             1.8574059029        6.3139657442        1.0485944470
Mo            1.8495130588        9.9388280322        2.7676827473
S             0.2975814236        9.0669266481        4.4095331113
S             0.2730405749        9.0464311401        1.1581332884
H             7.3622246027       10.9403672619        5.3484898686



     Writing config-only to output data dir ./MoS2-V-O.save/
     NEW-OLD atomic charge density approx. for the potential

     negative rho (up, down):  1.456E-04 0.000E+00

     total cpu time spent up to now is       81.4 secs

     Self-consistent Calculation

     iteration #  1     ecut=    80.00 Ry     beta= 0.70
     Davidson diagonalization with overlap
     ethr =  1.00E-06,  avg # of iterations = 10.0

     negative rho (up, down):  1.148E-04 0.000E+00

     total cpu time spent up to now is       98.9 secs

     total energy              =   -2205.55715449 Ry
     estimated scf accuracy    <       0.00193785 Ry

     iteration #  2     ecut=    80.00 Ry     beta= 0.70
     Davidson diagonalization with overlap
     ethr =  6.31E-07,  avg # of iterations =  2.0

     negative rho (up, down):  1.020E-04 0.000E+00

     total cpu time spent up to now is      117.6 secs

     total energy              =   -2205.55717421 Ry
     estimated scf accuracy    <       0.00043910 Ry

     iteration #  3     ecut=    80.00 Ry     beta= 0.70
     Davidson diagonalization with overlap
     ethr =  1.43E-07,  avg # of iterations =  5.0

     negative rho (up, down):  9.870E-05 0.000E+00

     total cpu time spent up to now is      136.2 secs

     total energy              =   -2205.55723846 Ry
     estimated scf accuracy    <       0.00009706 Ry

     iteration #  4     ecut=    80.00 Ry     beta= 0.70
     Davidson diagonalization with overlap
     ethr =  3.16E-08,  avg # of iterations =  5.0

     negative rho (up, down):  9.332E-05 0.000E+00

     total cpu time spent up to now is      155.6 secs

     total energy              =   -2205.55725653 Ry
     estimated scf accuracy    <       0.00001914 Ry

     iteration #  5     ecut=    80.00 Ry     beta= 0.70
     Davidson diagonalization with overlap
     ethr =  6.24E-09,  avg # of iterations =  5.0

     negative rho (up, down):  8.658E-05 0.000E+00

     total cpu time spent up to now is      167.1 secs

     total energy              =   -2205.55725878 Ry
     estimated scf accuracy    <       0.00000406 Ry

     iteration #  6     ecut=    80.00 Ry     beta= 0.70
     Davidson diagonalization with overlap
     ethr =  1.32E-09,  avg # of iterations =  5.0

     negative rho (up, down):  8.387E-05 0.000E+00

     total cpu time spent up to now is      179.6 secs

     total energy              =   -2205.55725976 Ry
     estimated scf accuracy    <       0.00000111 Ry

     iteration #  7     ecut=    80.00 Ry     beta= 0.70
     Davidson diagonalization with overlap
     ethr =  3.62E-10,  avg # of iterations =  2.0

     negative rho (up, down):  1.375E-04 0.000E+00

     total cpu time spent up to now is      181.6 secs

     End of self-consistent calculation

          k = 0.0000 0.0000 0.0000 (105382 PWs)   bands (ev):

   -62.8483 -62.8431 -62.8240 -62.8155 -62.8072 -62.7998 -62.7923 -62.7879
   -62.7628 -62.6984 -62.6801 -62.6713 -37.1872 -37.1207 -37.1089 -37.1043
   -37.0970 -37.0728 -37.0499 -37.0442 -37.0370 -37.0285 -37.0224 -37.0096
   -37.0066 -36.9972 -36.9924 -36.9846 -36.9796 -36.9767 -36.9667 -36.9614
   -36.9245 -36.9109 -36.8995 -36.8839 -36.8670 -36.8570 -36.8519 -36.8476
   -36.8391 -36.8340 -36.8253 -36.8134 -36.8063 -36.7753 -36.6757 -36.6387
   -16.1277 -15.5513 -15.1497 -15.0389 -14.9132 -14.8386 -14.6576 -14.4635
   -14.4296 -14.3955 -14.3646 -14.3447 -14.3174 -14.2594 -14.1534 -14.1100
   -14.0879 -14.0724 -13.9981 -13.8954 -13.8171 -13.7905 -13.7772  -8.6931
    -7.5971  -7.4018  -7.2739  -7.2414  -7.2294  -7.1552  -7.1263  -7.0402
    -6.8134  -6.7647  -6.7333  -6.6761  -6.5735  -6.4974  -6.4613  -6.4044
    -6.3262  -6.2589  -6.0915  -5.9451  -5.9223  -5.8577  -5.8054  -5.7670
    -5.7477  -5.6973  -5.6533  -5.6336  -5.5908  -5.5340  -5.5044  -5.4299
    -5.3753  -5.3179  -5.2196  -5.1287  -5.0280  -5.0044  -4.9596  -4.9299
    -4.8960  -4.7957  -4.6290  -4.5469  -4.4284  -4.3031  -4.2738  -4.2176
    -4.1936  -4.0450  -4.0223  -3.8836  -3.8175  -3.7436  -3.7107  -3.6780
    -3.6488  -3.5840  -3.5170  -3.4877  -3.4787  -3.4361  -3.4009  -3.3557
    -3.3337  -3.1805  -3.1178  -2.8731  -2.8633  -2.7593  -2.7508  -2.6903
    -2.6805  -2.6657  -2.6443  -2.5962  -2.5159  -2.2483  -2.0205  -1.9661
    -1.9008  -0.8697  -0.7269  -0.5935  -0.1543  -0.0983  -0.0898  -0.0284
     0.0668   0.1474   0.1764   0.2772   0.3017   0.3331   0.3622   0.4895
     0.5288   0.5713   0.6004   0.6225   0.6606   0.6834   0.7433   0.7845
     0.7960   0.8393   0.8529   0.9294   0.9907   1.0122   1.0551   1.2621
     1.4067

     the Fermi energy is    -0.8827 ev

!    total energy              =   -2205.55725955 Ry
     estimated scf accuracy    <       0.00000049 Ry
     smearing contrib. (-TS)   =      -0.00717039 Ry
     internal energy E=F+TS    =   -2205.55008916 Ry

     The total energy is F=E-TS. E is the sum of the following terms:
     one-electron contribution =  -18047.20008004 Ry
     hartree contribution      =    9010.65417782 Ry
     xc contribution           =    -385.32965458 Ry
     ewald contribution        =    7216.32546762 Ry

     convergence has been achieved in   7 iterations

     negative rho (up, down):  1.375E-04 0.000E+00

     Forces acting on atoms (cartesian axes, Ry/au):

     atom    1 type  1   force =    -0.00046623   -0.01378793    0.00299871
     atom    2 type  2   force =    -0.03329129   -0.00906059    0.02343469
     atom    3 type  2   force =    -0.00785725    0.01013719   -0.00824401
     atom    4 type  1   force =     0.00779302   -0.00186639    0.00196953
     atom    5 type  2   force =    -0.00045133   -0.00377941   -0.00730616
     atom    6 type  2   force =     0.00162525    0.00792382    0.00233146
     atom    7 type  1   force =     0.00528786   -0.00748580   -0.00201051
     atom    8 type  2   force =     0.00123550   -0.00425319    0.01117741
     atom    9 type  2   force =     0.01113914    0.00503617    0.00735016
     atom   10 type  1   force =    -0.00077478    0.00183845   -0.01599810
     atom   11 type  2   force =     0.00569995    0.00164086   -0.00777789
     atom   12 type  2   force =    -0.00269976    0.00033131   -0.00061172
     atom   13 type  1   force =     0.00484134    0.00285856   -0.00110870
     atom   14 type  2   force =     0.00430026    0.00098196    0.00576426
     atom   15 type  2   force =    -0.00800767    0.00234603   -0.00738460
     atom   16 type  1   force =    -0.00130065    0.00632652    0.00327165
     atom   17 type  2   force =     0.00468407    0.00070536    0.00312218
     atom   18 type  2   force =    -0.00320788   -0.00393274    0.00982860
     atom   19 type  1   force =     0.00052523   -0.01157096    0.00048368
     atom   20 type  2   force =     0.00333664   -0.00492229   -0.00226521
     atom   21 type  1   force =    -0.00184702    0.00472300    0.00229099
     atom   22 type  2   force =    -0.00184917   -0.00213181   -0.00400564
     atom   23 type  2   force =    -0.00025890    0.00102180    0.00422774
     atom   24 type  1   force =     0.00726907    0.00564368   -0.02500579
     atom   25 type  2   force =     0.01242192    0.01524557   -0.00040122
     atom   26 type  2   force =    -0.00587647   -0.00081224   -0.00905553
     atom   27 type  1   force =    -0.00105691    0.00194120    0.00681208
     atom   28 type  2   force =     0.00227758   -0.00148417   -0.00566308
     atom   29 type  2   force =     0.00488694    0.00175994   -0.00727650
     atom   30 type  1   force =    -0.00230450    0.00324632    0.00273189
     atom   31 type  2   force =     0.00059874    0.00022596    0.01138544
     atom   32 type  2   force =    -0.00768899    0.00556639    0.00561971
     atom   33 type  1   force =     0.00315539    0.00094454    0.00118497
     atom   34 type  2   force =    -0.00015884   -0.03148761   -0.01480215
     atom   35 type  2   force =    -0.00341979    0.00548767    0.00409695
     atom   36 type  3   force =     0.00143953    0.01064281    0.00883471
     The non-local contrib.  to forces
     atom    1 type  1   force =     0.00204187    0.03119295   -0.01268730
     atom    2 type  2   force =    -0.19285679   -0.15988709   -0.01190707
     atom    3 type  2   force =    -0.01201147   -0.00518094    0.27051607
     atom    4 type  1   force =     0.00163162    0.01270570    0.00339440
     atom    5 type  2   force =     0.00695704   -0.03614960   -0.25163973
     atom    6 type  2   force =    -0.00242846    0.00608856    0.26541376
     atom    7 type  1   force =    -0.02527234   -0.00434230   -0.02213151
     atom    8 type  2   force =     0.00596757   -0.00664343   -0.25867296
     atom    9 type  2   force =     0.00585478   -0.00922889    0.27489759
     atom   10 type  1   force =     0.00442390   -0.00165664   -0.00099383
     atom   11 type  2   force =     0.01319714    0.01255851   -0.23083557
     atom   12 type  2   force =    -0.01029787   -0.01783053    0.26087501
     atom   13 type  1   force =    -0.00090369    0.02456359   -0.00437256
     atom   14 type  2   force =     0.01020154   -0.01036213   -0.25591968
     atom   15 type  2   force =    -0.00802741   -0.00351900    0.26001935
     atom   16 type  1   force =    -0.00407900    0.03761322   -0.02590963
     atom   17 type  2   force =     0.00297552   -0.02886304   -0.25135418
     atom   18 type  2   force =    -0.00486981   -0.00252191    0.27200269
     atom   19 type  1   force =     0.01849329    0.00019361   -0.01823675
     atom   20 type  2   force =    -0.00111833   -0.02151242    0.26303020
     atom   21 type  1   force =     0.00170001    0.02041577    0.00416208
     atom   22 type  2   force =    -0.00850058    0.00354543   -0.25837407
     atom   23 type  2   force =     0.00837348   -0.01491949    0.26830236
     atom   24 type  1   force =    -0.00021849    0.01629173   -0.01441833
     atom   25 type  2   force =     0.01769645    0.00352539   -0.25379275
     atom   26 type  2   force =    -0.00160371   -0.00854241    0.26318110
     atom   27 type  1   force =    -0.00151657    0.01125206    0.00726889
     atom   28 type  2   force =    -0.00104823   -0.01628648   -0.26852946
     atom   29 type  2   force =     0.00954791    0.00063495    0.26359782
     atom   30 type  1   force =     0.00102463    0.01634486    0.00691393
     atom   31 type  2   force =    -0.01047116    0.00151441   -0.25625559
     atom   32 type  2   force =    -0.00358170   -0.01139026    0.27175502
     atom   33 type  1   force =    -0.00030624    0.00381211    0.00313513
     atom   34 type  2   force =    -0.00867815   -0.02761176   -0.27099047
     atom   35 type  2   force =    -0.00084473   -0.01070477    0.26635076
     atom   36 type  3   force =     0.02743476    0.02847345   -0.03188232
     The ionic contribution  to forces
     atom    1 type  1   force =     0.27736131    0.92695352    5.38243704
     atom    2 type  2   force =     0.68228084    1.30309046   38.35901083
     atom    3 type  2   force =    -0.16153591    0.10922718  -36.18057835
     atom    4 type  1   force =    -0.00804106    0.61432704    0.75245885
     atom    5 type  2   force =    -0.95817369    1.61546830   38.62339427
     atom    6 type  2   force =     0.29521022   -0.51685468  -37.93255133
     atom    7 type  1   force =    -2.71175107   -2.82320961    2.37229630
     atom    8 type  2   force =    -0.99327102   -0.02413337   37.48173034
     atom    9 type  2   force =     0.33848052   -0.12546647  -37.96610843
     atom   10 type  1   force =    -0.58477044   -0.38551753    4.20498444
     atom   11 type  2   force =    -0.70358032   -2.11431572   38.87035981
     atom   12 type  2   force =     0.28047531    0.58766569  -37.91507436
     atom   13 type  1   force =     0.45002327    0.95762263    2.81051434
     atom   14 type  2   force =    -0.38809865    0.12765039   38.44637809
     atom   15 type  2   force =     0.12974479   -0.00288061  -36.90877327
     atom   16 type  1   force =     0.06586725    3.85866491    0.63118328
     atom   17 type  2   force =     0.78536567    1.52782598   37.99066318
     atom   18 type  2   force =    -0.11881764   -0.56989839  -38.50883933
     atom   19 type  1   force =     2.69824034   -2.32695976    0.65528529
     atom   20 type  2   force =     0.19395087   -0.20185145  -38.51647093
     atom   21 type  1   force =    -0.31273261   -0.24426033    1.01095074
     atom   22 type  2   force =     0.39457567   -1.78980775   38.38933680
     atom   23 type  2   force =    -0.05531964    0.58358386  -38.24171140
     atom   24 type  1   force =    -0.68497332    0.87758347    4.94479990
     atom   25 type  2   force =     0.48750453    0.25400789   39.23607943
     atom   26 type  2   force =    -0.13418001   -0.01402149  -37.38602631
     atom   27 type  1   force =     0.05324515    0.58470674   -1.95125559
     atom   28 type  2   force =     0.05115914    0.91571409   38.22144974
     atom   29 type  2   force =    -0.27837273   -0.23896270  -37.35667803
     atom   30 type  1   force =    -0.16918301   -1.18431216   -0.06233696
     atom   31 type  2   force =     1.20748886   -0.03649365   37.42049070
     atom   32 type  2   force =    -0.45749391   -0.03987624  -38.58255550
     atom   33 type  1   force =     0.75131573   -0.73970221    2.13081925
     atom   34 type  2   force =     0.37328664   -1.35079515   39.20430090
     atom   35 type  2   force =    -0.15339282    0.43868884  -37.82488565
     atom   36 type  3   force =    -0.64188822   -0.55346175    8.19492190
     The local contribution  to forces
     atom    1 type  1   force =    -0.27996868   -0.97168801   -5.36774098
     atom    2 type  2   force =    -0.53505724   -1.16310901  -38.32810656
     atom    3 type  2   force =     0.16524267   -0.09407482   35.92260745
     atom    4 type  1   force =     0.01423838   -0.62902605   -0.75470538
     atom    5 type  2   force =     0.95148448   -1.58516658  -38.39965740
     atom    6 type  2   force =    -0.29142070    0.51950397   37.69016261
     atom    7 type  1   force =     2.74235541    2.82000820   -2.35296651
     atom    8 type  2   force =     0.98883879    0.02582682  -37.23284009
     atom    9 type  2   force =    -0.33305733    0.13915135   37.71922076
     atom   10 type  1   force =     0.57979107    0.38926682   -4.22060144
     atom   11 type  2   force =     0.69682768    2.10473982  -38.66652939
     atom   12 type  2   force =    -0.27377416   -0.57078545   37.67399543
     atom   13 type  1   force =    -0.44433779   -0.97939858   -2.80808057
     atom   14 type  2   force =     0.38301524   -0.11632909  -38.20536406
     atom   15 type  2   force =    -0.13019224    0.00851691   36.66165118
     atom   16 type  1   force =    -0.06306353   -3.89022825   -0.60286391
     atom   17 type  2   force =    -0.78366154   -1.49980070  -37.75686318
     atom   18 type  2   force =     0.12035253    0.56891888   38.26738634
     atom   19 type  1   force =    -2.71643298    2.31522420   -0.63740084
     atom   20 type  2   force =    -0.18972345    0.21760748   38.27199214
     atom   21 type  1   force =     0.30903697    0.22872749   -1.01372574
     atom   22 type  2   force =    -0.38822569    1.78467121  -38.15582731
     atom   23 type  2   force =     0.04723128   -0.56877727   37.99826192
     atom   24 type  1   force =     0.69240327   -0.88832924   -4.95600013
     atom   25 type  2   force =    -0.49231523   -0.24192999  -39.00334860
     atom   26 type  2   force =     0.12997909    0.02132486   37.13445796
     atom   27 type  1   force =    -0.05285034   -0.59399555    1.95000428
     atom   28 type  2   force =    -0.04800542   -0.90231343  -37.97959094
     atom   29 type  2   force =     0.27439708    0.24042819   37.10625212
     atom   30 type  1   force =     0.16602035    1.17098557    0.05738323
     atom   31 type  2   force =    -1.19700432    0.03509238  -37.17386041
     atom   32 type  2   force =     0.45348131    0.05617428   38.33713067
     atom   33 type  1   force =    -0.74793243    0.73706815   -2.13348652
     atom   34 type  2   force =    -0.36551811    1.34629830  -38.96935194
     atom   35 type  2   force =     0.15092005   -0.42343476   37.58330227
     atom   36 type  3   force =     0.61591562    0.53564854   -8.15429476
     The core correction contribution to forces
     atom    1 type  1   force =     0.00000000    0.00000000    0.00000000
     atom    2 type  2   force =     0.01242844    0.01084859    0.00411117
     atom    3 type  2   force =     0.00050240    0.00018912   -0.02106562
     atom    4 type  1   force =     0.00000000    0.00000000    0.00000000
     atom    5 type  2   force =    -0.00069475    0.00204278    0.02018789
     atom    6 type  2   force =     0.00025617   -0.00087437   -0.02091075
     atom    7 type  1   force =     0.00000000    0.00000000    0.00000000
     atom    8 type  2   force =    -0.00020664    0.00062635    0.02052200
     atom    9 type  2   force =    -0.00007950    0.00050432   -0.02096874
     atom   10 type  1   force =     0.00000000    0.00000000    0.00000000
     atom   11 type  2   force =    -0.00072017   -0.00127044    0.01886560
     atom   12 type  2   force =     0.00088921    0.00135072   -0.02077540
     atom   13 type  1   force =     0.00000000    0.00000000    0.00000000
     atom   14 type  2   force =    -0.00086200    0.00007131    0.02021104
     atom   15 type  2   force =     0.00047989    0.00026784   -0.02052375
     atom   16 type  1   force =     0.00000000    0.00000000    0.00000000
     atom   17 type  2   force =    -0.00004647    0.00152561    0.02029313
     atom   18 type  2   force =     0.00013151   -0.00043811   -0.02098510
     atom   19 type  1   force =     0.00000000    0.00000000    0.00000000
     atom   20 type  2   force =     0.00015429    0.00080475   -0.02112958
     atom   21 type  1   force =     0.00000000    0.00000000    0.00000000
     atom   22 type  2   force =     0.00023962   -0.00052720    0.02045282
     atom   23 type  2   force =    -0.00057750    0.00114272   -0.02092056
     atom   24 type  1   force =     0.00000000    0.00000000    0.00000000
     atom   25 type  2   force =    -0.00052686   -0.00036219    0.02021606
     atom   26 type  2   force =    -0.00005929    0.00044013   -0.02089202
     atom   27 type  1   force =     0.00000000    0.00000000    0.00000000
     atom   28 type  2   force =     0.00018383    0.00137206    0.02064343
     atom   29 type  2   force =    -0.00069171   -0.00035618   -0.02068056
     atom   30 type  1   force =     0.00000000    0.00000000    0.00000000
     atom   31 type  2   force =     0.00055384    0.00006655    0.02055726
     atom   32 type  2   force =    -0.00008931    0.00063505   -0.02095152
     atom   33 type  1   force =     0.00000000    0.00000000    0.00000000
     atom   34 type  2   force =     0.00078599    0.00070305    0.02084823
     atom   35 type  2   force =    -0.00005607    0.00095628   -0.02101025
     atom   36 type  3   force =     0.00000000    0.00000000    0.00000000
     The Hubbard contrib.    to forces
     atom    1 type  1   force =     0.00000000    0.00000000    0.00000000
     atom    2 type  2   force =     0.00000000    0.00000000    0.00000000
     atom    3 type  2   force =     0.00000000    0.00000000    0.00000000
     atom    4 type  1   force =     0.00000000    0.00000000    0.00000000
     atom    5 type  2   force =     0.00000000    0.00000000    0.00000000
     atom    6 type  2   force =     0.00000000    0.00000000    0.00000000
     atom    7 type  1   force =     0.00000000    0.00000000    0.00000000
     atom    8 type  2   force =     0.00000000    0.00000000    0.00000000
     atom    9 type  2   force =     0.00000000    0.00000000    0.00000000
     atom   10 type  1   force =     0.00000000    0.00000000    0.00000000
     atom   11 type  2   force =     0.00000000    0.00000000    0.00000000
     atom   12 type  2   force =     0.00000000    0.00000000    0.00000000
     atom   13 type  1   force =     0.00000000    0.00000000    0.00000000
     atom   14 type  2   force =     0.00000000    0.00000000    0.00000000
     atom   15 type  2   force =     0.00000000    0.00000000    0.00000000
     atom   16 type  1   force =     0.00000000    0.00000000    0.00000000
     atom   17 type  2   force =     0.00000000    0.00000000    0.00000000
     atom   18 type  2   force =     0.00000000    0.00000000    0.00000000
     atom   19 type  1   force =     0.00000000    0.00000000    0.00000000
     atom   20 type  2   force =     0.00000000    0.00000000    0.00000000
     atom   21 type  1   force =     0.00000000    0.00000000    0.00000000
     atom   22 type  2   force =     0.00000000    0.00000000    0.00000000
     atom   23 type  2   force =     0.00000000    0.00000000    0.00000000
     atom   24 type  1   force =     0.00000000    0.00000000    0.00000000
     atom   25 type  2   force =     0.00000000    0.00000000    0.00000000
     atom   26 type  2   force =     0.00000000    0.00000000    0.00000000
     atom   27 type  1   force =     0.00000000    0.00000000    0.00000000
     atom   28 type  2   force =     0.00000000    0.00000000    0.00000000
     atom   29 type  2   force =     0.00000000    0.00000000    0.00000000
     atom   30 type  1   force =     0.00000000    0.00000000    0.00000000
     atom   31 type  2   force =     0.00000000    0.00000000    0.00000000
     atom   32 type  2   force =     0.00000000    0.00000000    0.00000000
     atom   33 type  1   force =     0.00000000    0.00000000    0.00000000
     atom   34 type  2   force =     0.00000000    0.00000000    0.00000000
     atom   35 type  2   force =     0.00000000    0.00000000    0.00000000
     atom   36 type  3   force =     0.00000000    0.00000000    0.00000000
     The SCF correction term to forces
     atom    1 type  1   force =     0.00009979   -0.00024594    0.00096110
     atom    2 type  2   force =    -0.00008602   -0.00000309    0.00029746
     atom    3 type  2   force =    -0.00005443   -0.00002289    0.00024759
     atom    4 type  1   force =    -0.00003539    0.00012737    0.00079282
     atom    5 type  2   force =    -0.00002389    0.00002615    0.00037995
     atom    6 type  2   force =     0.00000854    0.00006079    0.00018832
     atom    7 type  1   force =    -0.00004363    0.00005837    0.00076236
     atom    8 type  2   force =    -0.00009267    0.00007090    0.00040926
     atom    9 type  2   force =    -0.00005881    0.00007630    0.00028013
     atom   10 type  1   force =    -0.00021879   -0.00025374    0.00058388
     atom   11 type  2   force =    -0.00002385   -0.00007085    0.00033280
     atom   12 type  2   force =     0.00000827   -0.00006868    0.00033875
     atom   13 type  1   force =     0.00006008    0.00007137    0.00080123
     atom   14 type  2   force =     0.00004466   -0.00004807    0.00043002
     atom   15 type  2   force =    -0.00001217   -0.00003866    0.00021304
     atom   16 type  1   force =    -0.00002484    0.00027710    0.00083305
     atom   17 type  2   force =     0.00005142    0.00001796    0.00035437
     atom   18 type  2   force =    -0.00000395    0.00000724    0.00023515
     atom   19 type  1   force =     0.00022511   -0.00002856    0.00080713
     atom   20 type  2   force =     0.00007378    0.00002981    0.00028410
     atom   21 type  1   force =     0.00014912   -0.00015947    0.00087505
     atom   22 type  2   force =     0.00006233   -0.00001304    0.00037726
     atom   23 type  2   force =     0.00003400   -0.00000756    0.00026656
     atom   24 type  1   force =     0.00005813    0.00009817    0.00058391
     atom   25 type  2   force =     0.00006354    0.00000492    0.00041579
     atom   26 type  2   force =    -0.00001203   -0.00001288    0.00019488
     atom   27 type  1   force =     0.00006537   -0.00002159    0.00076565
     atom   28 type  2   force =    -0.00001123    0.00003004    0.00033530
     atom   29 type  2   force =     0.00000691    0.00001614    0.00020330
     atom   30 type  1   force =    -0.00016594    0.00022849    0.00074283
     atom   31 type  2   force =     0.00003204    0.00004672    0.00042462
     atom   32 type  2   force =    -0.00000485    0.00002401    0.00021219
     atom   33 type  1   force =     0.00007886   -0.00023306    0.00068826
     atom   34 type  2   force =    -0.00003469   -0.00008161    0.00036226
     atom   35 type  2   force =    -0.00004569   -0.00001746    0.00031097
     atom   36 type  3   force =    -0.00002210   -0.00001698    0.00006103

     Total force =     0.083533     Total SCF correction =     0.003185
     Energy error            =      1.7E-02 Ry
     Gradient error          =      3.3E-02 Ry/Bohr

     number of scf cycles    =   2
     number of bfgs steps    =   1

     energy             old  =   -2205.5405897005 Ry
     energy             new  =   -2205.5572595515 Ry

     CASE: energy            _new < energy            _old

     new trust radius        =       0.0934679451 bohr
     new conv_thr            =       0.0000000333 Ry


ATOMIC_POSITIONS (angstrom)
Mo            6.5795285293        1.7581936877        2.8303466073
S             8.1024002394        0.7874585261        4.4883634963
S             8.1788686327        0.8273818831        1.2685363626
Mo            8.1083332430        4.4909040809        2.7191674322
S             6.4981242328        3.7169901095        4.3350371651
S             6.5563365353        3.5273646408        1.1236169471
Mo            6.4981956915        7.2041223980        2.6617270032
S             8.0840447003        6.3364160433        4.2644611635
S             8.0994059232        6.3141255549        1.0986224779
Mo            8.1577437811        9.9037836201        2.7968688009
S             6.5041101525        8.9488694930        4.3755207807
S             6.6155630909        9.0500684727        1.1432938450
Mo            3.4293509422        1.7543799507        2.7726670580
S             4.9844740062        0.8184323122        4.3623918129
S             5.0426791096        0.8504406180        1.2138881263
Mo            4.9771407929        4.5243385882        2.6386718964
S             3.4359136173        3.6724712659        4.2843798950
S             3.4318395484        3.5400633931        1.0759928145
Mo            3.4555134989        7.1948913501        2.6288018397
S             4.9892554629        6.3190097183        1.0360270538
Mo            5.0098285655        9.9100170131        2.7454676932
S             3.4670634004        8.9407149068        4.3205714452
S             3.4067015482        9.0680402633        1.1045333127
Mo            0.3171383227        1.7625399863        2.7902118414
S             1.8753388025        0.8189846156        4.4030754395
S             1.8458269853        0.8532115504        1.1977760880
Mo            1.8591537847        4.4980338066        2.6713032166
S             0.2759492946        3.6545508055        4.3296243892
S             0.2381920365        3.5268450462        1.1638411454
Mo            0.2653765963        7.2277187422        2.6999616858
S             1.9038179882        6.3128124987        4.2441287965
S             1.8489940186        6.3200807676        1.0548455138
Mo            1.8536165485        9.9394715839        2.7677495960
S             0.2977695219        9.0318070073        4.3943556229
S             0.2689756137        9.0523235385        1.1636709001
H             7.3650400317       10.9529885719        5.3568235551



     Writing config-only to output data dir ./MoS2-V-O.save/
     NEW-OLD atomic charge density approx. for the potential

     negative rho (up, down):  1.527E-04 0.000E+00

     total cpu time spent up to now is      185.1 secs

     Self-consistent Calculation

     iteration #  1     ecut=    80.00 Ry     beta= 0.70
     Davidson diagonalization with overlap
     ethr =  1.00E-06,  avg # of iterations = 17.0

     negative rho (up, down):  1.109E-04 0.000E+00

     total cpu time spent up to now is      204.9 secs

     total energy              =   -2205.56676397 Ry
     estimated scf accuracy    <       0.00236412 Ry

     iteration #  2     ecut=    80.00 Ry     beta= 0.70
     Davidson diagonalization with overlap
     ethr =  7.70E-07,  avg # of iterations =  3.0

     negative rho (up, down):  8.865E-05 0.000E+00

     total cpu time spent up to now is      219.0 secs

     total energy              =   -2205.56683706 Ry
     estimated scf accuracy    <       0.00043210 Ry

     iteration #  3     ecut=    80.00 Ry     beta= 0.70
     Davidson diagonalization with overlap
     ethr =  1.41E-07,  avg # of iterations =  6.0

     negative rho (up, down):  7.753E-05 0.000E+00

     total cpu time spent up to now is      236.5 secs

     total energy              =   -2205.56688020 Ry
     estimated scf accuracy    <       0.00014602 Ry

     iteration #  4     ecut=    80.00 Ry     beta= 0.70
     Davidson diagonalization with overlap
     ethr =  4.76E-08,  avg # of iterations =  2.0

     negative rho (up, down):  7.174E-05 0.000E+00

     total cpu time spent up to now is      252.5 secs

     total energy              =   -2205.56689357 Ry
     estimated scf accuracy    <       0.00000997 Ry

     iteration #  5     ecut=    80.00 Ry     beta= 0.70
     Davidson diagonalization with overlap
     ethr =  3.25E-09,  avg # of iterations =  5.0

     negative rho (up, down):  7.119E-05 0.000E+00

     total cpu time spent up to now is      269.5 secs

     total energy              =   -2205.56689803 Ry
     estimated scf accuracy    <       0.00000306 Ry

     iteration #  6     ecut=    80.00 Ry     beta= 0.70
     Davidson diagonalization with overlap
     ethr =  9.98E-10,  avg # of iterations =  5.0

     negative rho (up, down):  7.456E-05 0.000E+00

     total cpu time spent up to now is      283.3 secs

     total energy              =   -2205.56689823 Ry
     estimated scf accuracy    <       0.00000059 Ry

     iteration #  7     ecut=    80.00 Ry     beta= 0.70
     Davidson diagonalization with overlap
     ethr =  1.93E-10,  avg # of iterations = 10.0

     negative rho (up, down):  8.018E-05 0.000E+00

     total cpu time spent up to now is      297.3 secs

     total energy              =   -2205.56689826 Ry
     estimated scf accuracy    <       0.00000014 Ry

     iteration #  8     ecut=    80.00 Ry     beta= 0.70
     Davidson diagonalization with overlap
     ethr =  4.43E-11,  avg # of iterations =  4.0

     negative rho (up, down):  9.325E-05 0.000E+00

     total cpu time spent up to now is      310.3 secs

     total energy              =   -2205.56689818 Ry
     estimated scf accuracy    <       0.00000006 Ry

     iteration #  9     ecut=    80.00 Ry     beta= 0.70
     Davidson diagonalization with overlap
     ethr =  1.84E-11,  avg # of iterations =  4.0

     negative rho (up, down):  1.379E-04 0.000E+00

     total cpu time spent up to now is      312.4 secs

     End of self-consistent calculation

          k = 0.0000 0.0000 0.0000 (105382 PWs)   bands (ev):

   -62.8473 -62.8428 -62.8176 -62.8102 -62.8021 -62.7954 -62.7846 -62.7688
   -62.7538 -62.7055 -62.6892 -62.6750 -37.1832 -37.1178 -37.1063 -37.0975
   -37.0915 -37.0608 -37.0457 -37.0399 -37.0340 -37.0241 -37.0231 -37.0059
   -37.0004 -36.9908 -36.9851 -36.9748 -36.9721 -36.9642 -36.9605 -36.9495
   -36.9207 -36.9089 -36.8951 -36.8835 -36.8637 -36.8589 -36.8549 -36.8504
   -36.8391 -36.8344 -36.8218 -36.8127 -36.8070 -36.7671 -36.6809 -36.6434
   -16.1346 -15.5814 -15.1525 -15.0379 -14.8978 -14.8406 -14.6535 -14.4606
   -14.4226 -14.3954 -14.3577 -14.3515 -14.3066 -14.2591 -14.1475 -14.1083
   -14.0865 -14.0735 -13.9998 -13.8890 -13.8160 -13.7982 -13.7648  -8.7222
    -7.5913  -7.3859  -7.2622  -7.2422  -7.2072  -7.1546  -7.1171  -7.0539
    -6.8112  -6.7627  -6.7229  -6.6676  -6.5608  -6.4935  -6.4646  -6.3998
    -6.3232  -6.2470  -6.1047  -5.9412  -5.9158  -5.8507  -5.8055  -5.7567
    -5.7427  -5.6908  -5.6539  -5.6255  -5.5985  -5.5378  -5.4973  -5.4248
    -5.3414  -5.3027  -5.2103  -5.1152  -5.0209  -4.9980  -4.9582  -4.9315
    -4.9030  -4.8014  -4.6105  -4.5618  -4.4319  -4.3050  -4.2609  -4.2160
    -4.1802  -4.0599  -4.0245  -3.8987  -3.8187  -3.7228  -3.7117  -3.6756
    -3.6381  -3.5854  -3.5226  -3.4945  -3.4657  -3.4304  -3.3939  -3.3493
    -3.3220  -3.1845  -3.1173  -2.8762  -2.8393  -2.7537  -2.7371  -2.6904
    -2.6841  -2.6696  -2.6564  -2.5784  -2.5075  -2.2390  -2.0267  -1.9568
    -1.9223  -0.8806  -0.7127  -0.6098  -0.1314  -0.0973  -0.0881  -0.0308
     0.0928   0.1388   0.1693   0.2926   0.3092   0.3413   0.3692   0.4965
     0.5243   0.5845   0.6093   0.6233   0.6613   0.6957   0.7563   0.7847
     0.8166   0.8521   0.8704   0.9389   0.9966   1.0181   1.0531   1.2636
     1.4076

     the Fermi energy is    -0.8891 ev

!    total energy              =   -2205.56689802 Ry
     estimated scf accuracy    <       0.00000002 Ry
     smearing contrib. (-TS)   =      -0.00675334 Ry
     internal energy E=F+TS    =   -2205.56014468 Ry

     The total energy is F=E-TS. E is the sum of the following terms:
     one-electron contribution =  -18045.08851667 Ry
     hartree contribution      =    9009.63340035 Ry
     xc contribution           =    -385.34528398 Ry
     ewald contribution        =    7215.24025562 Ry

     convergence has been achieved in   9 iterations

     negative rho (up, down):  1.379E-04 0.000E+00

     Forces acting on atoms (cartesian axes, Ry/au):

     atom    1 type  1   force =    -0.00647746   -0.00075884   -0.00249966
     atom    2 type  2   force =     0.00210376    0.00597860   -0.00343958
     atom    3 type  2   force =    -0.00488133    0.00718473   -0.00979633
     atom    4 type  1   force =     0.00517239    0.00040398    0.00119189
     atom    5 type  2   force =     0.00116779   -0.00420022   -0.00521293
     atom    6 type  2   force =     0.00081964    0.00309423    0.00445417
     atom    7 type  1   force =     0.00380076   -0.00388076    0.00324006
     atom    8 type  2   force =     0.00069849   -0.00408776    0.00610874
     atom    9 type  2   force =     0.00838031    0.00208454    0.00327515
     atom   10 type  1   force =    -0.00038485    0.00521555    0.00640285
     atom   11 type  2   force =     0.00478585   -0.00287546   -0.01105988
     atom   12 type  2   force =    -0.00464481   -0.00095568   -0.00329275
     atom   13 type  1   force =     0.00280948   -0.00099449   -0.00048929
     atom   14 type  2   force =    -0.00047456    0.00037955    0.00298344
     atom   15 type  2   force =    -0.00365283    0.00060271   -0.00445801
     atom   16 type  1   force =    -0.00011416    0.00412949    0.00171117
     atom   17 type  2   force =     0.00342012    0.00127712    0.00392969
     atom   18 type  2   force =    -0.00132289    0.00012979    0.00624643
     atom   19 type  1   force =    -0.00014643   -0.00536464    0.00194937
     atom   20 type  2   force =     0.00234257   -0.00334324   -0.00352260
     atom   21 type  1   force =    -0.00168745    0.00223030    0.00050728
     atom   22 type  2   force =    -0.00042367   -0.00253199   -0.00354984
     atom   23 type  2   force =     0.00091033   -0.00140820    0.00359050
     atom   24 type  1   force =    -0.00377750   -0.00056490   -0.00193891
     atom   25 type  2   force =     0.00295370    0.01017748   -0.00581197
     atom   26 type  2   force =     0.00339949   -0.00131474   -0.00943514
     atom   27 type  1   force =    -0.00032331    0.00221401    0.00351792
     atom   28 type  2   force =     0.00186724   -0.00542220   -0.00455959
     atom   29 type  2   force =     0.00558820    0.00632905   -0.00958043
     atom   30 type  1   force =     0.00106098   -0.00444476    0.00553375
     atom   31 type  2   force =     0.00023462   -0.00021011    0.00722976
     atom   32 type  2   force =    -0.00473194    0.00349171    0.00423468
     atom   33 type  1   force =    -0.00212466    0.00310989    0.00419266
     atom   34 type  2   force =    -0.00239518   -0.01455145   -0.01301687
     atom   35 type  2   force =     0.00079776    0.00375548   -0.00285289
     atom   36 type  3   force =    -0.01475046   -0.00487879    0.02421718
     The non-local contrib.  to forces
     atom    1 type  1   force =     0.00418113    0.02709727   -0.01361718
     atom    2 type  2   force =    -0.18171812   -0.15628131   -0.03170606
     atom    3 type  2   force =    -0.00668274   -0.00861660    0.26924265
     atom    4 type  1   force =     0.00377490    0.01262928    0.00279734
     atom    5 type  2   force =     0.00831090   -0.03602600   -0.25139280
     atom    6 type  2   force =    -0.00273205    0.00215798    0.26821723
     atom    7 type  1   force =    -0.02446537   -0.00408008   -0.02312526
     atom    8 type  2   force =     0.00608491   -0.00686875   -0.26149316
     atom    9 type  2   force =     0.00266262   -0.01112236    0.27200051
     atom   10 type  1   force =     0.00433078   -0.00204676   -0.00149405
     atom   11 type  2   force =     0.00984089    0.00593855   -0.23629605
     atom   12 type  2   force =    -0.01045180   -0.01900888    0.26088412
     atom   13 type  1   force =    -0.00064171    0.02558504   -0.00384842
     atom   14 type  2   force =     0.00598504   -0.01116570   -0.25745608
     atom   15 type  2   force =    -0.00470284   -0.00488833    0.26059495
     atom   16 type  1   force =    -0.00491336    0.03867816   -0.02819264
     atom   17 type  2   force =     0.00215179   -0.02747351   -0.25119628
     atom   18 type  2   force =    -0.00348506    0.00036715    0.27014279
     atom   19 type  1   force =     0.01890412    0.00162631   -0.02015658
     atom   20 type  2   force =    -0.00172952   -0.01909701    0.26174121
     atom   21 type  1   force =     0.00087142    0.02187156    0.00270139
     atom   22 type  2   force =    -0.00664988    0.00248410   -0.25889600
     atom   23 type  2   force =     0.00965202   -0.01735405    0.26896994
     atom   24 type  1   force =     0.00071089    0.01823218   -0.01205173
     atom   25 type  2   force =     0.01329306   -0.00180638   -0.25671184
     atom   26 type  2   force =     0.00500721   -0.00781048    0.26213818
     atom   27 type  1   force =    -0.00233400    0.01050988    0.00595604
     atom   28 type  2   force =    -0.00082677   -0.01519881   -0.26746407
     atom   29 type  2   force =     0.00987259    0.00150486    0.26256547
     atom   30 type  1   force =     0.00053220    0.01819511    0.00636655
     atom   31 type  2   force =    -0.01169646    0.00108358   -0.25899292
     atom   32 type  2   force =    -0.00059489   -0.01227715    0.27083067
     atom   33 type  1   force =     0.00024042    0.00348132    0.00190492
     atom   34 type  2   force =    -0.00958248   -0.01429991   -0.27066679
     atom   35 type  2   force =     0.00192538   -0.01190828    0.26251041
     atom   36 type  3   force =     0.03082788    0.03299172   -0.03718447
     The ionic contribution  to forces
     atom    1 type  1   force =     0.43109533    1.25115441    5.48061180
     atom    2 type  2   force =     1.17950560    1.35778486   38.38964875
     atom    3 type  2   force =    -0.18396021    0.12808007  -36.22223879
     atom    4 type  1   force =    -0.20722783    0.47121616    0.89861608
     atom    5 type  2   force =    -0.89870486    1.57530679   38.46901504
     atom    6 type  2   force =     0.26198270   -0.56424380  -37.77811456
     atom    7 type  1   force =    -2.84510953   -2.61418691    2.29014092
     atom    8 type  2   force =    -1.05039876   -0.02488458   37.64315085
     atom    9 type  2   force =     0.29761119   -0.18401584  -37.92166047
     atom   10 type  1   force =    -0.34848087   -0.06860376    3.56232398
     atom   11 type  2   force =    -0.67495129   -2.13468051   38.73921751
[...]
     atom   27 type  1   force =    -0.00335400    0.00785200    0.00363125
     atom   28 type  2   force =     0.00074482    0.00028950   -0.26420969
     atom   29 type  2   force =     0.00243661   -0.01126620    0.26868069
     atom   30 type  1   force =     0.00304498    0.01843516    0.00518340
     atom   31 type  2   force =    -0.01055086    0.00366288   -0.26324143
     atom   32 type  2   force =     0.00212422   -0.01422645    0.26741626
     atom   33 type  1   force =    -0.00005371    0.00647962    0.00442546
     atom   34 type  2   force =    -0.00722959   -0.00628850   -0.26726282
     atom   35 type  2   force =     0.00340832   -0.01470002    0.26624631
     atom   36 type  3   force =     0.03332921    0.02024622   -0.03845236
     The ionic contribution  to forces
     atom    1 type  1   force =     0.62918994    1.23616824    4.76538806
     atom    2 type  2   force =     1.66743369    1.24192713   38.66255564
     atom    3 type  2   force =    -0.18716084   -0.12413121  -36.79096116
     atom    4 type  1   force =    -0.42442905    0.22888715    0.29411653
     atom    5 type  2   force =    -0.72997739    1.41906112   38.28721628
     atom    6 type  2   force =     0.15605182   -0.44867084  -37.53456688
     atom    7 type  1   force =    -2.83317350   -2.02501264    2.58220909
     atom    8 type  2   force =    -1.13120031    0.04014865   38.10198421
     atom    9 type  2   force =     0.18216288    0.00771696  -37.88081644
     atom   10 type  1   force =     0.01891377   -0.07864391    4.23987892
     atom   11 type  2   force =    -0.72740149   -2.02491122   38.39922411
     atom   12 type  2   force =     0.18033727    0.30293596  -37.64477207
     atom   13 type  1   force =     0.25345320    0.74117833    1.87448877
     atom   14 type  2   force =    -0.61977189    0.05731751   38.42507931
     atom   15 type  2   force =     0.18864345   -0.04590263  -37.38773913
     atom   16 type  1   force =     0.29386068    3.44990367    2.48783566
     atom   17 type  2   force =     0.73160364    1.18539672   38.33365299
     atom   18 type  2   force =     0.05785094   -0.29687163  -38.06890517
     atom   19 type  1   force =     3.05775560   -1.56580966    2.69612382
     atom   20 type  2   force =     0.08762193    0.03744021  -38.44248866
     atom   21 type  1   force =    -0.21757736   -0.75588456    1.02009792
     atom   22 type  2   force =     0.33982330   -1.51075137   38.28912135
     atom   23 type  2   force =    -0.06957614    0.21846106  -37.81081409
     atom   24 type  1   force =    -1.38292278   -0.18798266   -0.30846648
     atom   25 type  2   force =    -0.03918789    0.12969960   38.49430902
     atom   26 type  2   force =     0.08311054   -0.27459427  -38.12017845
     atom   27 type  1   force =     0.14100639    0.44075522   -0.03196959
     atom   28 type  2   force =    -0.04481942    0.29867210   37.89109630
     atom   29 type  2   force =    -0.23284018    0.08417888  -38.13168723
     atom   30 type  1   force =    -0.08699486   -0.65426581    1.59270534
     atom   31 type  2   force =     1.13500651    0.08958623   38.34926350
     atom   32 type  2   force =    -0.32818025    0.09525455  -38.13902040
     atom   33 type  1   force =     0.42638481   -0.49038135    1.89493495
     atom   34 type  2   force =     0.30242678   -0.60247572   38.75378364
     atom   35 type  2   force =    -0.16601665    0.21376917  -37.46375438
     atom   36 type  3   force =    -0.71140714   -0.43216901    8.32107472
     The local contribution  to forces
     atom    1 type  1   force =    -0.63128864   -1.25946013   -4.75572021
     atom    2 type  2   force =    -1.43165613   -1.12133400  -38.64968855
     atom    3 type  2   force =     0.18769034    0.13492087   36.54009825
     atom    4 type  1   force =     0.41735050   -0.23815374   -0.29773833
     atom    5 type  2   force =     0.72655198   -1.39115243  -38.05754079
     atom    6 type  2   force =    -0.15609374    0.45036462   37.28836685
     atom    7 type  1   force =     2.85198249    2.02673249   -2.55654504
     atom    8 type  2   force =     1.12471599   -0.03888891  -37.85815062
     atom    9 type  2   force =    -0.17698532    0.00438530   37.63425077
     atom   10 type  1   force =    -0.02238416    0.07123462   -4.23712663
     atom   11 type  2   force =     0.72259025    2.01973531  -38.17637520
     atom   12 type  2   force =    -0.17387405   -0.28500922   37.39940026
     atom   13 type  1   force =    -0.25043673   -0.76459096   -1.87340507
     atom   14 type  2   force =     0.61700326   -0.04523702  -38.19325174
     atom   15 type  2   force =    -0.18484283    0.05336299   37.14612529
     atom   16 type  1   force =    -0.28878208   -3.48897012   -2.45436486
     atom   17 type  2   force =    -0.73134474   -1.16378148  -38.09902726
     atom   18 type  2   force =    -0.05427232    0.30078588   37.82261295
     atom   19 type  1   force =    -3.07544862    1.56005264   -2.67082670
     atom   20 type  2   force =    -0.08634702   -0.02463937   38.20038116
     atom   21 type  1   force =     0.21860056    0.73185444   -1.02230064
     atom   22 type  2   force =    -0.33348410    1.51120779  -38.05258563
     atom   23 type  2   force =     0.06097620   -0.20764573   37.56344161
     atom   24 type  1   force =     1.38849763    0.17376706    0.30871992
     atom   25 type  2   force =     0.02389799   -0.11622188  -38.26100700
     atom   26 type  2   force =    -0.08268517    0.27824901   37.87345864
     atom   27 type  1   force =    -0.13768728   -0.44902690    0.02812378
     atom   28 type  2   force =     0.04388998   -0.29873138  -37.64761990
     atom   29 type  2   force =     0.23036674   -0.07357616   37.88340397
     atom   30 type  1   force =     0.08397475    0.63574601   -1.59759194
     atom   31 type  2   force =    -1.12524497   -0.09265720  -38.10748406
     atom   32 type  2   force =     0.32542726   -0.08224212   37.89323225
     atom   33 type  1   force =    -0.42630045    0.48332834   -1.89864913
     atom   34 type  2   force =    -0.29609772    0.60824724  -38.50652561
     atom   35 type  2   force =     0.16355642   -0.20073912   37.21848707
     atom   36 type  3   force =     0.67710021    0.41270870   -8.28185938
     The core correction contribution to forces
     atom    1 type  1   force =     0.00000000    0.00000000    0.00000000
     atom    2 type  2   force =     0.01628669    0.00859911    0.00308500
     atom    3 type  2   force =    -0.00031758    0.00021196   -0.02112550
     atom    4 type  1   force =     0.00000000    0.00000000    0.00000000
     atom    5 type  2   force =    -0.00026575    0.00159408    0.01999077
     atom    6 type  2   force =     0.00009014   -0.00048016   -0.02080411
     atom    7 type  1   force =     0.00000000    0.00000000    0.00000000
     atom    8 type  2   force =    -0.00033597    0.00032872    0.02077049
     atom    9 type  2   force =     0.00051620    0.00068180   -0.02091885
     atom   10 type  1   force =     0.00000000    0.00000000    0.00000000
     atom   11 type  2   force =    -0.00030411   -0.00084242    0.01955912
     atom   12 type  2   force =     0.00063965    0.00128236   -0.02086340
     atom   13 type  1   force =     0.00000000    0.00000000    0.00000000
     atom   14 type  2   force =    -0.00064350    0.00021474    0.02006198
     atom   15 type  2   force =     0.00035729    0.00032484   -0.02073042
     atom   16 type  1   force =     0.00000000    0.00000000    0.00000000
     atom   17 type  2   force =     0.00006668    0.00095545    0.02035976
     atom   18 type  2   force =     0.00009184   -0.00022342   -0.02087126
     atom   19 type  1   force =     0.00000000    0.00000000    0.00000000
     atom   20 type  2   force =     0.00001955    0.00059687   -0.02115981
     atom   21 type  1   force =     0.00000000    0.00000000    0.00000000
     atom   22 type  2   force =     0.00000962   -0.00011882    0.02035699
     atom   23 type  2   force =    -0.00067319    0.00077624   -0.02088513
     atom   24 type  1   force =     0.00000000    0.00000000    0.00000000
     atom   25 type  2   force =    -0.00088511    0.00071706    0.02025259
     atom   26 type  2   force =     0.00025498    0.00000936   -0.02096167
     atom   27 type  1   force =     0.00000000    0.00000000    0.00000000
     atom   28 type  2   force =     0.00008845    0.00007348    0.02072854
     atom   29 type  2   force =    -0.00011600    0.00058377   -0.02091579
     atom   30 type  1   force =     0.00000000    0.00000000    0.00000000
     atom   31 type  2   force =     0.00044783    0.00004383    0.02077205
     atom   32 type  2   force =    -0.00041404    0.00072757   -0.02095485
     atom   33 type  1   force =     0.00000000    0.00000000    0.00000000
     atom   34 type  2   force =     0.00059562    0.00005764    0.02086155
     atom   35 type  2   force =    -0.00035071    0.00091997   -0.02091169
     atom   36 type  3   force =     0.00000000    0.00000000    0.00000000
     The Hubbard contrib.    to forces
     atom    1 type  1   force =     0.00000000    0.00000000    0.00000000
     atom    2 type  2   force =     0.00000000    0.00000000    0.00000000
     atom    3 type  2   force =     0.00000000    0.00000000    0.00000000
     atom    4 type  1   force =     0.00000000    0.00000000    0.00000000
     atom    5 type  2   force =     0.00000000    0.00000000    0.00000000
     atom    6 type  2   force =     0.00000000    0.00000000    0.00000000
     atom    7 type  1   force =     0.00000000    0.00000000    0.00000000
     atom    8 type  2   force =     0.00000000    0.00000000    0.00000000
     atom    9 type  2   force =     0.00000000    0.00000000    0.00000000
     atom   10 type  1   force =     0.00000000    0.00000000    0.00000000
     atom   11 type  2   force =     0.00000000    0.00000000    0.00000000
     atom   12 type  2   force =     0.00000000    0.00000000    0.00000000
     atom   13 type  1   force =     0.00000000    0.00000000    0.00000000
     atom   14 type  2   force =     0.00000000    0.00000000    0.00000000
     atom   15 type  2   force =     0.00000000    0.00000000    0.00000000
     atom   16 type  1   force =     0.00000000    0.00000000    0.00000000
     atom   17 type  2   force =     0.00000000    0.00000000    0.00000000
     atom   18 type  2   force =     0.00000000    0.00000000    0.00000000
     atom   19 type  1   force =     0.00000000    0.00000000    0.00000000
     atom   20 type  2   force =     0.00000000    0.00000000    0.00000000
     atom   21 type  1   force =     0.00000000    0.00000000    0.00000000
     atom   22 type  2   force =     0.00000000    0.00000000    0.00000000
     atom   23 type  2   force =     0.00000000    0.00000000    0.00000000
     atom   24 type  1   force =     0.00000000    0.00000000    0.00000000
     atom   25 type  2   force =     0.00000000    0.00000000    0.00000000
     atom   26 type  2   force =     0.00000000    0.00000000    0.00000000
     atom   27 type  1   force =     0.00000000    0.00000000    0.00000000
     atom   28 type  2   force =     0.00000000    0.00000000    0.00000000
     atom   29 type  2   force =     0.00000000    0.00000000    0.00000000
     atom   30 type  1   force =     0.00000000    0.00000000    0.00000000
     atom   31 type  2   force =     0.00000000    0.00000000    0.00000000
     atom   32 type  2   force =     0.00000000    0.00000000    0.00000000
     atom   33 type  1   force =     0.00000000    0.00000000    0.00000000
     atom   34 type  2   force =     0.00000000    0.00000000    0.00000000
     atom   35 type  2   force =     0.00000000    0.00000000    0.00000000
     atom   36 type  3   force =     0.00000000    0.00000000    0.00000000
     The SCF correction term to forces
     atom    1 type  1   force =     0.00003313   -0.00001820   -0.00000380
     atom    2 type  2   force =     0.00002481   -0.00002170   -0.00001472
     atom    3 type  2   force =     0.00000671   -0.00002490    0.00000859
     atom    4 type  1   force =    -0.00000026   -0.00000673    0.00000668
     atom    5 type  2   force =    -0.00000034    0.00000611    0.00001105
     atom    6 type  2   force =     0.00001013    0.00000683    0.00000171
     atom    7 type  1   force =     0.00000928    0.00002097   -0.00001331
     atom    8 type  2   force =     0.00000145   -0.00000151   -0.00000175
     atom    9 type  2   force =     0.00000407    0.00000601   -0.00000616
     atom   10 type  1   force =     0.00000208    0.00001556    0.00000596
     atom   11 type  2   force =    -0.00000119    0.00001572   -0.00001790
     atom   12 type  2   force =    -0.00000026   -0.00000214    0.00000492
     atom   13 type  1   force =     0.00001396   -0.00003620    0.00001231
     atom   14 type  2   force =    -0.00001032   -0.00001300    0.00001963
     atom   15 type  2   force =    -0.00000228   -0.00001888   -0.00000138
     atom   16 type  1   force =     0.00001155   -0.00001339    0.00001920
     atom   17 type  2   force =     0.00000980    0.00000305    0.00001795
     atom   18 type  2   force =    -0.00000090    0.00000430   -0.00000568
     atom   19 type  1   force =     0.00001927    0.00002422   -0.00001561
     atom   20 type  2   force =     0.00001317    0.00001557   -0.00000965
     atom   21 type  1   force =     0.00000551   -0.00001300    0.00001354
     atom   22 type  2   force =     0.00001011    0.00000860   -0.00000549
     atom   23 type  2   force =     0.00000590    0.00000186    0.00000569
     atom   24 type  1   force =    -0.00001152   -0.00003889    0.00004450
     atom   25 type  2   force =    -0.00000613   -0.00000195    0.00000408
     atom   26 type  2   force =    -0.00000238   -0.00002123    0.00000192
     atom   27 type  1   force =    -0.00000614    0.00000799   -0.00000754
     atom   28 type  2   force =    -0.00001441   -0.00000510    0.00001064
     atom   29 type  2   force =    -0.00001265    0.00001374   -0.00000720
     atom   30 type  1   force =    -0.00000316   -0.00001083   -0.00001184
     atom   31 type  2   force =    -0.00001041    0.00000545    0.00001035
     atom   32 type  2   force =    -0.00001842    0.00000973   -0.00000765
     atom   33 type  1   force =    -0.00001508    0.00000017   -0.00000375
     atom   34 type  2   force =    -0.00000723    0.00001193   -0.00000213
     atom   35 type  2   force =    -0.00000454    0.00001032   -0.00000295
     atom   36 type  3   force =    -0.00000093   -0.00000212    0.00000196

     Total force =     0.005642     Total SCF correction =     0.000136
     Energy error            =      6.7E-05 Ry
     Gradient error          =      1.8E-03 Ry/Bohr

     bfgs converged in  20 scf cycles and  19 bfgs steps
     (criteria: energy <  1.0E-04 Ry, force <  1.0E-02 Ry/Bohr)

     End of BFGS Geometry Optimization

     Final energy             =   -2205.5811110682 Ry

     File ./MoS2-V-O.bfgs deleted, as requested
Begin final coordinates

ATOMIC_POSITIONS (angstrom)
Mo            6.5670611844        1.7390588374        2.8099337732
S             8.0526613415        0.7610822251        4.5376543850
S             8.1341908213        0.8313892156        1.2141975435
Mo            8.1472466716        4.4801920506        2.7063523511
S             6.5401721482        3.6795179172        4.3211535424
S             6.5639829144        3.5387895207        1.1377090365
Mo            6.5308144683        7.1703066712        2.6710045966
S             8.1079670894        6.2928019587        4.2963865960
S             8.1511354782        6.3184832686        1.1097952895
Mo            8.1394132663        9.9256993463        2.8052968901
S             6.5090746884        8.9227352304        4.3403286553
S             6.6073575703        9.0302669597        1.1469577595
Mo            3.4320590654        1.7558329839        2.7468427109
S             4.9646877853        0.8117660797        4.3486773515
S             5.0258113913        0.8350606247        1.1786517168
Mo            5.0021844408        4.5352676601        2.6683084075
S             3.4650399132        3.6596836602        4.3065347999
S             3.4520467875        3.5638531085        1.1040921486
Mo            3.4678444108        7.1755265746        2.6682025843
S             5.0040829279        6.3066601471        1.0527734408
Mo            4.9970724335        9.9037519408        2.7370534430
S             3.4466613694        8.9603243186        4.3146271163
S             3.4062144953        9.0358118791        1.1250118405
Mo            0.3042567233        1.7626670904        2.6974501027
S             1.8410701447        0.8620802045        4.3380513726
S             1.8689271967        0.8465783533        1.1291621952
Mo            1.8811035368        4.5027885358        2.6949464236
S             0.2913005048        3.5938541755        4.2924824006
S             0.2905733364        3.5704371289        1.1083986208
Mo            0.2803840855        7.2147191775        2.7294828314
S             1.9154409661        6.2976462291        4.3038372708
S             1.8642901391        6.3368674696        1.0959898901
Mo            1.8442071242        9.9511240396        2.7495529743
S             0.2921265764        9.0135480018        4.3627928644
S             0.2549741895        9.0529818894        1.1702635273
H             7.1841676035       11.1706919365        5.5063663669
End final coordinates



     Writing all to output data dir ./MoS2-V-O.save/
 
     init_run     :      2.36s CPU      2.67s WALL (       1 calls)
     electrons    :   1509.64s CPU   1679.81s WALL (      20 calls)
     update_pot   :     26.68s CPU     28.00s WALL (      19 calls)
     forces       :     26.58s CPU     30.75s WALL (      20 calls)

     Called by init_run:
     wfcinit      :      0.37s CPU      0.43s WALL (       1 calls)
     potinit      :      1.31s CPU      1.44s WALL (       1 calls)
     hinit0       :      0.17s CPU      0.19s WALL (       1 calls)

     Called by electrons:
     c_bands      :    203.96s CPU    207.65s WALL (     158 calls)
     sum_band     :     46.43s CPU     58.82s WALL (     158 calls)
     v_of_rho     :     64.19s CPU     77.91s WALL (     164 calls)
     newd         :     21.58s CPU     33.38s WALL (     164 calls)
     mix_rho      :   1181.90s CPU   1310.35s WALL (     158 calls)

     Called by c_bands:
     init_us_2    :      3.36s CPU      3.65s WALL (     317 calls)
     init_us_2:cp :      3.36s CPU      3.64s WALL (     317 calls)
     regterg      :    192.16s CPU    195.55s WALL (     158 calls)

     Called by *egterg:
     rdiaghg      :     14.78s CPU     14.96s WALL (     835 calls)
     h_psi        :    107.97s CPU    109.02s WALL (     869 calls)
     s_psi        :     13.37s CPU     13.41s WALL (     869 calls)
     g_psi        :      1.02s CPU      1.03s WALL (     710 calls)

     Called by h_psi:
     h_psi:calbec :     15.30s CPU     15.38s WALL (     869 calls)
     vloc_psi     :     77.33s CPU     78.16s WALL (     869 calls)
     add_vuspsi   :     13.41s CPU     13.55s WALL (     869 calls)

     General routines
     calbec       :     21.94s CPU     22.05s WALL (    1107 calls)
     fft          :     42.27s CPU     49.94s WALL (   11177 calls)
     ffts         :    532.44s CPU    656.56s WALL (  288736 calls)
     fftw         :     66.18s CPU     66.78s WALL (   97948 calls)
     interpolate  :      1.18s CPU      1.38s WALL (     164 calls)
 
     Parallel routines
 
     PWSCF        :  26m 8.82s CPU  29m 7.36s WALL

 
   This run was terminated on:  12: 6: 4   4Nov2023            

=------------------------------------------------------------------------------=
   JOB DONE.
=------------------------------------------------------------------------------=
