
     Program PWSCF v.7.2 starts on  3Nov2023 at 21:25:58 

     This program is part of the open-source Quantum ESPRESSO suite
     for quantum simulation of materials; please cite
         "P. Giannozzi et al., J. Phys.:Condens. Matter 21 395502 (2009);
         "P. Giannozzi et al., J. Phys.:Condens. Matter 29 465901 (2017);
         "P. Giannozzi et al., J. Chem. Phys. 152 154105 (2020);
          URL http://www.quantum-espresso.org", 
     in publications or presentations arising from this work. More details at
     http://www.quantum-espresso.org/quote

     Parallel version (MPI & OpenMP), running on      48 processor cores
     Number of MPI processes:                48
     Threads/MPI process:                     1

     MPI processes distributed on     1 nodes
     65558 MiB available memory on the printing compute node when the environment starts
 
     Waiting for input...
     Reading input from standard input
Warning: card &CELL ignored
Warning: card CELL_DYNAMICS = 'BFGS', ignored
Warning: card CELL_DOFREE = '2DXY' ignored
Warning: card / ignored

     Current dimensions of program PWSCF are:
     Max number of different atomic species (ntypx) = 10
     Max number of k-points (npk) =  40000
     Max angular momentum in pseudopotentials (lmaxx) =  4

     IMPORTANT: XC functional enforced from input :
     Exchange-correlation= RVV10
                           (   1   4  13   4  26   0   0)
     Any further DFT definition will be discarded
     Please, verify this is what you really want


     gamma-point specific algorithms are used
     signal trapping enabled: kill the code with -SIGUSR1 to stop cleanly the simulation 
 
     R & G space division:  proc/nbgrp/npool/nimage =      48
     Subspace diagonalization in iterative solution of the eigenvalue problem:
     one sub-group per band group will be used
     scalapack distributed-memory algorithm (size of sub-group:  2*  2 procs)

 
     Parallelization info
     --------------------
     sticks:   dense  smooth     PW     G-vecs:    dense   smooth      PW
     Min         243     194     47                49060    35090    4376
     Max         246     196     50                49086    35128    4410
     Sum       11735    9389   2349              2355467  1685513  210763
 
     Using Slab Decomposition
 


     bravais-lattice index     =            0
     lattice parameter (alat)  =      17.8707  a.u.
     unit-cell volume          =   17436.2743 (a.u.)^3
     number of atoms/cell      =           36
     number of atomic types    =            3
     number of electrons       =       307.00
     number of Kohn-Sham states=          185
     kinetic-energy cutoff     =      80.0000  Ry
     charge density cutoff     =     400.0000  Ry
     scf convergence threshold =      1.0E-06
     mixing beta               =       0.7000
     number of iterations used =            8  local-TF  mixing
     energy convergence thresh.=      1.0E-04
     force convergence thresh. =      1.0E-02
     Exchange-correlation= RVV10
                           (   1   4  13   4  26   0   0)
     nstep                     =          200


     celldm(1)=  17.870686  celldm(2)=   0.000000  celldm(3)=   0.000000
     celldm(4)=   0.000000  celldm(5)=   0.000000  celldm(6)=   0.000000

     crystal axes: (cart. coord. in units of alat)
               a(1) = (   1.000000   0.000000   0.000000 )  
               a(2) = (   0.000000   1.155671   0.000000 )  
               a(3) = (   0.000000   0.000000   2.643601 )  

     reciprocal axes: (cart. coord. in units 2 pi/alat)
               b(1) = (  1.000000  0.000000  0.000000 )  
               b(2) = (  0.000000  0.865298  0.000000 )  
               b(3) = (  0.000000  0.000000  0.378272 )  


     PseudoPot. # 1 for Mo read from file:
     ../pseudo/Mo_ONCV_PBE-1.0.oncvpsp.upf
     MD5 check sum: 1b5d28e075c9ccadda658a603575cd1f
     Pseudo is Norm-conserving, Zval = 14.0
     Generated using ONCVPSP code by D. R. Hamann
     Using radial grid of 1526 points,  6 beta functions with: 
                l(1) =   0
                l(2) =   0
                l(3) =   1
                l(4) =   1
                l(5) =   2
                l(6) =   2

     PseudoPot. # 2 for S  read from file:
     ../pseudo/s_pbe_v1.4.uspp.F.UPF
     MD5 check sum: 88d86576ff6df21479756cfb9bdac1df
     Pseudo is Ultrasoft + core correction, Zval =  6.0
     Generated by new atomic code, or converted to UPF format
     Using radial grid of  907 points,  6 beta functions with: 
                l(1) =   0
                l(2) =   0
                l(3) =   1
                l(4) =   1
                l(5) =   2
                l(6) =   2
     Q(r) pseudized with  8 coefficients,  rinner =    1.300   1.300   1.300
                                                       1.300   1.300

     PseudoPot. # 3 for H  read from file:
     ../pseudo/H_ONCV_PBE-1.0.oncvpsp.upf
     MD5 check sum: 1790becc920ee074925cf490c71280fe
     Pseudo is Norm-conserving, Zval =  1.0
     Generated using ONCVPSP code by D. R. Hamann
     Using radial grid of 1166 points,  2 beta functions with: 
                l(1) =   0
                l(2) =   0

     atomic species   valence    mass     pseudopotential
        Mo            14.00    95.94000     Mo( 1.00)
        S              6.00    32.06500     S ( 1.00)
        H              1.00     1.00794     H ( 1.00)

     No symmetry found



   Cartesian axes

     site n.     atom                  positions (alat units)
         1           Mo  tau(   1) = (   0.6952221   0.1890506   0.2985846  )
         2           S   tau(   2) = (   0.8646417   0.0856217   0.4689279  )
         3           S   tau(   3) = (   0.8663890   0.0857843   0.1351291  )
         4           Mo  tau(   4) = (   0.8560186   0.4753274   0.2873942  )
         5           S   tau(   5) = (   0.6873294   0.3936244   0.4596353  )
         6           S   tau(   6) = (   0.6929804   0.3713468   0.1185692  )
         7           Mo  tau(   7) = (   0.6862796   0.7633098   0.2825370  )
         8           S   tau(   8) = (   0.8545980   0.6708292   0.4486168  )
         9           S   tau(   9) = (   0.8545123   0.6666874   0.1146125  )
        10           Mo  tau(  10) = (   0.8629403   1.0471007   0.3006803  )
        11           S   tau(  11) = (   0.6868280   0.9456650   0.4634891  )
        12           S   tau(  12) = (   0.6998113   0.9568511   0.1205389  )
        13           Mo  tau(  13) = (   0.3618216   0.1847309   0.2935964  )
        14           S   tau(  14) = (   0.5260962   0.0863870   0.4600448  )
        15           S   tau(  15) = (   0.5348379   0.0894875   0.1297123  )
        16           Mo  tau(  16) = (   0.5265817   0.4772436   0.2784130  )
        17           S   tau(  17) = (   0.3624753   0.3882513   0.4525556  )
        18           S   tau(  18) = (   0.3635411   0.3752055   0.1119148  )
        19           Mo  tau(  19) = (   0.3652268   0.7630864   0.2781795  )
        20           S   tau(  20) = (   0.5269494   0.6690381   0.1096838  )
        21           Mo  tau(  21) = (   0.5300192   1.0470394   0.2900995  )
        22           S   tau(  22) = (   0.3670346   0.9457522   0.4574073  )
        23           S   tau(  23) = (   0.3604225   0.9585725   0.1159032  )
        24           Mo  tau(  24) = (   0.0313099   0.1847895   0.3013130  )
        25           S   tau(  25) = (   0.1956761   0.0838230   0.4650863  )
        26           S   tau(  26) = (   0.1967693   0.0903508   0.1278874  )
        27           Mo  tau(  27) = (   0.1967578   0.4753919   0.2813011  )
        28           S   tau(  28) = (   0.0287851   0.3864324   0.4586755  )
        29           S   tau(  29) = (   0.0244514   0.3729871   0.1239344  )
        30           Mo  tau(  30) = (   0.0286728   0.7631204   0.2856894  )
        31           S   tau(  31) = (   0.2011512   0.6675435   0.4465001  )
        32           S   tau(  32) = (   0.1969214   0.6672839   0.1104564  )
        33           Mo  tau(  33) = (   0.1950294   1.0511147   0.2932237  )
        34           S   tau(  34) = (   0.0312912   0.9612169   0.4667423  )
        35           S   tau(  35) = (   0.0292670   0.9563028   0.1216485  )
        36           H   tau(  36) = (   0.5555556   0.1284079   0.5575849  )

     number of k points=     1  Gaussian smearing, width (Ry)=  0.0100
                       cart. coord. in units 2pi/alat
        k(    1) = (   0.0000000   0.0000000   0.0000000), wk =   2.0000000

     Dense  grid:  1177734 G-vectors     FFT dimensions: ( 120, 135, 320)

     Smooth grid:   842757 G-vectors     FFT dimensions: ( 108, 120, 270)

     Estimated max dynamical RAM per process >     146.59 MB

     Estimated total dynamical RAM >       6.87 GB

     Initial potential from superposition of free atoms

     starting charge     306.9873, renormalised to     307.0000

     negative rho (up, down):  1.413E-04 0.000E+00


---------------------------------------------------------------------------------
Carrying out rVV10 run using the following parameters:
Nqs =      20    Nr_points =    1024   r_max =   100.000
b_value =  6.30000    beta =  0.00901
     q_mesh =  0.00010000  0.00030000  0.00058939  0.00100810
               0.00161396  0.00249058  0.00375900  0.00559430
               0.00824984  0.01209221  0.01765183  0.02569619
               0.03733578  0.05417739  0.07854596  0.11380545
               0.16482331  0.23864234  0.34545298  0.50000000

Gradients computed in Reciprocal space

---------------------------------------------------------------------------------


     Starting wfcs are  213 randomized atomic wfcs

     total cpu time spent up to now is        2.9 secs

     Self-consistent Calculation

     iteration #  1     ecut=    80.00 Ry     beta= 0.70
     Davidson diagonalization with overlap
     ethr =  1.00E-02,  avg # of iterations =  2.0

     Threshold (ethr) on eigenvalues was too large:
     Diagonalizing with lowered threshold

     Davidson diagonalization with overlap
     ethr =  3.96E-04,  avg # of iterations =  4.0

     negative rho (up, down):  1.589E-08 0.000E+00

     total cpu time spent up to now is       25.0 secs

     total energy              =   -2205.47658332 Ry
     estimated scf accuracy    <       1.49932858 Ry

     iteration #  2     ecut=    80.00 Ry     beta= 0.70
     Davidson diagonalization with overlap
     ethr =  4.88E-04,  avg # of iterations =  1.0

     total cpu time spent up to now is       27.4 secs

     total energy              =   -2205.30154050 Ry
     estimated scf accuracy    <       0.61521358 Ry

     iteration #  3     ecut=    80.00 Ry     beta= 0.70
     Davidson diagonalization with overlap
     ethr =  2.00E-04,  avg # of iterations =  2.0

     total cpu time spent up to now is       30.1 secs

     total energy              =   -2205.39081391 Ry
     estimated scf accuracy    <       0.07649461 Ry

     iteration #  4     ecut=    80.00 Ry     beta= 0.70
     Davidson diagonalization with overlap
     c_bands:  1 eigenvalues not converged
     ethr =  2.49E-05,  avg # of iterations = 20.0

     total cpu time spent up to now is       33.6 secs

     total energy              =   -2205.39567106 Ry
     estimated scf accuracy    <       0.03628659 Ry

     iteration #  5     ecut=    80.00 Ry     beta= 0.70
     Davidson diagonalization with overlap
     ethr =  1.18E-05,  avg # of iterations = 10.0

     total cpu time spent up to now is       36.2 secs

     total energy              =   -2205.39460804 Ry
     estimated scf accuracy    <       0.02037021 Ry

     iteration #  6     ecut=    80.00 Ry     beta= 0.70
     Davidson diagonalization with overlap
     ethr =  6.64E-06,  avg # of iterations =  2.0

     total cpu time spent up to now is       38.7 secs

     total energy              =   -2205.39400289 Ry
     estimated scf accuracy    <       0.01478747 Ry

     iteration #  7     ecut=    80.00 Ry     beta= 0.70
     Davidson diagonalization with overlap
     ethr =  4.82E-06,  avg # of iterations =  1.0

     negative rho (up, down):  2.204E-05 0.000E+00

     total cpu time spent up to now is       42.4 secs

     total energy              =   -2205.39164147 Ry
     estimated scf accuracy    <       0.00954346 Ry

     iteration #  8     ecut=    80.00 Ry     beta= 0.70
     Davidson diagonalization with overlap
     ethr =  3.11E-06,  avg # of iterations =  2.0

     negative rho (up, down):  8.891E-03 0.000E+00

     total cpu time spent up to now is       46.6 secs

     total energy              =   -2205.39144169 Ry
     estimated scf accuracy    <       0.00441666 Ry

     iteration #  9     ecut=    80.00 Ry     beta= 0.70
     Davidson diagonalization with overlap
     c_bands:  1 eigenvalues not converged
     ethr =  1.44E-06,  avg # of iterations = 20.0

     negative rho (up, down):  2.118E-02 0.000E+00

     total cpu time spent up to now is       52.5 secs

     total energy              =   -2205.39104036 Ry
     estimated scf accuracy    <       0.00328409 Ry

     iteration # 10     ecut=    80.00 Ry     beta= 0.70
     Davidson diagonalization with overlap
     ethr =  1.07E-06,  avg # of iterations = 17.0

     negative rho (up, down):  3.111E-02 0.000E+00

     total cpu time spent up to now is       58.4 secs

     total energy              =   -2205.39102622 Ry
     estimated scf accuracy    <       0.00157772 Ry

     iteration # 11     ecut=    80.00 Ry     beta= 0.70
     Davidson diagonalization with overlap
     ethr =  5.14E-07,  avg # of iterations =  2.0

     negative rho (up, down):  2.207E-02 0.000E+00

     total cpu time spent up to now is       63.6 secs

     total energy              =   -2205.39102591 Ry
     estimated scf accuracy    <       0.00078826 Ry

     iteration # 12     ecut=    80.00 Ry     beta= 0.70
     Davidson diagonalization with overlap
     ethr =  2.57E-07,  avg # of iterations =  2.0

     negative rho (up, down):  9.530E-03 0.000E+00

     total cpu time spent up to now is       69.0 secs

     total energy              =   -2205.39110298 Ry
     estimated scf accuracy    <       0.00017511 Ry

     iteration # 13     ecut=    80.00 Ry     beta= 0.70
     Davidson diagonalization with overlap
     ethr =  5.70E-08,  avg # of iterations =  6.0

     negative rho (up, down):  3.641E-03 0.000E+00

     total cpu time spent up to now is       76.8 secs

     total energy              =   -2205.39116916 Ry
     estimated scf accuracy    <       0.00002671 Ry

     iteration # 14     ecut=    80.00 Ry     beta= 0.70
     Davidson diagonalization with overlap
     ethr =  8.70E-09,  avg # of iterations =  5.0

     negative rho (up, down):  8.632E-04 0.000E+00

     total cpu time spent up to now is       86.4 secs

     total energy              =   -2205.39116473 Ry
     estimated scf accuracy    <       0.00000858 Ry

     iteration # 15     ecut=    80.00 Ry     beta= 0.70
     Davidson diagonalization with overlap
     ethr =  2.80E-09,  avg # of iterations =  3.0

     negative rho (up, down):  5.466E-04 0.000E+00

     total cpu time spent up to now is       96.3 secs

     total energy              =   -2205.39116750 Ry
     estimated scf accuracy    <       0.00000334 Ry

     iteration # 16     ecut=    80.00 Ry     beta= 0.70
     Davidson diagonalization with overlap
     ethr =  1.09E-09,  avg # of iterations =  5.0

     negative rho (up, down):  4.108E-04 0.000E+00

     total cpu time spent up to now is      104.2 secs

     total energy              =   -2205.39117076 Ry
     estimated scf accuracy    <       0.00000154 Ry

     iteration # 17     ecut=    80.00 Ry     beta= 0.70
     Davidson diagonalization with overlap
     ethr =  5.03E-10,  avg # of iterations =  5.0

     negative rho (up, down):  1.373E-04 0.000E+00

     total cpu time spent up to now is      106.6 secs

     End of self-consistent calculation

          k = 0.0000 0.0000 0.0000 (105382 PWs)   bands (ev):

   -62.9587 -62.8495 -62.8165 -62.8045 -62.7688 -62.7584 -62.7504 -62.7388
   -62.6663 -62.5392 -62.5176 -62.4440 -37.2644 -37.1580 -37.1412 -37.1156
   -37.0880 -37.0724 -37.0676 -37.0580 -37.0112 -37.0026 -36.9929 -36.9753
   -36.9571 -36.9452 -36.9397 -36.9356 -36.9332 -36.9225 -36.9163 -36.9123
   -36.8741 -36.8503 -36.8340 -36.8255 -36.8036 -36.7830 -36.7717 -36.7553
   -36.7260 -36.7065 -36.6930 -36.6693 -36.6271 -36.5958 -36.4836 -36.4728
   -17.7889 -15.7930 -15.0926 -14.9769 -14.8780 -14.8080 -14.6021 -14.4090
   -14.3815 -14.3632 -14.3151 -14.2784 -14.2602 -14.2127 -14.0882 -14.0418
   -14.0215 -14.0192 -13.9704 -13.8199 -13.7323 -13.7185 -13.6908 -10.2313
    -7.6575  -7.4152  -7.3324  -7.2479  -7.2118  -7.1512  -7.0635  -7.0164
    -6.8041  -6.6977  -6.6669  -6.6270  -6.5836  -6.4868  -6.4416  -6.3746
    -6.3287  -6.2217  -6.1733  -5.9436  -5.8506  -5.8321  -5.7324  -5.7206
    -5.6834  -5.6627  -5.5844  -5.5671  -5.5334  -5.4980  -5.4583  -5.3664
    -5.3527  -5.2868  -5.1708  -5.0651  -5.0368  -4.9386  -4.9232  -4.8621
    -4.8463  -4.7410  -4.6509  -4.5206  -4.4080  -4.2940  -4.2300  -4.1464
    -4.1100  -4.0215  -3.9469  -3.9230  -3.8567  -3.7058  -3.6373  -3.5956
    -3.5433  -3.4716  -3.4444  -3.4229  -3.4037  -3.3852  -3.3594  -3.3492
    -3.3027  -3.1810  -3.0821  -2.8597  -2.7934  -2.7350  -2.7261  -2.6774
    -2.6519  -2.5987  -2.5776  -2.5037  -2.4341  -2.1679  -1.9297  -1.9046
    -1.7654  -0.6071  -0.5543  -0.4497  -0.1138  -0.0631  -0.0339   0.0914
     0.1124   0.2073   0.2139   0.2505   0.2825   0.3076   0.4894   0.5518
     0.5747   0.6182   0.6462   0.6843   0.6972   0.7354   0.7851   0.8030
     0.8351   0.8647   0.9459   0.9710   1.0421   1.0608   1.1408   1.3877
     1.4638

     the Fermi energy is    -0.6509 ev

!    total energy              =   -2205.39117126 Ry
     estimated scf accuracy    <       0.00000064 Ry
     smearing contrib. (-TS)   =      -0.00912416 Ry
     internal energy E=F+TS    =   -2205.38204710 Ry

     The total energy is F=E-TS. E is the sum of the following terms:
     one-electron contribution =  -18053.36076464 Ry
     hartree contribution      =    9014.14812205 Ry
     xc contribution           =    -385.58631057 Ry
     ewald contribution        =    7219.41690606 Ry

     convergence has been achieved in  17 iterations

     negative rho (up, down):  1.373E-04 0.000E+00

     Forces acting on atoms (cartesian axes, Ry/au):

     atom    1 type  1   force =     0.02808453   -0.01152166   -0.00851343
     atom    2 type  2   force =    -0.01353311    0.01656095    0.00041951
     atom    3 type  2   force =    -0.01291366    0.00923480   -0.00317343
     atom    4 type  1   force =     0.01141941   -0.00817635    0.00175901
     atom    5 type  2   force =    -0.00144334   -0.00324916   -0.00520901
     atom    6 type  2   force =     0.00453254    0.01028068    0.00196394
     atom    7 type  1   force =    -0.00073148    0.00068312   -0.00625104
     atom    8 type  2   force =     0.00176428   -0.00561812    0.01639122
     atom    9 type  2   force =     0.01432836    0.00385512    0.01032583
     atom   10 type  1   force =    -0.01494922    0.00898963   -0.02926580
     atom   11 type  2   force =     0.00651723   -0.00974410   -0.00435814
     atom   12 type  2   force =    -0.00270460    0.00405466    0.00500822
     atom   13 type  1   force =    -0.00604578    0.02423375   -0.00407369
     atom   14 type  2   force =    -0.17718103   -0.24238709   -0.62971525
     atom   15 type  2   force =    -0.01175399    0.00057885   -0.00660775
     atom   16 type  1   force =    -0.00085045   -0.00350058   -0.00234791
     atom   17 type  2   force =     0.00464925    0.00486905    0.00294370
     atom   18 type  2   force =    -0.00480605   -0.00799347    0.01534690
     atom   19 type  1   force =     0.00665826   -0.00080972   -0.00265273
     atom   20 type  2   force =     0.00339573   -0.00465351    0.00077076
     atom   21 type  1   force =     0.00467620   -0.02023470    0.00357734
     atom   22 type  2   force =    -0.00620654   -0.00848293   -0.00111085
     atom   23 type  2   force =     0.00199439    0.00344255    0.00828135
     atom   24 type  1   force =    -0.00894671   -0.00054345   -0.01804290
     atom   25 type  2   force =     0.01070055    0.01703378    0.00590622
     atom   26 type  2   force =    -0.01033195   -0.00072319   -0.00395290
     atom   27 type  1   force =    -0.00700118   -0.00887932    0.01032032
     atom   28 type  2   force =     0.00085466    0.00063815   -0.00661178
     atom   29 type  2   force =     0.00286088    0.00208013   -0.00379580
     atom   30 type  1   force =    -0.00427239    0.01274887   -0.00602975
     atom   31 type  2   force =     0.00114421   -0.00117574    0.01611371
     atom   32 type  2   force =    -0.01100718    0.00445596    0.00754011
     atom   33 type  1   force =     0.01772235   -0.00350452   -0.00794585
     atom   34 type  2   force =     0.00341327   -0.04368958   -0.01074122
     atom   35 type  2   force =    -0.00837695    0.00627585    0.01552097
     atom   36 type  3   force =     0.17833949    0.25487132    0.63821010
     The non-local contrib.  to forces
     atom    1 type  1   force =     0.00829822    0.03869482   -0.01583131
     atom    2 type  2   force =    -0.01657847    0.01018144   -0.25940163
     atom    3 type  2   force =    -0.01522159   -0.00103627    0.27202456
     atom    4 type  1   force =    -0.00237499    0.01560217    0.00447282
     atom    5 type  2   force =     0.00668927   -0.03781685   -0.24512440
     atom    6 type  2   force =     0.00215767    0.00668590    0.26258648
     atom    7 type  1   force =    -0.02788764   -0.01859252   -0.01403296
     atom    8 type  2   force =     0.00316751   -0.00467050   -0.25445958
     atom    9 type  2   force =     0.01133436   -0.01210920    0.27515737
     atom   10 type  1   force =     0.00753248   -0.00447989   -0.00085734
     atom   11 type  2   force =     0.01248912    0.00725889   -0.25580898
     atom   12 type  2   force =    -0.01848755   -0.01352997    0.26432336
     atom   13 type  1   force =    -0.00888610    0.02577385   -0.01777851
     atom   14 type  2   force =    -0.06983696   -0.11422662   -0.31194687
     atom   15 type  2   force =    -0.01367842   -0.00545788    0.26917226
     atom   16 type  1   force =     0.00094434    0.05626241   -0.01149023
     atom   17 type  2   force =     0.00411584   -0.03597986   -0.24723532
     atom   18 type  2   force =    -0.00775428   -0.01096723    0.27516569
     atom   19 type  1   force =     0.02449996   -0.01628393   -0.00970267
     atom   20 type  2   force =     0.00005664   -0.02181694    0.26297106
     atom   21 type  1   force =     0.00115769    0.00396922   -0.02436649
     atom   22 type  2   force =    -0.00907692    0.00306229   -0.25450149
     atom   23 type  2   force =     0.01125756   -0.01174964    0.26897725
     atom   24 type  1   force =     0.00481754    0.02174373   -0.00954781
     atom   25 type  2   force =     0.01422864    0.01101559   -0.25187894
     atom   26 type  2   force =    -0.00132303   -0.01059606    0.26500121
     atom   27 type  1   force =    -0.00055927    0.02094237    0.00857267
     atom   28 type  2   force =    -0.00393593   -0.02756558   -0.27346834
     atom   29 type  2   force =     0.00698404    0.00120843    0.26402357
     atom   30 type  1   force =     0.00085726    0.01396974    0.01010186
     atom   31 type  2   force =    -0.00675289   -0.00060753   -0.25355496
     atom   32 type  2   force =    -0.00696864   -0.01286654    0.26965134
     atom   33 type  1   force =    -0.00902561    0.00019145    0.00718879
     atom   34 type  2   force =     0.00020241   -0.03733795   -0.27100382
     atom   35 type  2   force =    -0.00227598   -0.00918849    0.27240061
     atom   36 type  3   force =    -0.03983617   -0.05669706   -0.12414222
     The ionic contribution  to forces
     atom    1 type  1   force =     0.78968905    0.41023382    4.98703200
     atom    2 type  2   force =    -0.38677843    0.35823395   39.20876965
     atom    3 type  2   force =    -0.12198861    0.00604326  -36.13651050
     atom    4 type  1   force =     0.18726649    0.72373957    0.61797082
     atom    5 type  2   force =    -0.82233582    1.79676658   38.65581696
     atom    6 type  2   force =     0.36876356   -0.45360691  -38.07830295
     atom    7 type  1   force =    -2.57655135   -2.82942331    2.54631172
     atom    8 type  2   force =    -0.95668513    0.04568471   37.39476196
     atom    9 type  2   force =     0.35250972   -0.02879383  -37.99594021
     atom   10 type  1   force =    -0.93406499   -0.48822357    5.55091185
     atom   11 type  2   force =    -0.48486730   -1.80646332   39.10072220
     atom   12 type  2   force =     0.46030651    0.65068686  -37.88266204
     atom   13 type  1   force =     0.08782180    1.10799616    2.34555955
     atom   14 type  2   force =    -0.76201394   -1.18318621   35.81207014
     atom   15 type  2   force =     0.15031266   -0.07989683  -36.93736790
     atom   16 type  1   force =    -0.04399207    4.20383166    0.32962909
     atom   17 type  2   force =     0.65608741    1.72292614   37.86234668
     atom   18 type  2   force =    -0.18697352   -0.60526565  -38.60667515
     atom   19 type  1   force =     2.67129463   -2.48860199    0.63963514
     atom   20 type  2   force =     0.22714150   -0.18811532  -38.48051912
     atom   21 type  1   force =    -0.00125082   -0.34550844    0.78584317
     atom   22 type  2   force =     0.37063076   -1.87678463   38.40065414
     atom   23 type  2   force =    -0.10674578    0.62827197  -38.31290396
     atom   24 type  1   force =    -0.51568548    1.17332457    5.75087590
     atom   25 type  2   force =     0.47798691    0.24963307   39.22591780
     atom   26 type  2   force =    -0.32059967    0.05716009  -37.37096834
     atom   27 type  1   force =    -0.04776492    0.52265852   -2.28481018
     atom   28 type  2   force =     0.06679842    1.07212017   38.20229828
     atom   29 type  2   force =    -0.26065990   -0.40308112  -37.27474262
     atom   30 type  1   force =    -0.33381268   -0.92447191   -0.01360815
     atom   31 type  2   force =     1.20294925   -0.03918696   37.33470426
     atom   32 type  2   force =    -0.48936458    0.00052008  -38.62498582
     atom   33 type  1   force =     0.66989789   -0.99047780    1.98630537
     atom   34 type  2   force =     0.24907830   -1.50205713   39.35618984
     atom   35 type  2   force =    -0.29742224    0.45492310  -37.81430982
     atom   36 type  3   force =     0.66102237    1.04839063    9.71998025
     The local contribution  to forces
     atom    1 type  1   force =    -0.76991784   -0.46067895   -4.97873845
     atom    2 type  2   force =     0.38886771   -0.35132250  -38.96840526
     atom    3 type  2   force =     0.12358254    0.00426240   35.88238366
     atom    4 type  1   force =    -0.17343506   -0.74754683   -0.61986472
     atom    5 type  2   force =     0.81471820   -1.76478478  -38.43494461
     atom    6 type  2   force =    -0.36633134    0.45785812   37.83849151
     atom    7 type  1   force =     2.60370385    2.84886708   -2.53765217
     atom    8 type  2   force =     0.95534872   -0.04708898  -37.14368700
     atom    9 type  2   force =    -0.34913895    0.04411167   37.75203522
     atom   10 type  1   force =     0.91152464    0.50171560   -5.57851325
     atom   11 type  2   force =     0.47933881    1.79042110  -38.86897514
     atom   12 type  2   force =    -0.44598417   -0.63418066   37.64425895
     atom   13 type  1   force =    -0.08487232   -1.10979135   -2.33084837
     atom   14 type  2   force =     0.65211481    1.05099576  -36.14991730
     atom   15 type  2   force =    -0.14910870    0.08551865   36.68278410
     atom   16 type  1   force =     0.04222979   -4.26354843   -0.31957210
     atom   17 type  2   force =    -0.65536919   -1.68433195  -37.63137755
     atom   18 type  2   force =     0.18951548    0.60813047   38.36787845
     atom   19 type  1   force =    -2.68908711    2.50423250   -0.63173162
     atom   20 type  2   force =    -0.22388417    0.20459343   38.23937946
     atom   21 type  1   force =     0.00478094    0.32142891   -0.75693204
     atom   22 type  2   force =    -0.36792867    1.86605801  -38.16684478
     atom   23 type  2   force =     0.09828474   -0.61397876   38.07317952
     atom   24 type  1   force =     0.50187201   -1.19573157   -5.75854194
     atom   25 type  2   force =    -0.48092024   -0.24297516  -38.98768544
     atom   26 type  2   force =     0.31181355   -0.04792146   37.12302357
     atom   27 type  1   force =     0.04123349   -0.55250438    2.28731474
     atom   28 type  2   force =    -0.06226530   -1.04595619  -37.95568514
     atom   29 type  2   force =     0.25714338    0.40435346   37.02756203
     atom   30 type  1   force =     0.32863997    0.92340730   -0.00175606
     atom   31 type  2   force =    -1.19549416    0.03851661  -37.08491246
     atom   32 type  2   force =     0.48517087    0.01605416   38.38371552
     atom   33 type  1   force =    -0.64311972    0.98681266   -2.00064004
     atom   34 type  2   force =    -0.24618678    1.49463782  -39.11632578
     atom   35 type  2   force =     0.29140707   -0.44026515   37.57860886
     atom   36 type  3   force =    -0.44285308   -0.73684094   -8.95755154
     The core correction contribution to forces
     atom    1 type  1   force =     0.00000000    0.00000000    0.00000000
     atom    2 type  2   force =     0.00088226   -0.00053937    0.02003618
     atom    3 type  2   force =     0.00069322   -0.00006917   -0.02100151
     atom    4 type  1   force =     0.00000000    0.00000000    0.00000000
     atom    5 type  2   force =    -0.00051209    0.00246111    0.01971208
     atom    6 type  2   force =    -0.00000465   -0.00078082   -0.02083163
     atom    7 type  1   force =     0.00000000    0.00000000    0.00000000
     atom    8 type  2   force =    -0.00010112    0.00053473    0.02036504
     atom    9 type  2   force =    -0.00037735    0.00073020   -0.02088682
     atom   10 type  1   force =     0.00000000    0.00000000    0.00000000
     atom   11 type  2   force =    -0.00047913   -0.00093489    0.02027419
     atom   12 type  2   force =     0.00147512    0.00109387   -0.02085738
     atom   13 type  1   force =     0.00000000    0.00000000    0.00000000
     atom   14 type  2   force =     0.00253026    0.00392446    0.02061796
     atom   15 type  2   force =     0.00075798    0.00036395   -0.02112427
     atom   16 type  1   force =     0.00000000    0.00000000    0.00000000
     atom   17 type  2   force =    -0.00018863    0.00216129    0.01989660
     atom   18 type  2   force =     0.00034239    0.00002851   -0.02106642
     atom   19 type  1   force =     0.00000000    0.00000000    0.00000000
     atom   20 type  2   force =     0.00011776    0.00079675   -0.02104385
     atom   21 type  1   force =     0.00000000    0.00000000    0.00000000
     atom   22 type  2   force =     0.00019220   -0.00074058    0.02016742
     atom   23 type  2   force =    -0.00081520    0.00095976   -0.02092726
     atom   24 type  1   force =     0.00000000    0.00000000    0.00000000
     atom   25 type  2   force =    -0.00053998   -0.00069300    0.02015573
     atom   26 type  2   force =    -0.00024916    0.00056707   -0.02097265
     atom   27 type  1   force =     0.00000000    0.00000000    0.00000000
     atom   28 type  2   force =     0.00026224    0.00199275    0.02084835
     atom   29 type  2   force =    -0.00059584   -0.00046649   -0.02061615
     atom   30 type  1   force =     0.00000000    0.00000000    0.00000000
     atom   31 type  2   force =     0.00043547    0.00014038    0.02048168
     atom   32 type  2   force =     0.00011594    0.00078349   -0.02081678
     atom   33 type  1   force =     0.00000000    0.00000000    0.00000000
     atom   34 type  2   force =     0.00033375    0.00107379    0.02097751
     atom   35 type  2   force =    -0.00008766    0.00084046   -0.02114360
     atom   36 type  3   force =     0.00000000    0.00000000    0.00000000
     The Hubbard contrib.    to forces
     atom    1 type  1   force =     0.00000000    0.00000000    0.00000000
     atom    2 type  2   force =     0.00000000    0.00000000    0.00000000
     atom    3 type  2   force =     0.00000000    0.00000000    0.00000000
     atom    4 type  1   force =     0.00000000    0.00000000    0.00000000
     atom    5 type  2   force =     0.00000000    0.00000000    0.00000000
     atom    6 type  2   force =     0.00000000    0.00000000    0.00000000
     atom    7 type  1   force =     0.00000000    0.00000000    0.00000000
     atom    8 type  2   force =     0.00000000    0.00000000    0.00000000
     atom    9 type  2   force =     0.00000000    0.00000000    0.00000000
     atom   10 type  1   force =     0.00000000    0.00000000    0.00000000
     atom   11 type  2   force =     0.00000000    0.00000000    0.00000000
     atom   12 type  2   force =     0.00000000    0.00000000    0.00000000
     atom   13 type  1   force =     0.00000000    0.00000000    0.00000000
     atom   14 type  2   force =     0.00000000    0.00000000    0.00000000
     atom   15 type  2   force =     0.00000000    0.00000000    0.00000000
     atom   16 type  1   force =     0.00000000    0.00000000    0.00000000
     atom   17 type  2   force =     0.00000000    0.00000000    0.00000000
     atom   18 type  2   force =     0.00000000    0.00000000    0.00000000
     atom   19 type  1   force =     0.00000000    0.00000000    0.00000000
     atom   20 type  2   force =     0.00000000    0.00000000    0.00000000
     atom   21 type  1   force =     0.00000000    0.00000000    0.00000000
     atom   22 type  2   force =     0.00000000    0.00000000    0.00000000
     atom   23 type  2   force =     0.00000000    0.00000000    0.00000000
     atom   24 type  1   force =     0.00000000    0.00000000    0.00000000
     atom   25 type  2   force =     0.00000000    0.00000000    0.00000000
     atom   26 type  2   force =     0.00000000    0.00000000    0.00000000
     atom   27 type  1   force =     0.00000000    0.00000000    0.00000000
     atom   28 type  2   force =     0.00000000    0.00000000    0.00000000
     atom   29 type  2   force =     0.00000000    0.00000000    0.00000000
     atom   30 type  1   force =     0.00000000    0.00000000    0.00000000
     atom   31 type  2   force =     0.00000000    0.00000000    0.00000000
     atom   32 type  2   force =     0.00000000    0.00000000    0.00000000
     atom   33 type  1   force =     0.00000000    0.00000000    0.00000000
     atom   34 type  2   force =     0.00000000    0.00000000    0.00000000
     atom   35 type  2   force =     0.00000000    0.00000000    0.00000000
     atom   36 type  3   force =     0.00000000    0.00000000    0.00000000
     The SCF correction term to forces
     atom    1 type  1   force =     0.00001468    0.00022551   -0.00095117
     atom    2 type  2   force =     0.00007340    0.00000429   -0.00055493
     atom    3 type  2   force =     0.00002035    0.00003143   -0.00004514
     atom    4 type  1   force =    -0.00003745    0.00002559   -0.00079541
     atom    5 type  2   force =    -0.00000331    0.00012163   -0.00064455
     atom    6 type  2   force =    -0.00005312    0.00012125    0.00004502
     atom    7 type  1   force =     0.00000323   -0.00017127   -0.00085313
     atom    8 type  2   force =     0.00003389   -0.00008122   -0.00056470
     atom    9 type  2   force =     0.00000016   -0.00008688   -0.00001524
     atom   10 type  1   force =     0.00005824   -0.00002566   -0.00078256
     atom   11 type  2   force =     0.00003531   -0.00002903   -0.00054592
     atom   12 type  2   force =    -0.00001493   -0.00001859   -0.00003017
     atom   13 type  1   force =    -0.00010957    0.00025195   -0.00098188
     atom   14 type  2   force =     0.00002438    0.00010237   -0.00051469
     atom   15 type  2   force =    -0.00003793    0.00004782   -0.00004745
     atom   16 type  1   force =    -0.00003293   -0.00004937   -0.00089017
     atom   17 type  2   force =     0.00000340    0.00009028   -0.00066222
     atom   18 type  2   force =     0.00006347    0.00007727    0.00006883
     atom   19 type  1   force =    -0.00004965   -0.00015946   -0.00082909
     atom   20 type  2   force =    -0.00003642   -0.00011458    0.00000770
     atom   21 type  1   force =    -0.00001203   -0.00012753   -0.00094282
     atom   22 type  2   force =    -0.00002432   -0.00008117   -0.00056164
     atom   23 type  2   force =     0.00001266   -0.00006393   -0.00001970
     atom   24 type  1   force =     0.00004881    0.00011667   -0.00080454
     atom   25 type  2   force =    -0.00005519    0.00005013   -0.00057843
     atom   26 type  2   force =     0.00002594    0.00006403   -0.00001219
     atom   27 type  1   force =     0.00008910    0.00002103   -0.00073241
     atom   28 type  2   force =    -0.00000520    0.00004386   -0.00058045
     atom   29 type  2   force =    -0.00001122    0.00006270    0.00000186
     atom   30 type  1   force =     0.00004265   -0.00015941   -0.00074291
     atom   31 type  2   force =     0.00000612   -0.00004138   -0.00058031
     atom   32 type  2   force =     0.00003881   -0.00003838    0.00000035
     atom   33 type  1   force =    -0.00003062   -0.00003397   -0.00077548
     atom   34 type  2   force =    -0.00001482   -0.00000925   -0.00055448
     atom   35 type  2   force =     0.00000144   -0.00003721   -0.00001058
     atom   36 type  3   force =     0.00000595    0.00001555   -0.00005189

     Total force =     1.000777     Total SCF correction =     0.003555

     BFGS Geometry Optimization
     Energy error            =      0.0E+00 Ry
     Gradient error          =      6.4E-01 Ry/Bohr

     number of scf cycles    =   1
     number of bfgs steps    =   0

     energy             new  =   -2205.3911712566 Ry

     new trust radius        =       0.5000000000 bohr
     new conv_thr            =       0.0000010000 Ry


ATOMIC_POSITIONS (angstrom)
Mo            6.5850146321        1.7835124680        2.8204703419
S             8.1716659734        0.8158757732        4.4346946898
S             8.1884205699        0.8146832651        1.2767007900
Mo            8.0994182225        4.4920098750        2.7184739224
S             6.4993713689        3.7212006261        4.3447194118
S             6.5550389343        3.5155688442        1.1220121268
Mo            6.4897090966        7.2186918631        2.6695549160
S             8.0823852212        6.3417772953        4.2485700576
S             8.0862573777        6.3061389989        1.0877111138
Mo            8.1550479437        9.9055305678        2.8325553150
S             6.4975963640        8.9392954921        4.3814813929
S             6.6169392790        9.0502222578        1.1417737109
Mo            3.4194065899        1.7559870100        2.7749530256
S             4.9091356676        0.7266111267        4.1158579309
S             5.0534534105        0.8464778268        1.2241959609
Mo            4.9794397436        4.5118734448        2.6320095578
S             3.4295742922        3.6734142265        4.2808066035
S             3.4361295176        3.5452497804        1.0640709894
Mo            3.4563430638        7.2160227802        2.6296882722
S             4.9844996769        6.3251980674        1.0375409675
Mo            5.0140065942        9.8940592127        2.7447341225
S             3.4686451334        8.9405899457        4.3251773335
S             3.4091724143        9.0662729139        1.0991544997
Mo            0.2927563275        1.7473070027        2.8427206864
S             1.8544499727        0.7990419650        4.4004105011
S             1.8569496415        0.8541564076        1.2079277331
Mo            1.8580821882        4.4923577167        2.6640434418
S             0.2725323541        3.6546366460        4.3351200943
S             0.2322973681        3.5280244247        1.1706033095
Mo            0.2695599638        7.2213971982        2.6994493294
S             1.9026646576        6.3123606721        4.2284491981
S             1.8581361821        6.3120044091        1.0473692478
Mo            1.8509512295        9.9388331285        2.7699850808
S             0.2971849194        9.0737160887        4.4098665495
S             0.2736495736        9.0458645269        1.1561849612
H             5.3202171024        1.3093047847        5.5107871770



     Writing config-only to output data dir ./MoS2-V-O.save/
     NEW-OLD atomic charge density approx. for the potential

     negative rho (up, down):  1.496E-04 0.000E+00

     total cpu time spent up to now is      110.2 secs

     Self-consistent Calculation

     iteration #  1     ecut=    80.00 Ry     beta= 0.70
     Davidson diagonalization with overlap
     c_bands:  1 eigenvalues not converged
     ethr =  1.00E-06,  avg # of iterations = 20.0

     negative rho (up, down):  4.934E-04 0.000E+00

     total cpu time spent up to now is      123.2 secs

     total energy              =   -2205.50297232 Ry
     estimated scf accuracy    <       0.08381412 Ry

     iteration #  2     ecut=    80.00 Ry     beta= 0.70
     Davidson diagonalization with overlap
     ethr =  2.73E-05,  avg # of iterations =  3.0

     negative rho (up, down):  1.526E-03 0.000E+00

     total cpu time spent up to now is      140.1 secs

     total energy              =   -2205.50618517 Ry
     estimated scf accuracy    <       0.01110241 Ry

     iteration #  3     ecut=    80.00 Ry     beta= 0.70
     Davidson diagonalization with overlap
     ethr =  3.62E-06,  avg # of iterations =  6.0

     negative rho (up, down):  2.393E-03 0.000E+00

     total cpu time spent up to now is      151.3 secs

     total energy              =   -2205.50727154 Ry
     estimated scf accuracy    <       0.00140492 Ry

     iteration #  4     ecut=    80.00 Ry     beta= 0.70
     Davidson diagonalization with overlap
     ethr =  4.58E-07,  avg # of iterations =  3.0

     negative rho (up, down):  2.696E-03 0.000E+00

     total cpu time spent up to now is      165.9 secs

     total energy              =   -2205.50736962 Ry
     estimated scf accuracy    <       0.00028296 Ry

     iteration #  5     ecut=    80.00 Ry     beta= 0.70
     Davidson diagonalization with overlap
     ethr =  9.22E-08,  avg # of iterations =  6.0

     negative rho (up, down):  2.789E-03 0.000E+00

     total cpu time spent up to now is      177.2 secs

     total energy              =   -2205.50739633 Ry
     estimated scf accuracy    <       0.00014326 Ry

     iteration #  6     ecut=    80.00 Ry     beta= 0.70
     Davidson diagonalization with overlap
     ethr =  4.67E-08,  avg # of iterations =  2.0

     negative rho (up, down):  2.552E-03 0.000E+00

     total cpu time spent up to now is      189.0 secs

     total energy              =   -2205.50740290 Ry
     estimated scf accuracy    <       0.00002863 Ry

     iteration #  7     ecut=    80.00 Ry     beta= 0.70
     Davidson diagonalization with overlap
     ethr =  9.33E-09,  avg # of iterations =  9.0

     negative rho (up, down):  2.212E-03 0.000E+00

     total cpu time spent up to now is      200.9 secs

     total energy              =   -2205.50740581 Ry
     estimated scf accuracy    <       0.00001011 Ry

     iteration #  8     ecut=    80.00 Ry     beta= 0.70
     Davidson diagonalization with overlap
     ethr =  3.29E-09,  avg # of iterations =  2.0

     negative rho (up, down):  1.490E-03 0.000E+00

     total cpu time spent up to now is      211.4 secs

     total energy              =   -2205.50740184 Ry
     estimated scf accuracy    <       0.00000478 Ry

     iteration #  9     ecut=    80.00 Ry     beta= 0.70
     Davidson diagonalization with overlap
     ethr =  1.56E-09,  avg # of iterations =  3.0

     negative rho (up, down):  1.016E-03 0.000E+00

     total cpu time spent up to now is      218.2 secs

     total energy              =   -2205.50739988 Ry
     estimated scf accuracy    <       0.00000155 Ry

     iteration # 10     ecut=    80.00 Ry     beta= 0.70
     Davidson diagonalization with overlap
     ethr =  5.04E-10,  avg # of iterations =  6.0

     negative rho (up, down):  1.364E-04 0.000E+00

     total cpu time spent up to now is      220.6 secs

     End of self-consistent calculation

          k = 0.0000 0.0000 0.0000 (105382 PWs)   bands (ev):

   -62.9162 -62.8375 -62.8130 -62.8056 -62.7907 -62.7897 -62.7815 -62.7702
   -62.7083 -62.6133 -62.5972 -62.5154 -37.2990 -37.1606 -37.1414 -37.1213
   -37.1018 -37.0964 -37.0766 -37.0614 -37.0260 -37.0150 -37.0098 -36.9893
   -36.9769 -36.9754 -36.9662 -36.9621 -36.9572 -36.9557 -36.9538 -36.9333
   -36.9087 -36.8711 -36.8672 -36.8586 -36.8366 -36.8233 -36.8129 -36.8044
   -36.7798 -36.7736 -36.7623 -36.7465 -36.6952 -36.6632 -36.5562 -36.5494
   -16.4610 -15.6708 -15.1327 -14.9851 -14.9114 -14.8226 -14.5916 -14.4430
   -14.4130 -14.3852 -14.3531 -14.3241 -14.2901 -14.2569 -14.1135 -14.0750
   -14.0587 -14.0528 -14.0117 -13.8449 -13.7761 -13.7547 -13.7322  -8.8707
    -7.7909  -7.5978  -7.4096  -7.2937  -7.2257  -7.2039  -7.1015  -7.0245
    -6.8621  -6.7493  -6.6946  -6.6444  -6.5953  -6.5358  -6.4187  -6.3857
    -6.3763  -6.2753  -6.1883  -6.0036  -5.9071  -5.8529  -5.7652  -5.7543
    -5.7296  -5.7027  -5.6483  -5.6073  -5.5847  -5.5635  -5.4977  -5.4131
    -5.3934  -5.3253  -5.2102  -5.1022  -5.0290  -4.9711  -4.9607  -4.9081
    -4.8825  -4.7865  -4.6668  -4.4980  -4.4055  -4.3519  -4.2699  -4.1800
    -4.1449  -4.0367  -3.9869  -3.9294  -3.9075  -3.7300  -3.6692  -3.6310
    -3.5830  -3.5088  -3.4883  -3.4670  -3.4489  -3.4294  -3.3942  -3.3617
    -3.3265  -3.1991  -3.0725  -2.9305  -2.8292  -2.7973  -2.7719  -2.7233
    -2.6700  -2.6388  -2.5952  -2.5525  -2.4808  -2.2135  -1.9616  -1.9441
    -1.8346  -0.6687  -0.6203  -0.6141  -0.1826  -0.1023  -0.0281   0.0717
     0.1106   0.1609   0.2128   0.2496   0.2649   0.3731   0.4854   0.5075
     0.5312   0.5953   0.5978   0.6483   0.6645   0.7150   0.7550   0.7842
     0.8363   0.8667   0.8988   0.9601   1.0055   1.0323   1.1067   1.3128
     1.4389

     the Fermi energy is    -0.7304 ev

!    total energy              =   -2205.50739831 Ry
     estimated scf accuracy    <       0.00000059 Ry
     smearing contrib. (-TS)   =      -0.01023737 Ry
     internal energy E=F+TS    =   -2205.49716094 Ry

     The total energy is F=E-TS. E is the sum of the following terms:
     one-electron contribution =  -18078.61524390 Ry
     hartree contribution      =    9026.46618983 Ry
     xc contribution           =    -385.44306085 Ry
     ewald contribution        =    7232.09495398 Ry

     convergence has been achieved in  10 iterations

     negative rho (up, down):  1.364E-04 0.000E+00

     Forces acting on atoms (cartesian axes, Ry/au):

     atom    1 type  1   force =     0.02189200   -0.01133192   -0.02540781
     atom    2 type  2   force =    -0.01334263    0.01349111    0.00262277
     atom    3 type  2   force =    -0.00962393    0.00861160   -0.00714722
     atom    4 type  1   force =     0.00790172   -0.00170620    0.00063788
     atom    5 type  2   force =    -0.00299400   -0.00964126   -0.00180534
     atom    6 type  2   force =     0.00404189    0.00959804    0.00096366
     atom    7 type  1   force =     0.00441243   -0.00502999   -0.00346490
     atom    8 type  2   force =     0.00107990   -0.00450918    0.01322401
     atom    9 type  2   force =     0.01245596    0.00367065    0.00869742
     atom   10 type  1   force =    -0.00466230    0.00983161   -0.01715904
     atom   11 type  2   force =     0.00669183   -0.00676741   -0.00219480
     atom   12 type  2   force =    -0.00026549    0.00080574   -0.00102240
     atom   13 type  1   force =    -0.04140905    0.03062965   -0.04415379
     atom   14 type  2   force =     0.06555037    0.10631577    0.18488805
     atom   15 type  2   force =    -0.00778508    0.00310411   -0.02173342
     atom   16 type  1   force =     0.00148347    0.00203748   -0.00023384
     atom   17 type  2   force =     0.00734983   -0.00021364    0.00609474
     atom   18 type  2   force =    -0.00411853   -0.00304298    0.00946623
     atom   19 type  1   force =     0.00292945   -0.00456724   -0.00117933
     atom   20 type  2   force =     0.00278835   -0.00456213   -0.00050572
     atom   21 type  1   force =    -0.00009295   -0.07144405   -0.04756795
     atom   22 type  2   force =    -0.00647021   -0.00964789    0.00154125
     atom   23 type  2   force =    -0.00054091    0.00047305    0.00375458
     atom   24 type  1   force =    -0.00702669   -0.00123333   -0.01509583
     atom   25 type  2   force =     0.00839058    0.01406024    0.00715081
     atom   26 type  2   force =    -0.01034616   -0.00160157   -0.00435302
     atom   27 type  1   force =    -0.00463988   -0.00069345    0.00712664
     atom   28 type  2   force =     0.00028042   -0.00176605   -0.00438682
     atom   29 type  2   force =     0.00287741    0.00112113   -0.00440334
     atom   30 type  1   force =    -0.00216667    0.00586132   -0.00060097
     atom   31 type  2   force =     0.00073006   -0.00039798    0.01218640
     atom   32 type  2   force =    -0.00904755    0.00394953    0.00795271
     atom   33 type  1   force =     0.00676312   -0.00227975   -0.00482131
     atom   34 type  2   force =     0.00140818   -0.03499744   -0.01325603
     atom   35 type  2   force =    -0.00627257    0.00715618    0.01071004
     atom   36 type  3   force =    -0.02822240   -0.04528375   -0.05652431
     The non-local contrib.  to forces
     atom    1 type  1   force =     0.00397677    0.03833843   -0.00495716
     atom    2 type  2   force =    -0.01183846    0.00345270   -0.26198527
     atom    3 type  2   force =    -0.01337732   -0.00378847    0.26779357
     atom    4 type  1   force =    -0.00216229    0.01329430    0.00386334
     atom    5 type  2   force =     0.00429472   -0.03987696   -0.24143290
     atom    6 type  2   force =    -0.00093571    0.00623719    0.26214721
     atom    7 type  1   force =    -0.02633623   -0.01506914   -0.01476190
     atom    8 type  2   force =     0.00405410   -0.00246959   -0.25748881
     atom    9 type  2   force =     0.00878786   -0.01173900    0.27529473
     atom   10 type  1   force =     0.00594435   -0.00287632   -0.00077838
     atom   11 type  2   force =     0.01005693    0.00947270   -0.25674360
     atom   12 type  2   force =    -0.01322517   -0.01365663    0.25882792
     atom   13 type  1   force =    -0.00003111    0.02335466   -0.00995393
     atom   14 type  2   force =     0.12142678    0.12746870    0.31050821
     atom   15 type  2   force =    -0.01129801   -0.00518922    0.26628056
     atom   16 type  1   force =     0.00077510    0.04900106   -0.01647528
     atom   17 type  2   force =     0.00376951   -0.03629489   -0.24189746
     atom   18 type  2   force =    -0.00326218   -0.00469636    0.26940423
     atom   19 type  1   force =     0.02356039   -0.01437707   -0.00948815
     atom   20 type  2   force =    -0.00056205   -0.02142629    0.26428921
     atom   21 type  1   force =     0.00291056    0.02104186   -0.00984187
     atom   22 type  2   force =    -0.00498279    0.00386303   -0.25698213
     atom   23 type  2   force =     0.00829032   -0.01353060    0.26537656
     atom   24 type  1   force =     0.00194365    0.01922049   -0.01104714
     atom   25 type  2   force =     0.01237024    0.00751435   -0.25791836
     atom   26 type  2   force =    -0.00120744   -0.01214510    0.26410016
     atom   27 type  1   force =    -0.00152024    0.01820255    0.00843953
     atom   28 type  2   force =    -0.00366404   -0.02722373   -0.27289725
     atom   29 type  2   force =     0.00658532    0.00052265    0.26330588
     atom   30 type  1   force =     0.00041842    0.01548979    0.00952257
     atom   31 type  2   force =    -0.00669368    0.00223902   -0.25694329
     atom   32 type  2   force =    -0.00456689   -0.01288808    0.27073822
     atom   33 type  1   force =    -0.00874295    0.00048013    0.00668025
     atom   34 type  2   force =    -0.00050236   -0.02978058   -0.27467085
     atom   35 type  2   force =    -0.00080504   -0.00768567    0.27056960
     atom   36 type  3   force =    -0.01047134   -0.01520458   -0.03211493
     The ionic contribution  to forces
     atom    1 type  1   force =     0.92018670    0.93929209    5.45279573
     atom    2 type  2   force =    -0.42184069    0.28858970   39.40543101
     atom    3 type  2   force =    -0.04224490    0.00891877  -36.22303245
     atom    4 type  1   force =     0.05322647    0.85364055    0.82459379
     atom    5 type  2   force =    -0.91140286    1.65449287   38.72747743
     atom    6 type  2   force =     0.35014471   -0.39905654  -38.03014487
     atom    7 type  1   force =    -2.45269683   -3.07388335    2.58299994
     atom    8 type  2   force =    -0.97812658    0.03174185   37.47968074
     atom    9 type  2   force =     0.32874966   -0.07221909  -37.92852742
     atom   10 type  1   force =    -0.60166457   -0.48798939    5.47234861
     atom   11 type  2   force =    -0.38096053   -1.77061518   39.29915062
     atom   12 type  2   force =     0.47802850    0.55917954  -37.95536483
     atom   13 type  1   force =    -0.59020423    1.84387909    2.27261799
     atom   14 type  2   force =     0.14268010    0.01934208   35.40792493
     atom   15 type  2   force =     0.17603827   -0.00655385  -37.16733768
     atom   16 type  1   force =     0.05105017    4.21746794    0.48762727
     atom   17 type  2   force =     0.76305706    1.67117584   38.05323537
     atom   18 type  2   force =    -0.19070792   -0.49187232  -38.58937878
     atom   19 type  1   force =     2.53828367   -2.74158194    0.68188781
     atom   20 type  2   force =     0.21632642   -0.23461427  -38.48125877
     atom   21 type  1   force =     0.19607156   -1.53835102    0.42050899
     atom   22 type  2   force =     0.30958463   -1.94094130   38.61421348
     atom   23 type  2   force =    -0.15284594    0.54695458  -38.37070718
     atom   24 type  1   force =    -0.44140424    1.03115126    5.73842263
     atom   25 type  2   force =     0.37014465    0.23657326   39.38432085
     atom   26 type  2   force =    -0.35343719    0.04737443  -37.38094741
     atom   27 type  1   force =    -0.00521000    0.73550354   -1.97707812
     atom   28 type  2   force =     0.05006832    1.01767296   38.29591103
     atom   29 type  2   force =    -0.24666170   -0.34535516  -37.31813176
     atom   30 type  1   force =    -0.29820532   -1.06474409    0.03360534
     atom   31 type  2   force =     1.19689904   -0.04235599   37.39893577
     atom   32 type  2   force =    -0.46300296   -0.03979049  -38.55035298
     atom   33 type  1   force =     0.27492251   -0.93679999    2.12081313
     atom   34 type  2   force =     0.18533779   -1.34012084   39.34118074
     atom   35 type  2   force =    -0.25310522    0.45168053  -37.75146443
     atom   36 type  3   force =     0.18292145    0.37221392    8.22804347
     The local contribution  to forces
     atom    1 type  1   force =    -0.90209737   -0.98932709   -5.47286557
     atom    2 type  2   force =     0.41971375   -0.27826621  -39.16087718
     atom    3 type  2   force =     0.04537808    0.00336461   35.96905271
     atom    4 type  1   force =    -0.04273328   -0.86874705   -0.82742387
     atom    5 type  2   force =     0.90468767   -1.62678856  -38.50704065
     atom    6 type  2   force =    -0.34519032    0.40308890   37.78960472
     atom    7 type  1   force =     2.48380629    3.08422819   -2.57156879
     atom    8 type  2   force =     0.97545706   -0.03414698  -37.22905564
     atom    9 type  2   force =    -0.32471080    0.08703879   37.68275204
     atom   10 type  1   force =     0.59107181    0.50074495   -5.48858774
     atom   11 type  2   force =     0.37794650    1.75542802  -39.06472409
     atom   12 type  2   force =    -0.46620193   -0.54575514   37.71615591
     atom   13 type  1   force =     0.54893326   -1.83693737   -2.30637960
     atom   14 type  2   force =    -0.19173230   -0.03271546  -35.52377845
     atom   15 type  2   force =    -0.17312287    0.01444314   36.90010504
     atom   16 type  1   force =    -0.05040592   -4.26469617   -0.47116217
     atom   17 type  2   force =    -0.75947159   -1.63729904  -37.82463362
     atom   18 type  2   force =     0.18964098    0.49369017   38.35014510
     atom   19 type  1   force =    -2.55933272    2.75169841   -0.67342781
     atom   20 type  2   force =    -0.21313820    0.25084109   38.23734588
     atom   21 type  1   force =    -0.19909449    1.44619159   -0.45795537
     atom   22 type  2   force =    -0.31113089    1.92821490  -38.37578090
     atom   23 type  2   force =     0.14461539   -0.53399579   38.12988335
     atom   24 type  1   force =     0.43224225   -1.05160349   -5.74222191
     atom   25 type  2   force =    -0.37365565   -0.22953660  -39.13940776
     atom   26 type  2   force =     0.34446011   -0.03755199   37.13337056
     atom   27 type  1   force =     0.00173909   -0.75439299    1.97611252
     atom   28 type  2   force =    -0.04637570   -0.99408915  -38.04800703
     atom   29 type  2   force =     0.24351059    0.34634239   37.07103473
     atom   30 type  1   force =     0.29563755    1.05525408   -0.04340035
     atom   31 type  2   force =    -1.19000998    0.03974571  -37.15002882
     atom   32 type  2   force =     0.45844459    0.05596595   38.30834570
     atom   33 type  1   force =    -0.25943889    0.93394493   -2.13214291
     atom   34 type  2   force =    -0.18372517    1.33396347  -39.10059418
     atom   35 type  2   force =     0.24775455   -0.43766266   37.51272833
     atom   36 type  3   force =    -0.20066318   -0.40229113   -8.25238486
     The core correction contribution to forces
     atom    1 type  1   force =     0.00000000    0.00000000    0.00000000
     atom    2 type  2   force =     0.00064401   -0.00028801    0.02025307
     atom    3 type  2   force =     0.00062536    0.00006834   -0.02090571
     atom    4 type  1   force =     0.00000000    0.00000000    0.00000000
     atom    5 type  2   force =    -0.00044921    0.00244543    0.01959308
     atom    6 type  2   force =     0.00014773   -0.00078623   -0.02079977
     atom    7 type  1   force =     0.00000000    0.00000000    0.00000000
     atom    8 type  2   force =    -0.00014227    0.00041361    0.02045050
     atom    9 type  2   force =    -0.00025680    0.00065683   -0.02091432
     atom   10 type  1   force =     0.00000000    0.00000000    0.00000000
     atom   11 type  2   force =    -0.00027366   -0.00101385    0.02039895
     atom   12 type  2   force =     0.00118192    0.00109943   -0.02068303
     atom   13 type  1   force =     0.00000000    0.00000000    0.00000000
     atom   14 type  2   force =    -0.00684991   -0.00789169   -0.00975949
     atom   15 type  2   force =     0.00062433    0.00033378   -0.02077664
     atom   16 type  1   force =     0.00000000    0.00000000    0.00000000
     atom   17 type  2   force =    -0.00012312    0.00216107    0.01976816
     atom   18 type  2   force =     0.00009879   -0.00024464   -0.02087416
     atom   19 type  1   force =     0.00000000    0.00000000    0.00000000
     atom   20 type  2   force =     0.00014618    0.00076380   -0.02113165
     atom   21 type  1   force =     0.00000000    0.00000000    0.00000000
     atom   22 type  2   force =    -0.00002032   -0.00077148    0.02034786
     atom   23 type  2   force =    -0.00063895    0.00106154   -0.02083251
     atom   24 type  1   force =     0.00000000    0.00000000    0.00000000
     atom   25 type  2   force =    -0.00049633   -0.00052428    0.02040185
     atom   26 type  2   force =    -0.00021650    0.00065546   -0.02090745
     atom   27 type  1   force =     0.00000000    0.00000000    0.00000000
     atom   28 type  2   force =     0.00023773    0.00190634    0.02089562
     atom   29 type  2   force =    -0.00056343   -0.00042169   -0.02061941
     atom   30 type  1   force =     0.00000000    0.00000000    0.00000000
     atom   31 type  2   force =     0.00040648    0.00002093    0.02056659
     atom   32 type  2   force =    -0.00000540    0.00072914   -0.02085324
     atom   33 type  1   force =     0.00000000    0.00000000    0.00000000
     atom   34 type  2   force =     0.00030410    0.00083112    0.02111206
     atom   35 type  2   force =    -0.00012993    0.00080151   -0.02110648
     atom   36 type  3   force =     0.00000000    0.00000000    0.00000000
     The Hubbard contrib.    to forces
     atom    1 type  1   force =     0.00000000    0.00000000    0.00000000
     atom    2 type  2   force =     0.00000000    0.00000000    0.00000000
     atom    3 type  2   force =     0.00000000    0.00000000    0.00000000
     atom    4 type  1   force =     0.00000000    0.00000000    0.00000000
     atom    5 type  2   force =     0.00000000    0.00000000    0.00000000
     atom    6 type  2   force =     0.00000000    0.00000000    0.00000000
     atom    7 type  1   force =     0.00000000    0.00000000    0.00000000
     atom    8 type  2   force =     0.00000000    0.00000000    0.00000000
     atom    9 type  2   force =     0.00000000    0.00000000    0.00000000
     atom   10 type  1   force =     0.00000000    0.00000000    0.00000000
     atom   11 type  2   force =     0.00000000    0.00000000    0.00000000
     atom   12 type  2   force =     0.00000000    0.00000000    0.00000000
     atom   13 type  1   force =     0.00000000    0.00000000    0.00000000
     atom   14 type  2   force =     0.00000000    0.00000000    0.00000000
     atom   15 type  2   force =     0.00000000    0.00000000    0.00000000
     atom   16 type  1   force =     0.00000000    0.00000000    0.00000000
     atom   17 type  2   force =     0.00000000    0.00000000    0.00000000
     atom   18 type  2   force =     0.00000000    0.00000000    0.00000000
     atom   19 type  1   force =     0.00000000    0.00000000    0.00000000
     atom   20 type  2   force =     0.00000000    0.00000000    0.00000000
     atom   21 type  1   force =     0.00000000    0.00000000    0.00000000
     atom   22 type  2   force =     0.00000000    0.00000000    0.00000000
     atom   23 type  2   force =     0.00000000    0.00000000    0.00000000
     atom   24 type  1   force =     0.00000000    0.00000000    0.00000000
     atom   25 type  2   force =     0.00000000    0.00000000    0.00000000
     atom   26 type  2   force =     0.00000000    0.00000000    0.00000000
     atom   27 type  1   force =     0.00000000    0.00000000    0.00000000
     atom   28 type  2   force =     0.00000000    0.00000000    0.00000000
     atom   29 type  2   force =     0.00000000    0.00000000    0.00000000
     atom   30 type  1   force =     0.00000000    0.00000000    0.00000000
     atom   31 type  2   force =     0.00000000    0.00000000    0.00000000
     atom   32 type  2   force =     0.00000000    0.00000000    0.00000000
     atom   33 type  1   force =     0.00000000    0.00000000    0.00000000
     atom   34 type  2   force =     0.00000000    0.00000000    0.00000000
     atom   35 type  2   force =     0.00000000    0.00000000    0.00000000
     atom   36 type  3   force =     0.00000000    0.00000000    0.00000000
     The SCF correction term to forces
     atom    1 type  1   force =    -0.00017383    0.00035988   -0.00035930
     atom    2 type  2   force =    -0.00002097   -0.00000185   -0.00017736
     atom    3 type  2   force =    -0.00000486    0.00004357   -0.00003384
     atom    4 type  1   force =    -0.00042892    0.00010122   -0.00037388
     atom    5 type  2   force =    -0.00012404    0.00008119   -0.00038082
     atom    6 type  2   force =    -0.00012424    0.00010994    0.00017786
     atom    7 type  1   force =    -0.00036053   -0.00031048   -0.00011264
     atom    8 type  2   force =    -0.00016214   -0.00005285   -0.00034128
     atom    9 type  2   force =    -0.00011369   -0.00007165    0.00011389
     atom   10 type  1   force =    -0.00001362   -0.00005241   -0.00012002
     atom   11 type  2   force =    -0.00007714   -0.00004388   -0.00025520
     atom   12 type  2   force =    -0.00004853   -0.00006624    0.00006314
     atom   13 type  1   force =    -0.00010669    0.00032849   -0.00041676
     atom   14 type  2   force =     0.00002596    0.00010737    0.00001435
     atom   15 type  2   force =    -0.00002653    0.00006549    0.00001680
     atom   16 type  1   force =     0.00006439    0.00025986   -0.00020215
     atom   17 type  2   force =     0.00011825    0.00003859   -0.00035620
     atom   18 type  2   force =     0.00011208    0.00007539    0.00019134
     atom   19 type  1   force =     0.00041838   -0.00031142   -0.00012968
     atom   20 type  2   force =     0.00001627   -0.00013123    0.00027111
     atom   21 type  1   force =     0.00001969   -0.00033126   -0.00025820
     atom   22 type  2   force =     0.00007944   -0.00001782   -0.00023556
     atom   23 type  2   force =     0.00003854   -0.00002146    0.00005586
     atom   24 type  1   force =     0.00019192   -0.00000637   -0.00022791
     atom   25 type  2   force =     0.00002794    0.00002873   -0.00022427
     atom   26 type  2   force =     0.00005514    0.00006086    0.00005262
     atom   27 type  1   force =     0.00035154   -0.00001133   -0.00032579
     atom   28 type  2   force =     0.00001439   -0.00003725   -0.00026770
     atom   29 type  2   force =     0.00000691    0.00002817    0.00002871
     atom   30 type  1   force =    -0.00001704   -0.00014324   -0.00030702
     atom   31 type  2   force =     0.00012847   -0.00005244   -0.00032235
     atom   32 type  2   force =     0.00008339   -0.00007177    0.00009651
     atom   33 type  1   force =     0.00002272    0.00009040   -0.00015028
     atom   34 type  2   force =    -0.00000590    0.00010461   -0.00026231
     atom   35 type  2   force =     0.00001335    0.00001769    0.00000452
     atom   36 type  3   force =    -0.00000905   -0.00000675   -0.00004648

     Total force =     0.273442     Total SCF correction =     0.001864
     Energy error            =      1.2E-01 Ry
     Gradient error          =      1.8E-01 Ry/Bohr

     number of scf cycles    =   2
     number of bfgs steps    =   1

     energy             old  =   -2205.3911712566 Ry
     energy             new  =   -2205.5073983116 Ry

     CASE: energy            _new < energy            _old

     new trust radius        =       0.1358880636 bohr
     new conv_thr            =       0.0000001849 Ry


ATOMIC_POSITIONS (angstrom)
Mo            6.5957950062        1.7780499709        2.8088987707
S             8.1652355082        0.8224901222        4.4358712548
S             8.1836592642        0.8188531479        1.2734153088
Mo            8.1033593685        4.4909359386        2.7188247592
S             6.4979906202        3.7168089433        4.3437174592
S             6.5570038215        3.5202159087        1.1225150754
Mo            6.4916323929        7.2164934994        2.6677781762
S             8.0829317937        6.3395633209        4.2550596307
S             8.0923266664        6.3079132214        1.0919615481
Mo            8.1524019660        9.9102305534        2.8238224668
S             6.5008109381        8.9359215102        4.3803403799
S             6.6167162557        9.0507369695        1.1415169657
Mo            3.4008531546        1.7704821804        2.7552624355
S             4.9312151570        0.7641777538        4.1730604637
S             5.0495507969        0.8478735376        1.2143241589
Mo            4.9800627612        4.5126380709        2.6318144601
S             3.4330070135        3.6735098030        4.2836175475
S             3.4341200506        3.5435916566        1.0688575247
Mo            3.4578988453        7.2139708362        2.6290630317
S             4.9858656759        6.3229983301        1.0373473484
Mo            5.0141480319        9.8616657880        2.7238319553
S             3.4655407236        8.9359910088        4.3258157436
S             3.4090109983        9.0666165614        1.1011386431
Mo            0.2892987828        1.7467402219        2.8353386308
S             1.8585793070        0.8059265316        4.4038042544
S             1.8519696427        0.8534197173        1.2058478480
Mo            1.8557564058        4.4917043323        2.6675988257
S             0.2726897641        3.6538803398        4.3329214574
S             0.2336818846        3.5286015659        1.1685072942
Mo            0.2684347439        7.2244876674        2.6989480966
S             1.9030322710        6.3121387232        4.2344689447
S             1.8537042659        6.3139254503        1.0511815075
Mo            1.8546347728        9.9376878623        2.7675421642
S             0.2979410824        9.0565292839        4.4035833812
S             0.2705478581        9.0492750860        1.1615284969
H             5.3146949760        1.2992232180        5.5106983528



     Writing config-only to output data dir ./MoS2-V-O.save/
     NEW-OLD atomic charge density approx. for the potential

     negative rho (up, down):  1.495E-04 0.000E+00

     total cpu time spent up to now is      224.2 secs

     Self-consistent Calculation

     iteration #  1     ecut=    80.00 Ry     beta= 0.70
     Davidson diagonalization with overlap
     ethr =  1.00E-06,  avg # of iterations = 14.0

     negative rho (up, down):  4.110E-05 0.000E+00

     total cpu time spent up to now is      254.8 secs

     total energy              =   -2205.54349368 Ry
     estimated scf accuracy    <       0.01365732 Ry

     iteration #  2     ecut=    80.00 Ry     beta= 0.70
     Davidson diagonalization with overlap
     ethr =  4.45E-06,  avg # of iterations =  2.0

     negative rho (up, down):  4.109E-05 0.000E+00

     total cpu time spent up to now is      270.9 secs

     total energy              =   -2205.54422542 Ry
     estimated scf accuracy    <       0.00293971 Ry

     iteration #  3     ecut=    80.00 Ry     beta= 0.70
     Davidson diagonalization with overlap
     ethr =  9.58E-07,  avg # of iterations =  2.0

     negative rho (up, down):  3.768E-05 0.000E+00

     total cpu time spent up to now is      287.4 secs

     total energy              =   -2205.54435462 Ry
     estimated scf accuracy    <       0.00091645 Ry

     iteration #  4     ecut=    80.00 Ry     beta= 0.70
     Davidson diagonalization with overlap
     ethr =  2.99E-07,  avg # of iterations =  6.0

     negative rho (up, down):  3.815E-05 0.000E+00

     total cpu time spent up to now is      304.2 secs

     total energy              =   -2205.54443652 Ry
     estimated scf accuracy    <       0.00008159 Ry

     iteration #  5     ecut=    80.00 Ry     beta= 0.70
     Davidson diagonalization with overlap
     ethr =  2.66E-08,  avg # of iterations =  6.0

     negative rho (up, down):  3.562E-05 0.000E+00

     total cpu time spent up to now is      319.1 secs

     total energy              =   -2205.54445430 Ry
     estimated scf accuracy    <       0.00002371 Ry

     iteration #  6     ecut=    80.00 Ry     beta= 0.70
     Davidson diagonalization with overlap
     ethr =  7.72E-09,  avg # of iterations =  3.0

     negative rho (up, down):  3.047E-05 0.000E+00

     total cpu time spent up to now is      329.2 secs

     total energy              =   -2205.54445841 Ry
     estimated scf accuracy    <       0.00000803 Ry

     iteration #  7     ecut=    80.00 Ry     beta= 0.70
     Davidson diagonalization with overlap
     ethr =  2.62E-09,  avg # of iterations =  6.0

     negative rho (up, down):  2.821E-05 0.000E+00

     total cpu time spent up to now is      342.3 secs

     total energy              =   -2205.54446023 Ry
     estimated scf accuracy    <       0.00000458 Ry

     iteration #  8     ecut=    80.00 Ry     beta= 0.70
     Davidson diagonalization with overlap
     ethr =  1.49E-09,  avg # of iterations =  2.0

     negative rho (up, down):  2.742E-05 0.000E+00

     total cpu time spent up to now is      353.8 secs

     total energy              =   -2205.54446138 Ry
     estimated scf accuracy    <       0.00000228 Ry

     iteration #  9     ecut=    80.00 Ry     beta= 0.70
     Davidson diagonalization with overlap
     ethr =  7.42E-10,  avg # of iterations =  3.0

     negative rho (up, down):  3.807E-05 0.000E+00

     total cpu time spent up to now is      362.4 secs

     total energy              =   -2205.54446209 Ry
     estimated scf accuracy    <       0.00000072 Ry

     iteration # 10     ecut=    80.00 Ry     beta= 0.70
     Davidson diagonalization with overlap
     ethr =  2.33E-10,  avg # of iterations =  6.0

     negative rho (up, down):  6.250E-05 0.000E+00

     total cpu time spent up to now is      370.9 secs

     total energy              =   -2205.54446222 Ry
     estimated scf accuracy    <       0.00000019 Ry

     iteration # 11     ecut=    80.00 Ry     beta= 0.70
     Davidson diagonalization with overlap
     ethr =  6.16E-11,  avg # of iterations =  4.0

     negative rho (up, down):  1.366E-04 0.000E+00

     total cpu time spent up to now is      373.3 secs

     End of self-consistent calculation

          k = 0.0000 0.0000 0.0000 (105382 PWs)   bands (ev):

   -62.9227 -62.8304 -62.8144 -62.7872 -62.7823 -62.7745 -62.7693 -62.7599
   -62.6878 -62.5822 -62.5645 -62.4910 -37.2549 -37.1522 -37.1368 -37.1145
   -37.0909 -37.0848 -37.0696 -37.0566 -37.0128 -37.0040 -37.0009 -36.9730
   -36.9628 -36.9588 -36.9532 -36.9500 -36.9480 -36.9407 -36.9379 -36.9243
   -36.8921 -36.8592 -36.8529 -36.8423 -36.8103 -36.8052 -36.7989 -36.7818
   -36.7575 -36.7423 -36.7355 -36.7150 -36.6722 -36.6420 -36.5290 -36.5229
   -16.4537 -15.6766 -15.1276 -14.9718 -14.8975 -14.8063 -14.5743 -14.4343
   -14.3962 -14.3666 -14.3481 -14.3221 -14.2704 -14.2422 -14.0956 -14.0666
   -14.0492 -14.0485 -14.0003 -13.8279 -13.7689 -13.7432 -13.7131  -9.0284
    -7.7104  -7.4982  -7.3803  -7.2583  -7.2272  -7.1943  -7.0923  -7.0159
    -6.8387  -6.7382  -6.6741  -6.6361  -6.5858  -6.5022  -6.4178  -6.3905
    -6.3679  -6.2584  -6.1727  -5.9787  -5.8815  -5.8372  -5.7545  -5.7459
    -5.7230  -5.6893  -5.6265  -5.5944  -5.5686  -5.5570  -5.4500  -5.3926
    -5.3735  -5.3007  -5.1715  -5.0848  -5.0187  -4.9594  -4.9477  -4.8952
    -4.8688  -4.7653  -4.6648  -4.4718  -4.3977  -4.3529  -4.2774  -4.1721
    -4.1420  -4.0404  -3.9716  -3.9306  -3.8885  -3.7355  -3.6567  -3.6205
    -3.5790  -3.4953  -3.4669  -3.4462  -3.4384  -3.4210  -3.3799  -3.3460
    -3.3189  -3.1922  -3.0827  -2.9135  -2.8176  -2.7565  -2.7373  -2.7156
    -2.6421  -2.6292  -2.5947  -2.5318  -2.4611  -2.1883  -1.9384  -1.9285
    -1.8244  -0.6485  -0.6055  -0.5737  -0.1582  -0.0825  -0.0325   0.1017
     0.1391   0.1820   0.2217   0.2466   0.2814   0.3600   0.5026   0.5113
     0.5570   0.6197   0.6288   0.6747   0.6808   0.7462   0.7723   0.7930
     0.8170   0.8936   0.9508   0.9580   1.0240   1.0341   1.1212   1.3196
     1.4755

     the Fermi energy is    -0.7070 ev

!    total energy              =   -2205.54446209 Ry
     estimated scf accuracy    <       0.00000008 Ry
     smearing contrib. (-TS)   =      -0.01008122 Ry
     internal energy E=F+TS    =   -2205.53438088 Ry

     The total energy is F=E-TS. E is the sum of the following terms:
     one-electron contribution =  -18071.05671266 Ry
     hartree contribution      =    9022.89941191 Ry
     xc contribution           =    -385.42098408 Ry
     ewald contribution        =    7228.04390395 Ry

     convergence has been achieved in  11 iterations

     negative rho (up, down):  1.366E-04 0.000E+00

     Forces acting on atoms (cartesian axes, Ry/au):

     atom    1 type  1   force =     0.01037590   -0.00234794   -0.01364533
     atom    2 type  2   force =    -0.00954595    0.01011825   -0.00178858
     atom    3 type  2   force =    -0.00649604    0.00624577   -0.01333686
     atom    4 type  1   force =     0.00595975   -0.00074892    0.00264436
     atom    5 type  2   force =    -0.00003560   -0.00913757   -0.00499963
     atom    6 type  2   force =     0.00472876    0.00810150   -0.00089988
     atom    7 type  1   force =     0.00558724   -0.00398282   -0.00103613
     atom    8 type  2   force =     0.00134831   -0.00462760    0.00903216
     atom    9 type  2   force =     0.01109133    0.00269444    0.00656730
     atom   10 type  1   force =    -0.00486560    0.00762014   -0.00615603
     atom   11 type  2   force =     0.00505962   -0.00666049   -0.00590199
     atom   12 type  2   force =     0.00286035   -0.00336287   -0.00737818
     atom   13 type  1   force =    -0.01063887    0.01419267   -0.01079231
     atom   14 type  2   force =     0.04466997    0.06711516    0.11267906
     atom   15 type  2   force =    -0.00903571   -0.00227380   -0.01115866
     atom   16 type  1   force =     0.00041672   -0.00080427    0.00087920
     atom   17 type  2   force =     0.00391104    0.00173584    0.00319348
     atom   18 type  2   force =    -0.00536151    0.00127101    0.00402844
     atom   19 type  1   force =    -0.00041598   -0.00554661    0.00087501
     atom   20 type  2   force =     0.00281164   -0.00413031   -0.00221431
     atom   21 type  1   force =    -0.00237084   -0.01783464   -0.00464760
     atom   22 type  2   force =    -0.00294909   -0.00790530   -0.00121011
     atom   23 type  2   force =    -0.00240602   -0.00370621   -0.00285532
     atom   24 type  1   force =    -0.00620406   -0.00280125   -0.00606625
     atom   25 type  2   force =     0.00589050    0.01253570   -0.00072517
     atom   26 type  2   force =    -0.01162256   -0.00242060   -0.00945114
     atom   27 type  1   force =    -0.00190899   -0.00007352    0.00740951
     atom   28 type  2   force =    -0.00000307   -0.00270813   -0.00390398
     atom   29 type  2   force =     0.00251010    0.00235273   -0.00532132
     atom   30 type  1   force =    -0.00176650    0.00012802    0.00325194
     atom   31 type  2   force =     0.00024857   -0.00029519    0.00881556
     atom   32 type  2   force =    -0.00792506    0.00304965    0.00667032
     atom   33 type  1   force =     0.00651941    0.00086033    0.00267746
     atom   34 type  2   force =    -0.00019691   -0.02633845   -0.01481444
     atom   35 type  2   force =    -0.00474008    0.00676813    0.00602243
     atom   36 type  3   force =    -0.02550082   -0.03708285   -0.04644303
     The non-local contrib.  to forces
     atom    1 type  1   force =     0.00906749    0.03698060   -0.00750249
     atom    2 type  2   force =    -0.00919745    0.00236367   -0.26079113
     atom    3 type  2   force =    -0.00983804   -0.00595193    0.26293064
     atom    4 type  1   force =    -0.00111510    0.01431714    0.00317828
     atom    5 type  2   force =     0.00764757   -0.03822584   -0.24252993
     atom    6 type  2   force =     0.00028992    0.00417237    0.26152169
     atom    7 type  1   force =    -0.02682372   -0.01614513   -0.01598876
     atom    8 type  2   force =     0.00365095   -0.00357517   -0.25959060
     atom    9 type  2   force =     0.00757641   -0.01271662    0.27383625
     atom   10 type  1   force =     0.00455399   -0.00282374   -0.00285048
     atom   11 type  2   force =     0.01159565    0.00708414   -0.25646993
     atom   12 type  2   force =    -0.01074763   -0.01807865    0.25511278
[...]
     atom   27 type  1   force =    -0.00201693    0.01819750    0.00355865
     atom   28 type  2   force =     0.00028294   -0.01695019   -0.27204522
     atom   29 type  2   force =     0.00003405   -0.01074198    0.26963489
     atom   30 type  1   force =    -0.00018423    0.01983567    0.00739376
     atom   31 type  2   force =    -0.00732821   -0.00140508   -0.26470700
     atom   32 type  2   force =     0.00189989   -0.01363227    0.26356996
     atom   33 type  1   force =    -0.00044133   -0.00068114    0.00043280
     atom   34 type  2   force =     0.00070750   -0.00603933   -0.27069215
     atom   35 type  2   force =    -0.00049463   -0.00948276    0.26747858
     atom   36 type  3   force =    -0.00013300   -0.00186161   -0.06433859
     The ionic contribution  to forces
     atom    1 type  1   force =    -0.89431379    0.01367541    2.16551486
     atom    2 type  2   force =    -0.22635318   -0.14252242   38.93052271
     atom    3 type  2   force =    -0.08539131   -0.24601169  -37.67398967
     atom    4 type  1   force =    -0.41293456    0.50753576    0.27242306
     atom    5 type  2   force =    -0.95412549    1.33451275   38.53189922
     atom    6 type  2   force =    -0.07904889   -0.32718279  -38.27987721
     atom    7 type  1   force =    -3.48270001   -1.98826247    1.70298254
     atom    8 type  2   force =    -1.25321854    0.15887933   38.37558391
     atom    9 type  2   force =     0.22007015    0.05986273  -38.32254655
     atom   10 type  1   force =    -0.59117243   -0.31517544    2.74379599
     atom   11 type  2   force =    -0.48344401   -1.41281740   38.73803331
     atom   12 type  2   force =     0.05025226    0.47690399  -38.04276274
     atom   13 type  1   force =     0.89590174   -0.10474852    2.25425111
     atom   14 type  2   force =    -0.00311761   -0.25767159   35.13270038
     atom   15 type  2   force =    -0.04214645   -0.31720116  -36.37379954
     atom   16 type  1   force =     0.16787872    3.79623045    1.98451480
     atom   17 type  2   force =     0.98033600    1.29827371   38.65169404
     atom   18 type  2   force =     0.04618005   -0.34536954  -38.31794582
     atom   19 type  1   force =     3.51836915   -1.75889810    2.84894039
     atom   20 type  2   force =    -0.01338203    0.10769741  -38.05031500
     atom   21 type  1   force =    -0.10035996    0.24687116    2.11126237
     atom   22 type  2   force =     0.49604823   -1.37405535   38.77644303
     atom   23 type  2   force =    -0.09798349    0.44011100  -37.81803197
     atom   24 type  1   force =     0.01273983    0.11379235    2.22818361
     atom   25 type  2   force =     0.22161548   -0.14448359   38.94087683
     atom   26 type  2   force =     0.11552021   -0.29134861  -37.60731290
     atom   27 type  1   force =     0.29550941    0.47782628    0.52726111
     atom   28 type  2   force =    -0.03478706    0.47936906   38.23666299
     atom   29 type  2   force =     0.01651423   -0.20498821  -37.75401559
     atom   30 type  1   force =     0.03985287   -0.10392540    1.64584393
     atom   31 type  2   force =     1.15467710    0.19153610   38.51452815
     atom   32 type  2   force =    -0.19659794    0.10126132  -38.18081777
     atom   33 type  1   force =     0.67868355   -0.34494250    3.03263586
     atom   34 type  2   force =    -0.01096228   -0.43761866   38.67225504
     atom   35 type  2   force =     0.04787906    0.27276675  -37.30580770
     atom   36 type  3   force =     0.00401099    0.04011792    8.70841322
     The local contribution  to forces
     atom    1 type  1   force =     0.88071092   -0.04431658   -2.15404195
     atom    2 type  2   force =     0.23505984    0.14518353  -38.69510169
     atom    3 type  2   force =     0.08754332    0.25141089   37.42872301
     atom    4 type  1   force =     0.41025315   -0.52556688   -0.27585818
     atom    5 type  2   force =     0.95107649   -1.30736417  -38.30478955
     atom    6 type  2   force =     0.07355885    0.33161875   38.03802385
     atom    7 type  1   force =     3.50817311    1.99581880   -1.69599932
     atom    8 type  2   force =     1.24502260   -0.15751296  -38.13194539
     atom    9 type  2   force =    -0.21625100   -0.04845162   38.08044840
     atom   10 type  1   force =     0.59099592    0.31508177   -2.74438973
     atom   11 type  2   force =     0.48188109    1.40334733  -38.50783601
     atom   12 type  2   force =    -0.04670444   -0.45960048   37.80017269
     atom   13 type  1   force =    -0.88243420    0.07221670   -2.24318129
     atom   14 type  2   force =     0.00169337    0.25242648  -35.39519237
     atom   15 type  2   force =     0.04167383    0.32535300   36.11287117
     atom   16 type  1   force =    -0.16956950   -3.85260949   -1.96168044
     atom   17 type  2   force =    -0.97790920   -1.27093651  -38.42413012
     atom   18 type  2   force =    -0.04030798    0.35029386   38.07668631
     atom   19 type  1   force =    -3.54596976    1.76557488   -2.83859420
     atom   20 type  2   force =     0.01254426   -0.09138777   37.80499940
     atom   21 type  1   force =     0.09922786   -0.24156078   -2.09756745
     atom   22 type  2   force =    -0.49449412    1.36656972  -38.54555583
     atom   23 type  2   force =     0.09314143   -0.42334480   37.57390896
     atom   24 type  1   force =    -0.01187606   -0.13530720   -2.22717662
     atom   25 type  2   force =    -0.23047375    0.14721073  -38.70566026
     atom   26 type  2   force =    -0.11743275    0.29638161   37.36148401
     atom   27 type  1   force =    -0.29341654   -0.49588324   -0.53064905
     atom   28 type  2   force =     0.03448927   -0.46346789  -37.98576457
     atom   29 type  2   force =    -0.01635430    0.21526181   37.50558665
     atom   30 type  1   force =    -0.03938950    0.08380073   -1.65290298
     atom   31 type  2   force =    -1.14731096   -0.19080855  -38.27066034
     atom   32 type  2   force =     0.19390759   -0.08859328   37.93876868
     atom   33 type  1   force =    -0.67863294    0.34545581   -3.03353063
     atom   34 type  2   force =     0.01040386    0.44278584  -38.42335661
     atom   35 type  2   force =    -0.04723220   -0.26307087   37.05804667
     atom   36 type  3   force =    -0.00381236   -0.03881079   -8.64202062
     The core correction contribution to forces
     atom    1 type  1   force =     0.00000000    0.00000000    0.00000000
     atom    2 type  2   force =     0.00066935    0.00002363    0.02022374
     atom    3 type  2   force =     0.00013613    0.00013330   -0.02099359
     atom    4 type  1   force =     0.00000000    0.00000000    0.00000000
     atom    5 type  2   force =    -0.00025720    0.00179657    0.01985436
     atom    6 type  2   force =    -0.00034929    0.00006179   -0.02079178
     atom    7 type  1   force =     0.00000000    0.00000000    0.00000000
     atom    8 type  2   force =    -0.00050654    0.00031120    0.02080792
     atom    9 type  2   force =     0.00047889    0.00056524   -0.02081578
     atom   10 type  1   force =     0.00000000    0.00000000    0.00000000
     atom   11 type  2   force =     0.00034469   -0.00119730    0.02006057
     atom   12 type  2   force =     0.00049403    0.00109745   -0.02086599
     atom   13 type  1   force =     0.00000000    0.00000000    0.00000000
     atom   14 type  2   force =    -0.00007758   -0.00078855   -0.01144365
     atom   15 type  2   force =     0.00000314    0.00015870   -0.02129079
     atom   16 type  1   force =     0.00000000    0.00000000    0.00000000
     atom   17 type  2   force =     0.00025930    0.00177803    0.01990872
     atom   18 type  2   force =     0.00029858    0.00003947   -0.02080667
     atom   19 type  1   force =     0.00000000    0.00000000    0.00000000
     atom   20 type  2   force =    -0.00009824    0.00082970   -0.02107322
     atom   21 type  1   force =     0.00000000    0.00000000    0.00000000
     atom   22 type  2   force =    -0.00031116   -0.00099202    0.02007419
     atom   23 type  2   force =    -0.00059394    0.00093252   -0.02085184
     atom   24 type  1   force =     0.00000000    0.00000000    0.00000000
     atom   25 type  2   force =    -0.00070292    0.00006075    0.02020500
     atom   26 type  2   force =    -0.00009892    0.00012905   -0.02098621
     atom   27 type  1   force =     0.00000000    0.00000000    0.00000000
     atom   28 type  2   force =    -0.00003410    0.00112458    0.02098549
     atom   29 type  2   force =     0.00001005    0.00032797   -0.02087029
     atom   30 type  1   force =     0.00000000    0.00000000    0.00000000
     atom   31 type  2   force =     0.00035094    0.00029734    0.02081870
     atom   32 type  2   force =    -0.00036983    0.00068236   -0.02078796
     atom   33 type  1   force =     0.00000000    0.00000000    0.00000000
     atom   34 type  2   force =    -0.00005470    0.00012759    0.02090637
     atom   35 type  2   force =     0.00004212    0.00054146   -0.02088654
     atom   36 type  3   force =     0.00000000    0.00000000    0.00000000
     The Hubbard contrib.    to forces
     atom    1 type  1   force =     0.00000000    0.00000000    0.00000000
     atom    2 type  2   force =     0.00000000    0.00000000    0.00000000
     atom    3 type  2   force =     0.00000000    0.00000000    0.00000000
     atom    4 type  1   force =     0.00000000    0.00000000    0.00000000
     atom    5 type  2   force =     0.00000000    0.00000000    0.00000000
     atom    6 type  2   force =     0.00000000    0.00000000    0.00000000
     atom    7 type  1   force =     0.00000000    0.00000000    0.00000000
     atom    8 type  2   force =     0.00000000    0.00000000    0.00000000
     atom    9 type  2   force =     0.00000000    0.00000000    0.00000000
     atom   10 type  1   force =     0.00000000    0.00000000    0.00000000
     atom   11 type  2   force =     0.00000000    0.00000000    0.00000000
     atom   12 type  2   force =     0.00000000    0.00000000    0.00000000
     atom   13 type  1   force =     0.00000000    0.00000000    0.00000000
     atom   14 type  2   force =     0.00000000    0.00000000    0.00000000
     atom   15 type  2   force =     0.00000000    0.00000000    0.00000000
     atom   16 type  1   force =     0.00000000    0.00000000    0.00000000
     atom   17 type  2   force =     0.00000000    0.00000000    0.00000000
     atom   18 type  2   force =     0.00000000    0.00000000    0.00000000
     atom   19 type  1   force =     0.00000000    0.00000000    0.00000000
     atom   20 type  2   force =     0.00000000    0.00000000    0.00000000
     atom   21 type  1   force =     0.00000000    0.00000000    0.00000000
     atom   22 type  2   force =     0.00000000    0.00000000    0.00000000
     atom   23 type  2   force =     0.00000000    0.00000000    0.00000000
     atom   24 type  1   force =     0.00000000    0.00000000    0.00000000
     atom   25 type  2   force =     0.00000000    0.00000000    0.00000000
     atom   26 type  2   force =     0.00000000    0.00000000    0.00000000
     atom   27 type  1   force =     0.00000000    0.00000000    0.00000000
     atom   28 type  2   force =     0.00000000    0.00000000    0.00000000
     atom   29 type  2   force =     0.00000000    0.00000000    0.00000000
     atom   30 type  1   force =     0.00000000    0.00000000    0.00000000
     atom   31 type  2   force =     0.00000000    0.00000000    0.00000000
     atom   32 type  2   force =     0.00000000    0.00000000    0.00000000
     atom   33 type  1   force =     0.00000000    0.00000000    0.00000000
     atom   34 type  2   force =     0.00000000    0.00000000    0.00000000
     atom   35 type  2   force =     0.00000000    0.00000000    0.00000000
     atom   36 type  3   force =     0.00000000    0.00000000    0.00000000
     The SCF correction term to forces
     atom    1 type  1   force =     0.00003000   -0.00000536   -0.00003652
     atom    2 type  2   force =     0.00002022   -0.00002177   -0.00000988
     atom    3 type  2   force =     0.00001193   -0.00000178   -0.00001035
     atom    4 type  1   force =     0.00002323    0.00001542   -0.00001507
     atom    5 type  2   force =     0.00000803    0.00002093   -0.00000750
     atom    6 type  2   force =     0.00001015    0.00001216   -0.00002041
     atom    7 type  1   force =    -0.00002245    0.00000213    0.00000070
     atom    8 type  2   force =     0.00001169   -0.00000054    0.00000129
     atom    9 type  2   force =     0.00000922   -0.00001425   -0.00000633
     atom   10 type  1   force =     0.00002729    0.00000541    0.00000245
     atom   11 type  2   force =    -0.00001273    0.00000280    0.00000755
     atom   12 type  2   force =    -0.00000172    0.00000809   -0.00000278
     atom   13 type  1   force =    -0.00003553   -0.00000646   -0.00001424
     atom   14 type  2   force =    -0.00000852   -0.00001309    0.00001273
     atom   15 type  2   force =    -0.00000091   -0.00000994   -0.00001662
     atom   16 type  1   force =    -0.00002911    0.00004370   -0.00002628
     atom   17 type  2   force =    -0.00001714    0.00002202   -0.00000186
     atom   18 type  2   force =    -0.00000990    0.00001393   -0.00000799
     atom   19 type  1   force =    -0.00001615    0.00000237    0.00003078
     atom   20 type  2   force =    -0.00001684   -0.00000293    0.00001083
     atom   21 type  1   force =    -0.00002536   -0.00003930    0.00000498
     atom   22 type  2   force =    -0.00000337   -0.00001745   -0.00000051
     atom   23 type  2   force =    -0.00000451   -0.00001493    0.00002632
     atom   24 type  1   force =     0.00001756    0.00000069   -0.00002242
     atom   25 type  2   force =    -0.00000409   -0.00001978   -0.00000046
     atom   26 type  2   force =    -0.00001713   -0.00000074    0.00000079
     atom   27 type  1   force =     0.00000342    0.00004300   -0.00000718
     atom   28 type  2   force =     0.00000995    0.00000871   -0.00001544
     atom   29 type  2   force =    -0.00000103    0.00000159   -0.00000195
     atom   30 type  1   force =     0.00004665   -0.00000261    0.00001255
     atom   31 type  2   force =     0.00002012    0.00001117   -0.00001029
     atom   32 type  2   force =     0.00000872   -0.00000286    0.00002280
     atom   33 type  1   force =     0.00000252   -0.00002236    0.00001723
     atom   34 type  2   force =     0.00001560   -0.00000424    0.00000185
     atom   35 type  2   force =     0.00000189    0.00000487    0.00000431
     atom   36 type  3   force =    -0.00000175   -0.00000247    0.00000150

     Total force =     0.006377     Total SCF correction =     0.000168
     Energy error            =      8.7E-05 Ry
     Gradient error          =      2.1E-03 Ry/Bohr

     bfgs converged in  25 scf cycles and  24 bfgs steps
     (criteria: energy <  1.0E-04 Ry, force <  1.0E-02 Ry/Bohr)

     End of BFGS Geometry Optimization

     Final energy             =   -2205.5885270442 Ry

     File ./MoS2-V-O.bfgs deleted, as requested
Begin final coordinates

ATOMIC_POSITIONS (angstrom)
Mo            6.6103947394        1.8095302434        2.7581987102
S             8.1484353335        0.8684319775        4.3694481161
S             8.1481584295        0.8589245915        1.1661153214
Mo            8.1370232899        4.5101879498        2.7049357947
S             6.5446280284        3.6991568223        4.3189966413
S             6.5731373145        3.5862656567        1.0965300740
Mo            6.5664984090        7.1919296845        2.6540718709
S             8.1068832447        6.3130213951        4.2994766134
S             8.1664361092        6.3281777550        1.0879676605
Mo            8.1349866309        9.9580887578        2.7649396007
S             6.5553216315        8.9244128150        4.3416282306
S             6.5983354182        9.0467940190        1.1180483440
Mo            3.3961097886        1.8113656365        2.7605601712
S             5.0039037291        0.8309665849        4.2271854066
S             5.0041663008        0.8418879088        1.2193691945
Mo            4.9971853881        4.5315707822        2.6599878372
S             3.4586900675        3.6977293662        4.3265242437
S             3.4293680248        3.5840868315        1.0974912153
Mo            3.4433207564        7.1790021930        2.6747262120
S             4.9989688596        6.3270894553        1.0675371568
Mo            5.0048853596        9.8463033644        2.7515052199
S             3.4529872396        8.9280690921        4.3495039686
S             3.4073529091        9.0347115175        1.1322364126
Mo            0.2737858750        1.7504204733        2.7656023738
S             1.8555436266        0.8712720018        4.3719532572
S             1.8597055714        0.8579104579        1.1708716297
Mo            1.8673401635        4.5086784674        2.7109376486
S             0.2708271854        3.6204140313        4.3111114495
S             0.2749968739        3.5691443392        1.1401172455
Mo            0.2732324193        7.2266631428        2.7291163758
S             1.8894908823        6.3095077691        4.3111493200
S             1.8463847926        6.3302368252        1.1006596807
Mo            1.8714990232        9.9571042541        2.7716180319
S             0.2722000616        9.0451286607        4.3508549235
S             0.2771116726        9.0718795518        1.1793334921
H             5.0068074181        0.8692042581        5.5895149176
End final coordinates



     Writing all to output data dir ./MoS2-V-O.save/
 
     init_run     :      2.44s CPU      2.75s WALL (       1 calls)
     electrons    :   2356.89s CPU   2626.41s WALL (      25 calls)
     update_pot   :     34.41s CPU     36.37s WALL (      24 calls)
     forces       :     34.19s CPU     39.74s WALL (      25 calls)

     Called by init_run:
     wfcinit      :      0.38s CPU      0.43s WALL (       1 calls)
     potinit      :      1.38s CPU      1.53s WALL (       1 calls)
     hinit0       :      0.17s CPU      0.19s WALL (       1 calls)

     Called by electrons:
     c_bands      :    301.52s CPU    306.62s WALL (     227 calls)
     sum_band     :     68.28s CPU     88.23s WALL (     227 calls)
     v_of_rho     :    102.08s CPU    124.81s WALL (     235 calls)
     newd         :     31.44s CPU     50.57s WALL (     235 calls)
     mix_rho      :   1864.20s CPU   2067.39s WALL (     227 calls)

     Called by c_bands:
     init_us_2    :      4.83s CPU      5.20s WALL (     455 calls)
     init_us_2:cp :      4.82s CPU      5.20s WALL (     455 calls)
     regterg      :    284.47s CPU    289.15s WALL (     227 calls)

     Called by *egterg:
     rdiaghg      :     21.27s CPU     21.50s WALL (    1259 calls)
     h_psi        :    152.26s CPU    153.72s WALL (    1301 calls)
     s_psi        :     18.41s CPU     18.47s WALL (    1301 calls)
     g_psi        :      1.72s CPU      1.74s WALL (    1073 calls)

     Called by h_psi:
     h_psi:calbec :     22.36s CPU     22.49s WALL (    1301 calls)
     vloc_psi     :    107.95s CPU    109.13s WALL (    1301 calls)
     add_vuspsi   :     18.47s CPU     18.59s WALL (    1301 calls)

     General routines
     calbec       :     31.68s CPU     31.85s WALL (    1628 calls)
     fft          :     67.08s CPU     78.37s WALL (   15801 calls)
     ffts         :    835.79s CPU   1032.58s WALL (  454079 calls)
     fftw         :     92.83s CPU     93.76s WALL (  134995 calls)
     interpolate  :      1.71s CPU      2.01s WALL (     235 calls)
 
     Parallel routines
 
     PWSCF        :  40m32.32s CPU  45m13.05s WALL

 
   This run was terminated on:  22:11:11   3Nov2023            

=------------------------------------------------------------------------------=
   JOB DONE.
=------------------------------------------------------------------------------=
