
     Program PWSCF v.7.2 starts on  4Nov2023 at  9:14:31 

     This program is part of the open-source Quantum ESPRESSO suite
     for quantum simulation of materials; please cite
         "P. Giannozzi et al., J. Phys.:Condens. Matter 21 395502 (2009);
         "P. Giannozzi et al., J. Phys.:Condens. Matter 29 465901 (2017);
         "P. Giannozzi et al., J. Chem. Phys. 152 154105 (2020);
          URL http://www.quantum-espresso.org", 
     in publications or presentations arising from this work. More details at
     http://www.quantum-espresso.org/quote

     Parallel version (MPI & OpenMP), running on      48 processor cores
     Number of MPI processes:                48
     Threads/MPI process:                     1

     MPI processes distributed on     1 nodes
     19994 MiB available memory on the printing compute node when the environment starts
 
     Waiting for input...
     Reading input from standard input
Warning: card &CELL ignored
Warning: card CELL_DYNAMICS = 'BFGS', ignored
Warning: card CELL_DOFREE = '2DXY' ignored
Warning: card / ignored

     Current dimensions of program PWSCF are:
     Max number of different atomic species (ntypx) = 10
     Max number of k-points (npk) =  40000
     Max angular momentum in pseudopotentials (lmaxx) =  4

     IMPORTANT: XC functional enforced from input :
     Exchange-correlation= RVV10
                           (   1   4  13   4  26   0   0)
     Any further DFT definition will be discarded
     Please, verify this is what you really want


     gamma-point specific algorithms are used
     signal trapping enabled: kill the code with -SIGUSR1 to stop cleanly the simulation 
 
     R & G space division:  proc/nbgrp/npool/nimage =      48
     Subspace diagonalization in iterative solution of the eigenvalue problem:
     one sub-group per band group will be used
     scalapack distributed-memory algorithm (size of sub-group:  2*  2 procs)

 
     Parallelization info
     --------------------
     sticks:   dense  smooth     PW     G-vecs:    dense   smooth      PW
     Min         243     194     47                49060    35090    4376
     Max         246     196     50                49086    35128    4410
     Sum       11735    9389   2349              2355467  1685513  210763
 
     Using Slab Decomposition
 


     bravais-lattice index     =            0
     lattice parameter (alat)  =      17.8707  a.u.
     unit-cell volume          =   17436.2743 (a.u.)^3
     number of atoms/cell      =           36
     number of atomic types    =            3
     number of electrons       =       307.00
     number of Kohn-Sham states=          185
     kinetic-energy cutoff     =      80.0000  Ry
     charge density cutoff     =     400.0000  Ry
     scf convergence threshold =      1.0E-06
     mixing beta               =       0.7000
     number of iterations used =            8  local-TF  mixing
     energy convergence thresh.=      1.0E-04
     force convergence thresh. =      1.0E-02
     Exchange-correlation= RVV10
                           (   1   4  13   4  26   0   0)
     nstep                     =          200


     celldm(1)=  17.870686  celldm(2)=   0.000000  celldm(3)=   0.000000
     celldm(4)=   0.000000  celldm(5)=   0.000000  celldm(6)=   0.000000

     crystal axes: (cart. coord. in units of alat)
               a(1) = (   1.000000   0.000000   0.000000 )  
               a(2) = (   0.000000   1.155671   0.000000 )  
               a(3) = (   0.000000   0.000000   2.643601 )  

     reciprocal axes: (cart. coord. in units 2 pi/alat)
               b(1) = (  1.000000  0.000000  0.000000 )  
               b(2) = (  0.000000  0.865298  0.000000 )  
               b(3) = (  0.000000  0.000000  0.378272 )  


     PseudoPot. # 1 for Mo read from file:
     ../pseudo/Mo_ONCV_PBE-1.0.oncvpsp.upf
     MD5 check sum: 1b5d28e075c9ccadda658a603575cd1f
     Pseudo is Norm-conserving, Zval = 14.0
     Generated using ONCVPSP code by D. R. Hamann
     Using radial grid of 1526 points,  6 beta functions with: 
                l(1) =   0
                l(2) =   0
                l(3) =   1
                l(4) =   1
                l(5) =   2
                l(6) =   2

     PseudoPot. # 2 for S  read from file:
     ../pseudo/s_pbe_v1.4.uspp.F.UPF
     MD5 check sum: 88d86576ff6df21479756cfb9bdac1df
     Pseudo is Ultrasoft + core correction, Zval =  6.0
     Generated by new atomic code, or converted to UPF format
     Using radial grid of  907 points,  6 beta functions with: 
                l(1) =   0
                l(2) =   0
                l(3) =   1
                l(4) =   1
                l(5) =   2
                l(6) =   2
     Q(r) pseudized with  8 coefficients,  rinner =    1.300   1.300   1.300
                                                       1.300   1.300

     PseudoPot. # 3 for H  read from file:
     ../pseudo/H_ONCV_PBE-1.0.oncvpsp.upf
     MD5 check sum: 1790becc920ee074925cf490c71280fe
     Pseudo is Norm-conserving, Zval =  1.0
     Generated using ONCVPSP code by D. R. Hamann
     Using radial grid of 1166 points,  2 beta functions with: 
                l(1) =   0
                l(2) =   0

     atomic species   valence    mass     pseudopotential
        Mo            14.00    95.94000     Mo( 1.00)
        S              6.00    32.06500     S ( 1.00)
        H              1.00     1.00794     H ( 1.00)

     No symmetry found



   Cartesian axes

     site n.     atom                  positions (alat units)
         1           Mo  tau(   1) = (   0.6952221   0.1890506   0.2985846  )
         2           S   tau(   2) = (   0.8646417   0.0856217   0.4689279  )
         3           S   tau(   3) = (   0.8663890   0.0857843   0.1351291  )
         4           Mo  tau(   4) = (   0.8560186   0.4753274   0.2873942  )
         5           S   tau(   5) = (   0.6873294   0.3936244   0.4596353  )
         6           S   tau(   6) = (   0.6929804   0.3713468   0.1185692  )
         7           Mo  tau(   7) = (   0.6862796   0.7633098   0.2825370  )
         8           S   tau(   8) = (   0.8545980   0.6708292   0.4486168  )
         9           S   tau(   9) = (   0.8545123   0.6666874   0.1146125  )
        10           Mo  tau(  10) = (   0.8629403   1.0471007   0.3006803  )
        11           S   tau(  11) = (   0.6868280   0.9456650   0.4634891  )
        12           S   tau(  12) = (   0.6998113   0.9568511   0.1205389  )
        13           Mo  tau(  13) = (   0.3618216   0.1847309   0.2935964  )
        14           S   tau(  14) = (   0.5260962   0.0863870   0.4600448  )
        15           S   tau(  15) = (   0.5348379   0.0894875   0.1297123  )
        16           Mo  tau(  16) = (   0.5265817   0.4772436   0.2784130  )
        17           S   tau(  17) = (   0.3624753   0.3882513   0.4525556  )
        18           S   tau(  18) = (   0.3635411   0.3752055   0.1119148  )
        19           Mo  tau(  19) = (   0.3652268   0.7630864   0.2781795  )
        20           S   tau(  20) = (   0.5269494   0.6690381   0.1096838  )
        21           Mo  tau(  21) = (   0.5300192   1.0470394   0.2900995  )
        22           S   tau(  22) = (   0.3670346   0.9457522   0.4574073  )
        23           S   tau(  23) = (   0.3604225   0.9585725   0.1159032  )
        24           Mo  tau(  24) = (   0.0313099   0.1847895   0.3013130  )
        25           S   tau(  25) = (   0.1956761   0.0838230   0.4650863  )
        26           S   tau(  26) = (   0.1967693   0.0903508   0.1278874  )
        27           Mo  tau(  27) = (   0.1967578   0.4753919   0.2813011  )
        28           S   tau(  28) = (   0.0287851   0.3864324   0.4586755  )
        29           S   tau(  29) = (   0.0244514   0.3729871   0.1239344  )
        30           Mo  tau(  30) = (   0.0286728   0.7631204   0.2856894  )
        31           S   tau(  31) = (   0.2011512   0.6675435   0.4465001  )
        32           S   tau(  32) = (   0.1969214   0.6672839   0.1104564  )
        33           Mo  tau(  33) = (   0.1950294   1.0511147   0.2932237  )
        34           S   tau(  34) = (   0.0312912   0.9612169   0.4667423  )
        35           S   tau(  35) = (   0.0292670   0.9563028   0.1216485  )
        36           H   tau(  36) = (   0.3333333   1.0272628   0.5792558  )

     number of k points=     1  Gaussian smearing, width (Ry)=  0.0100
                       cart. coord. in units 2pi/alat
        k(    1) = (   0.0000000   0.0000000   0.0000000), wk =   2.0000000

     Dense  grid:  1177734 G-vectors     FFT dimensions: ( 120, 135, 320)

     Smooth grid:   842757 G-vectors     FFT dimensions: ( 108, 120, 270)

     Estimated max dynamical RAM per process >     146.59 MB

     Estimated total dynamical RAM >       6.87 GB

     Initial potential from superposition of free atoms

     starting charge     306.9873, renormalised to     307.0000

     negative rho (up, down):  1.405E-04 0.000E+00


---------------------------------------------------------------------------------
Carrying out rVV10 run using the following parameters:
Nqs =      20    Nr_points =    1024   r_max =   100.000
b_value =  6.30000    beta =  0.00901
     q_mesh =  0.00010000  0.00030000  0.00058939  0.00100810
               0.00161396  0.00249058  0.00375900  0.00559430
               0.00824984  0.01209221  0.01765183  0.02569619
               0.03733578  0.05417739  0.07854596  0.11380545
               0.16482331  0.23864234  0.34545298  0.50000000

Gradients computed in Reciprocal space

---------------------------------------------------------------------------------


     Starting wfcs are  213 randomized atomic wfcs

     total cpu time spent up to now is        2.8 secs

     Self-consistent Calculation

     iteration #  1     ecut=    80.00 Ry     beta= 0.70
     Davidson diagonalization with overlap
     ethr =  1.00E-02,  avg # of iterations =  2.0

     Threshold (ethr) on eigenvalues was too large:
     Diagonalizing with lowered threshold

     Davidson diagonalization with overlap
     ethr =  3.79E-04,  avg # of iterations =  4.0

     negative rho (up, down):  1.746E-08 0.000E+00

     total cpu time spent up to now is       28.8 secs

     total energy              =   -2205.64097978 Ry
     estimated scf accuracy    <       1.44591087 Ry

     iteration #  2     ecut=    80.00 Ry     beta= 0.70
     Davidson diagonalization with overlap
     ethr =  4.71E-04,  avg # of iterations =  1.0

     total cpu time spent up to now is       31.2 secs

     total energy              =   -2205.45807878 Ry
     estimated scf accuracy    <       0.60925217 Ry

     iteration #  3     ecut=    80.00 Ry     beta= 0.70
     Davidson diagonalization with overlap
     ethr =  1.98E-04,  avg # of iterations =  4.0

     total cpu time spent up to now is       33.7 secs

     total energy              =   -2205.56121800 Ry
     estimated scf accuracy    <       0.07994855 Ry

     iteration #  4     ecut=    80.00 Ry     beta= 0.70
     Davidson diagonalization with overlap
     c_bands:  2 eigenvalues not converged
     ethr =  2.60E-05,  avg # of iterations = 20.0

     total cpu time spent up to now is       37.0 secs

     total energy              =   -2205.56468252 Ry
     estimated scf accuracy    <       0.03046658 Ry

     iteration #  5     ecut=    80.00 Ry     beta= 0.70
     Davidson diagonalization with overlap
     c_bands:  1 eigenvalues not converged
     ethr =  9.92E-06,  avg # of iterations = 20.0

     total cpu time spent up to now is       39.8 secs

     total energy              =   -2205.56427510 Ry
     estimated scf accuracy    <       0.01890272 Ry

     iteration #  6     ecut=    80.00 Ry     beta= 0.70
     Davidson diagonalization with overlap
     ethr =  6.16E-06,  avg # of iterations =  2.0

     total cpu time spent up to now is       42.3 secs

     total energy              =   -2205.56345093 Ry
     estimated scf accuracy    <       0.01266133 Ry

     iteration #  7     ecut=    80.00 Ry     beta= 0.70
     Davidson diagonalization with overlap
     ethr =  4.12E-06,  avg # of iterations =  2.0

     negative rho (up, down):  3.447E-05 0.000E+00

     total cpu time spent up to now is       48.6 secs

     total energy              =   -2205.56140135 Ry
     estimated scf accuracy    <       0.00796297 Ry

     iteration #  8     ecut=    80.00 Ry     beta= 0.70
     Davidson diagonalization with overlap
     ethr =  2.59E-06,  avg # of iterations = 16.0

     negative rho (up, down):  7.373E-03 0.000E+00

     total cpu time spent up to now is       53.8 secs

     total energy              =   -2205.56116257 Ry
     estimated scf accuracy    <       0.00391033 Ry

     iteration #  9     ecut=    80.00 Ry     beta= 0.70
     Davidson diagonalization with overlap
     ethr =  1.27E-06,  avg # of iterations =  2.0

     negative rho (up, down):  3.573E-02 0.000E+00

     total cpu time spent up to now is       59.0 secs

     total energy              =   -2205.56104679 Ry
     estimated scf accuracy    <       0.00233381 Ry

     iteration # 10     ecut=    80.00 Ry     beta= 0.70
     Davidson diagonalization with overlap
     ethr =  7.60E-07,  avg # of iterations =  2.0

     negative rho (up, down):  2.829E-02 0.000E+00

     total cpu time spent up to now is       63.7 secs

     total energy              =   -2205.56107781 Ry
     estimated scf accuracy    <       0.00072951 Ry

     iteration # 11     ecut=    80.00 Ry     beta= 0.70
     Davidson diagonalization with overlap
     ethr =  2.38E-07,  avg # of iterations =  2.0

     negative rho (up, down):  1.066E-02 0.000E+00

     total cpu time spent up to now is       70.2 secs

     total energy              =   -2205.56109779 Ry
     estimated scf accuracy    <       0.00021718 Ry

     iteration # 12     ecut=    80.00 Ry     beta= 0.70
     Davidson diagonalization with overlap
     ethr =  7.07E-08,  avg # of iterations =  6.0

     negative rho (up, down):  1.916E-03 0.000E+00

     total cpu time spent up to now is       79.5 secs

     total energy              =   -2205.56114746 Ry
     estimated scf accuracy    <       0.00003141 Ry

     iteration # 13     ecut=    80.00 Ry     beta= 0.70
     Davidson diagonalization with overlap
     ethr =  1.02E-08,  avg # of iterations = 11.0

     negative rho (up, down):  8.151E-04 0.000E+00

     total cpu time spent up to now is       89.9 secs

     total energy              =   -2205.56116071 Ry
     estimated scf accuracy    <       0.00000773 Ry

     iteration # 14     ecut=    80.00 Ry     beta= 0.70
     Davidson diagonalization with overlap
     ethr =  2.52E-09,  avg # of iterations =  3.0

     negative rho (up, down):  3.571E-04 0.000E+00

     total cpu time spent up to now is       98.6 secs

     total energy              =   -2205.56115997 Ry
     estimated scf accuracy    <       0.00000241 Ry

     iteration # 15     ecut=    80.00 Ry     beta= 0.70
     Davidson diagonalization with overlap
     ethr =  7.84E-10,  avg # of iterations =  2.0

     negative rho (up, down):  2.332E-04 0.000E+00

     total cpu time spent up to now is      110.5 secs

     total energy              =   -2205.56116151 Ry
     estimated scf accuracy    <       0.00000108 Ry

     iteration # 16     ecut=    80.00 Ry     beta= 0.70
     Davidson diagonalization with overlap
     ethr =  3.53E-10,  avg # of iterations =  2.0

     negative rho (up, down):  1.365E-04 0.000E+00

     total cpu time spent up to now is      112.7 secs

     End of self-consistent calculation

          k = 0.0000 0.0000 0.0000 (105382 PWs)   bands (ev):

   -62.8667 -62.8196 -62.8050 -62.7888 -62.7795 -62.7721 -62.7626 -62.7522
   -62.7436 -62.7107 -62.6086 -62.5584 -37.1674 -37.1297 -37.0983 -37.0910
   -37.0703 -37.0629 -37.0428 -37.0231 -37.0115 -37.0025 -36.9931 -36.9826
   -36.9740 -36.9645 -36.9570 -36.9549 -36.9505 -36.9432 -36.9371 -36.9237
   -36.9057 -36.8933 -36.8836 -36.8696 -36.8563 -36.8483 -36.8454 -36.8365
   -36.8095 -36.7934 -36.7642 -36.7610 -36.7298 -36.6923 -36.6107 -36.5446
   -16.2354 -15.6572 -15.0735 -15.0343 -14.8844 -14.7983 -14.6440 -14.4407
   -14.3914 -14.3746 -14.3275 -14.2966 -14.2773 -14.2433 -14.1143 -14.0699
   -14.0548 -14.0414 -13.9693 -13.8462 -13.7884 -13.7691 -13.7327  -8.8812
    -7.6377  -7.3723  -7.2868  -7.2332  -7.1998  -7.1620  -7.0727  -7.0098
    -6.7911  -6.7801  -6.7130  -6.6479  -6.5223  -6.4761  -6.4278  -6.3969
    -6.3381  -6.2131  -6.2068  -5.9128  -5.8827  -5.8556  -5.7722  -5.7362
    -5.7271  -5.6590  -5.6334  -5.5950  -5.5573  -5.4850  -5.4619  -5.4175
    -5.3863  -5.3140  -5.1536  -5.1162  -5.0380  -4.9868  -4.9210  -4.8849
    -4.8355  -4.7875  -4.6366  -4.5039  -4.4690  -4.2770  -4.2424  -4.2062
    -4.1585  -4.0128  -3.9579  -3.8325  -3.7829  -3.7518  -3.6837  -3.6525
    -3.6198  -3.5047  -3.4839  -3.4463  -3.4319  -3.4005  -3.3813  -3.3190
    -3.2988  -3.1515  -3.1155  -2.8876  -2.8643  -2.7670  -2.7366  -2.6880
    -2.6565  -2.6093  -2.5936  -2.5718  -2.4923  -2.2067  -1.9773  -1.9287
    -1.8669  -0.8813  -0.6947  -0.3645  -0.1200  -0.0790  -0.0406   0.0218
     0.1362   0.1624   0.2133   0.2596   0.2927   0.3304   0.4803   0.5069
     0.5262   0.5915   0.6249   0.6402   0.6607   0.7359   0.7574   0.7892
     0.8066   0.8370   0.9044   0.9203   1.0076   1.0358   1.1143   1.3889
     1.4190

     the Fermi energy is    -0.8868 ev

!    total energy              =   -2205.56116135 Ry
     estimated scf accuracy    <       0.00000026 Ry
     smearing contrib. (-TS)   =      -0.00640081 Ry
     internal energy E=F+TS    =   -2205.55476054 Ry

     The total energy is F=E-TS. E is the sum of the following terms:
     one-electron contribution =  -18045.47834261 Ry
     hartree contribution      =    9010.04602272 Ry
     xc contribution           =    -385.33459399 Ry
     ewald contribution        =    7215.21215334 Ry

     convergence has been achieved in  16 iterations

     negative rho (up, down):  1.365E-04 0.000E+00

     Forces acting on atoms (cartesian axes, Ry/au):

     atom    1 type  1   force =     0.01432636   -0.02159015    0.00661383
     atom    2 type  2   force =    -0.01499067    0.01787657    0.00092611
     atom    3 type  2   force =    -0.01134998    0.00907322   -0.00411393
     atom    4 type  1   force =     0.00681965    0.00165051   -0.00018912
     atom    5 type  2   force =    -0.00017055   -0.00548572   -0.00376950
     atom    6 type  2   force =     0.00036569    0.01100246    0.00024347
     atom    7 type  1   force =     0.00256292   -0.02642939   -0.00868281
     atom    8 type  2   force =     0.00104698   -0.00518582    0.01767860
     atom    9 type  2   force =     0.01249099    0.00626000    0.01135525
     atom   10 type  1   force =    -0.01089392    0.00894160   -0.02400090
     atom   11 type  2   force =     0.01103137   -0.00226357   -0.00509812
     atom   12 type  2   force =     0.00032522    0.00289241    0.00314089
     atom   13 type  1   force =     0.00418012    0.00429138   -0.00715902
     atom   14 type  2   force =     0.01049318    0.00123824    0.01143167
     atom   15 type  2   force =    -0.01289775    0.00120513   -0.01082902
     atom   16 type  1   force =     0.01293284    0.00288644    0.00108084
     atom   17 type  2   force =     0.00633121    0.00043337    0.00089327
     atom   18 type  2   force =    -0.00742002   -0.00487600    0.01449278
     atom   19 type  1   force =     0.00740423   -0.01377168   -0.01620601
     atom   20 type  2   force =    -0.00246586   -0.00518467    0.00419022
     atom   21 type  1   force =    -0.01372935    0.01246485    0.00494357
     atom   22 type  2   force =    -0.01053559    0.03859608    0.01134903
     atom   23 type  2   force =    -0.00185764    0.00316247    0.01073645
     atom   24 type  1   force =    -0.01148997   -0.00141400   -0.02163670
     atom   25 type  2   force =     0.01744325    0.01727088    0.00891195
     atom   26 type  2   force =    -0.01065516   -0.00137284   -0.00409060
     atom   27 type  1   force =    -0.00583259   -0.01016265    0.00738410
     atom   28 type  2   force =    -0.00032831   -0.00045423   -0.00561661
     atom   29 type  2   force =     0.00299323    0.00030465   -0.00322310
     atom   30 type  1   force =    -0.00337192    0.01405899   -0.00619508
     atom   31 type  2   force =    -0.00459812   -0.00655440    0.01322278
     atom   32 type  2   force =    -0.00455250    0.00733092    0.00895880
     atom   33 type  1   force =     0.00989088   -0.00218568   -0.01783077
     atom   34 type  2   force =     0.00166624   -0.04331537   -0.01028402
     atom   35 type  2   force =    -0.00896031    0.00578389    0.01517032
     atom   36 type  3   force =     0.01379586   -0.01647791   -0.00379861
     The non-local contrib.  to forces
     atom    1 type  1   force =    -0.00116421    0.03594333   -0.00800541
     atom    2 type  2   force =    -0.00992705    0.00196155   -0.26937656
     atom    3 type  2   force =    -0.01310328   -0.00373226    0.27209545
     atom    4 type  1   force =    -0.00251393    0.00802318    0.00507917
     atom    5 type  2   force =     0.00550415   -0.03433365   -0.25486593
     atom    6 type  2   force =    -0.00211545    0.01062312    0.26079927
     atom    7 type  1   force =    -0.02822190   -0.00187800   -0.01947653
     atom    8 type  2   force =     0.00637438   -0.00466860   -0.25417820
     atom    9 type  2   force =     0.00806966   -0.00714852    0.27623491
     atom   10 type  1   force =     0.00305954    0.00191478   -0.00085669
     atom   11 type  2   force =     0.01854543    0.00356371   -0.25542849
     atom   12 type  2   force =    -0.01269246   -0.01358778    0.26427898
     atom   13 type  1   force =    -0.00102112    0.02478325   -0.00965828
     atom   14 type  2   force =     0.00604558   -0.01285320   -0.25491988
     atom   15 type  2   force =    -0.01432916   -0.00964040    0.26082368
     atom   16 type  1   force =    -0.00900963    0.04168130   -0.01889640
     atom   17 type  2   force =     0.00142740   -0.02942512   -0.24750920
     atom   18 type  2   force =    -0.00529617   -0.00541748    0.27346701
     atom   19 type  1   force =     0.02620566    0.00859391   -0.01549886
     atom   20 type  2   force =    -0.00423953   -0.01956872    0.26681404
     atom   21 type  1   force =    -0.00004989    0.01511494   -0.00141506
     atom   22 type  2   force =    -0.07627881    0.20228788    0.13504317
     atom   23 type  2   force =     0.00384688   -0.01331940    0.27313945
     atom   24 type  1   force =     0.00494162    0.02067572   -0.01181918
     atom   25 type  2   force =     0.01764446    0.00484782   -0.24053631
     atom   26 type  2   force =    -0.00223586   -0.01636574    0.26504442
     atom   27 type  1   force =     0.00007933    0.00961717    0.00672977
     atom   28 type  2   force =    -0.00333848   -0.02462702   -0.27273182
     atom   29 type  2   force =     0.00668115    0.00244845    0.26216301
     atom   30 type  1   force =    -0.00175968    0.01321231    0.01096565
     atom   31 type  2   force =    -0.01315592   -0.00931708   -0.24750080
     atom   32 type  2   force =     0.00471573   -0.00564704    0.27646714
     atom   33 type  1   force =    -0.01023718    0.00800732    0.00836042
     atom   34 type  2   force =     0.00331370   -0.03473042   -0.26561103
     atom   35 type  2   force =    -0.00202757   -0.00940049    0.27209841
     atom   36 type  3   force =     0.01259088   -0.02907063   -0.04176926
     The ionic contribution  to forces
     atom    1 type  1   force =     0.46695358    0.34678780    5.64703894
     atom    2 type  2   force =    -0.68518556    0.46715082   39.26472814
     atom    3 type  2   force =    -0.16915469    0.03802311  -36.09710097
     atom    4 type  1   force =     0.08573832    0.57017659    0.68260788
     atom    5 type  2   force =    -0.94311084    1.51630419   38.74839088
     atom    6 type  2   force =     0.35392571   -0.49095021  -38.01721330
     atom    7 type  1   force =    -2.51794148   -2.89839920    2.49049292
     atom    8 type  2   force =    -0.99256607   -0.02346537   37.38313477
     atom    9 type  2   force =     0.33973751   -0.05462368  -38.00058083
     atom   10 type  1   force =    -1.13895849   -0.30161578    5.56652047
     atom   11 type  2   force =    -0.39642068   -1.65874553   39.08091314
     atom   12 type  2   force =     0.46703397    0.68305875  -37.88415236
     atom   13 type  1   force =     0.50629829    1.26631957    2.64300849
     atom   14 type  2   force =     0.26738572    0.23812379   38.39722167
     atom   15 type  2   force =     0.18599769   -0.02618200  -36.85021958
     atom   16 type  1   force =     0.02054060    3.92799339    0.46552697
     atom   17 type  2   force =     0.81805332    1.54499562   37.91969901
     atom   18 type  2   force =    -0.15879983   -0.63192179  -38.56960847
     atom   19 type  1   force =     2.75377306   -2.73775918    0.36918536
     atom   20 type  2   force =     0.24455693   -0.22653957  -38.49311316
     atom   21 type  1   force =     0.37194949    0.08960834    0.69814561
     atom   22 type  2   force =     0.82442379   -2.60637769   37.11519789
     atom   23 type  2   force =    -0.07947982    0.64647723  -38.38933712
     atom   24 type  1   force =    -0.65880005    1.28515721    5.76236945
     atom   25 type  2   force =     0.43602150    0.63344512   39.09471945
     atom   26 type  2   force =    -0.31192101    0.10709002  -37.38891699
     atom   27 type  1   force =    -0.01114183    0.38382479   -2.27789275
     atom   28 type  2   force =     0.02161361    1.03229162   38.20526462
     atom   29 type  2   force =    -0.27617878   -0.41728666  -37.25972856
     atom   30 type  1   force =    -0.46574902   -1.04552035   -0.13796714
     atom   31 type  2   force =     1.16629047   -0.21361490   37.27888790
     atom   32 type  2   force =    -0.49348178   -0.03809749  -38.65424207
     atom   33 type  1   force =     0.46555085   -0.79274019    1.41784512
     atom   34 type  2   force =    -0.02003415   -1.50700698   39.25791918
     atom   35 type  2   force =    -0.33347688    0.46626140  -37.85736740
     atom   36 type  3   force =    -0.14344344    0.42775721    8.38862281
     The local contribution  to forces
     atom    1 type  1   force =    -0.45150920   -0.40425902   -5.63180102
     atom    2 type  2   force =     0.67986028   -0.45114925  -39.01482299
     atom    3 type  2   force =     0.17031033   -0.02534828   35.84211053
     atom    4 type  1   force =    -0.07642330   -0.57649144   -0.68726057
     atom    5 type  2   force =     0.93804299   -1.48937715  -38.51743431
     atom    6 type  2   force =    -0.35172244    0.49241069   37.77768892
     atom    7 type  1   force =     2.54871328    2.87372470   -2.47905435
     atom    8 type  2   force =     0.98751260    0.02241993  -37.13140578
     atom    9 type  2   force =    -0.33512180    0.06757905   37.75694800
     atom   10 type  1   force =     1.12496532    0.30860079   -5.58908166
     atom   11 type  2   force =     0.38962590    1.65337267  -38.85068354
     atom   12 type  2   force =    -0.45518150   -0.66774523   37.64421093
     atom   13 type  1   force =    -0.50103722   -1.28672789   -2.63991244
     atom   14 type  2   force =    -0.26272299   -0.22441265  -38.15077031
     atom   15 type  2   force =    -0.18534076    0.03643129   36.59938144
     atom   16 type  1   force =     0.00141134   -3.96671353   -0.44491385
     atom   17 type  2   force =    -0.81317864   -1.51668888  -37.69116024
     atom   18 type  2   force =     0.15648173    0.63280836   38.33191743
     atom   19 type  1   force =    -2.77253302    2.71526257   -0.36930703
     atom   20 type  2   force =    -0.24310508    0.24021659   38.25202308
     atom   21 type  1   force =    -0.38559472   -0.09223345   -0.69119719
     atom   22 type  2   force =    -0.76344389    2.45554755  -37.23542523
     atom   23 type  2   force =     0.07418758   -0.63107866   38.14833218
     atom   24 type  1   force =     0.64236536   -1.30717108   -5.77161549
     atom   25 type  2   force =    -0.43552968   -0.62093652  -38.86451873
     atom   26 type  2   force =     0.30367977   -0.09300266   37.14095602
     atom   27 type  1   force =     0.00524517   -0.40356996    2.27916630
     atom   28 type  2   force =    -0.01882236   -1.00986980  -37.95872281
     atom   29 type  2   force =     0.27304815    0.41576861   37.01512016
     atom   30 type  1   force =     0.46409062    1.04628757    0.12144760
     atom   31 type  2   force =    -1.15835451    0.21599866  -37.03810363
     atom   32 type  2   force =     0.48464865    0.05064758   38.40814625
     atom   33 type  1   force =    -0.44543431    0.78253524   -1.44349361
     atom   34 type  2   force =     0.01841083    1.49737379  -39.02297752
     atom   35 type  2   force =     0.32660954   -0.45199250   37.62187249
     atom   36 type  3   force =     0.14465213   -0.41517097   -8.35060872
     The core correction contribution to forces
     atom    1 type  1   force =     0.00000000    0.00000000    0.00000000
     atom    2 type  2   force =     0.00023051   -0.00009757    0.02066822
     atom    3 type  2   force =     0.00057647    0.00010707   -0.02098073
     atom    4 type  1   force =     0.00000000    0.00000000    0.00000000
     atom    5 type  2   force =    -0.00062264    0.00194642    0.02037716
     atom    6 type  2   force =     0.00026606   -0.00105738   -0.02074987
     atom    7 type  1   force =     0.00000000    0.00000000    0.00000000
     atom    8 type  2   force =    -0.00026521    0.00050952    0.02035480
     atom    9 type  2   force =    -0.00017996    0.00042242   -0.02095706
     atom   10 type  1   force =     0.00000000    0.00000000    0.00000000
     atom   11 type  2   force =    -0.00071420   -0.00045212    0.02032355
     atom   12 type  2   force =     0.00116326    0.00118482   -0.02090702
     atom   13 type  1   force =     0.00000000    0.00000000    0.00000000
     atom   14 type  2   force =    -0.00020869    0.00038531    0.02014612
     atom   15 type  2   force =     0.00077014    0.00058852   -0.02055007
     atom   16 type  1   force =     0.00000000    0.00000000    0.00000000
     atom   17 type  2   force =     0.00004524    0.00157211    0.02009587
     atom   18 type  2   force =     0.00020782   -0.00033230   -0.02099053
     atom   19 type  1   force =     0.00000000    0.00000000    0.00000000
     atom   20 type  2   force =     0.00033260    0.00065752   -0.02123050
     atom   21 type  1   force =     0.00000000    0.00000000    0.00000000
     atom   22 type  2   force =     0.00479684   -0.01286909   -0.00321440
     atom   23 type  2   force =    -0.00039610    0.00110380   -0.02114059
     atom   24 type  1   force =     0.00000000    0.00000000    0.00000000
     atom   25 type  2   force =    -0.00066752   -0.00007394    0.01952973
     atom   26 type  2   force =    -0.00016072    0.00090087   -0.02095291
     atom   27 type  1   force =     0.00000000    0.00000000    0.00000000
     atom   28 type  2   force =     0.00022070    0.00180553    0.02083287
     atom   29 type  2   force =    -0.00055657   -0.00059040   -0.02051782
     atom   30 type  1   force =     0.00000000    0.00000000    0.00000000
     atom   31 type  2   force =     0.00059994    0.00033384    0.02018030
     atom   32 type  2   force =    -0.00045501    0.00038868   -0.02112134
     atom   33 type  1   force =     0.00000000    0.00000000    0.00000000
     atom   34 type  2   force =    -0.00004808    0.00100804    0.02062484
     atom   35 type  2   force =    -0.00007914    0.00090532   -0.02116094
     atom   36 type  3   force =     0.00000000    0.00000000    0.00000000
     The Hubbard contrib.    to forces
     atom    1 type  1   force =     0.00000000    0.00000000    0.00000000
     atom    2 type  2   force =     0.00000000    0.00000000    0.00000000
     atom    3 type  2   force =     0.00000000    0.00000000    0.00000000
     atom    4 type  1   force =     0.00000000    0.00000000    0.00000000
     atom    5 type  2   force =     0.00000000    0.00000000    0.00000000
     atom    6 type  2   force =     0.00000000    0.00000000    0.00000000
     atom    7 type  1   force =     0.00000000    0.00000000    0.00000000
     atom    8 type  2   force =     0.00000000    0.00000000    0.00000000
     atom    9 type  2   force =     0.00000000    0.00000000    0.00000000
     atom   10 type  1   force =     0.00000000    0.00000000    0.00000000
     atom   11 type  2   force =     0.00000000    0.00000000    0.00000000
     atom   12 type  2   force =     0.00000000    0.00000000    0.00000000
     atom   13 type  1   force =     0.00000000    0.00000000    0.00000000
     atom   14 type  2   force =     0.00000000    0.00000000    0.00000000
     atom   15 type  2   force =     0.00000000    0.00000000    0.00000000
     atom   16 type  1   force =     0.00000000    0.00000000    0.00000000
     atom   17 type  2   force =     0.00000000    0.00000000    0.00000000
     atom   18 type  2   force =     0.00000000    0.00000000    0.00000000
     atom   19 type  1   force =     0.00000000    0.00000000    0.00000000
     atom   20 type  2   force =     0.00000000    0.00000000    0.00000000
     atom   21 type  1   force =     0.00000000    0.00000000    0.00000000
     atom   22 type  2   force =     0.00000000    0.00000000    0.00000000
     atom   23 type  2   force =     0.00000000    0.00000000    0.00000000
     atom   24 type  1   force =     0.00000000    0.00000000    0.00000000
     atom   25 type  2   force =     0.00000000    0.00000000    0.00000000
     atom   26 type  2   force =     0.00000000    0.00000000    0.00000000
     atom   27 type  1   force =     0.00000000    0.00000000    0.00000000
     atom   28 type  2   force =     0.00000000    0.00000000    0.00000000
     atom   29 type  2   force =     0.00000000    0.00000000    0.00000000
     atom   30 type  1   force =     0.00000000    0.00000000    0.00000000
     atom   31 type  2   force =     0.00000000    0.00000000    0.00000000
     atom   32 type  2   force =     0.00000000    0.00000000    0.00000000
     atom   33 type  1   force =     0.00000000    0.00000000    0.00000000
     atom   34 type  2   force =     0.00000000    0.00000000    0.00000000
     atom   35 type  2   force =     0.00000000    0.00000000    0.00000000
     atom   36 type  3   force =     0.00000000    0.00000000    0.00000000
     The SCF correction term to forces
     atom    1 type  1   force =     0.00004634   -0.00006523   -0.00058949
     atom    2 type  2   force =     0.00003130    0.00000805   -0.00024151
     atom    3 type  2   force =     0.00002135    0.00002062   -0.00020903
     atom    4 type  1   force =     0.00001871   -0.00006079   -0.00058642
     atom    5 type  2   force =     0.00001593   -0.00002850   -0.00020812
     atom    6 type  2   force =     0.00001195   -0.00002673   -0.00025238
     atom    7 type  1   force =     0.00001317    0.00012013   -0.00061566
     atom    8 type  2   force =    -0.00000857    0.00001573   -0.00019781
     atom    9 type  2   force =    -0.00001427    0.00002776   -0.00026058
     atom   10 type  1   force =     0.00003986    0.00003884   -0.00055384
     atom   11 type  2   force =    -0.00000493   -0.00000526   -0.00019360
     atom   12 type  2   force =     0.00000210   -0.00002112   -0.00026046
     atom   13 type  1   force =    -0.00005968   -0.00008653   -0.00056761
     atom   14 type  2   force =    -0.00000629   -0.00000798   -0.00021675
     atom   15 type  2   force =     0.00000450    0.00000474   -0.00023531
     atom   16 type  1   force =    -0.00000932   -0.00007769   -0.00060670
     atom   17 type  2   force =    -0.00001596   -0.00002333   -0.00020298
     atom   18 type  2   force =    -0.00001342   -0.00001577   -0.00026348
     atom   19 type  1   force =    -0.00004132    0.00012805   -0.00055630
     atom   20 type  2   force =    -0.00001062    0.00004654   -0.00027406
     atom   21 type  1   force =    -0.00003408   -0.00002795   -0.00056061
     atom   22 type  2   force =    -0.00003338    0.00000446   -0.00022321
     atom   23 type  2   force =    -0.00001601   -0.00002347   -0.00022829
     atom   24 type  1   force =     0.00000325   -0.00007882   -0.00054230
     atom   25 type  2   force =    -0.00002535   -0.00001457   -0.00025300
     atom   26 type  2   force =    -0.00001718    0.00000170   -0.00019196
     atom   27 type  1   force =    -0.00001511   -0.00003762   -0.00059004
     atom   28 type  2   force =    -0.00000162   -0.00005753   -0.00023029
     atom   29 type  2   force =    -0.00000057   -0.00003833   -0.00023070
     atom   30 type  1   force =     0.00004631    0.00007648   -0.00061201
     atom   31 type  2   force =     0.00002205    0.00004211   -0.00021181
     atom   32 type  2   force =     0.00002006    0.00003623   -0.00026200
     atom   33 type  1   force =     0.00001167    0.00000898   -0.00051352
     atom   34 type  2   force =     0.00002409    0.00003723   -0.00021030
     atom   35 type  2   force =     0.00001389    0.00000718   -0.00024307
     atom   36 type  3   force =    -0.00000357    0.00000351   -0.00001427

     Total force =     0.116299     Total SCF correction =     0.002305

     BFGS Geometry Optimization
     Energy error            =      0.0E+00 Ry
     Gradient error          =      4.3E-02 Ry/Bohr

     number of scf cycles    =   1
     number of bfgs steps    =   0

     energy             new  =   -2205.5611613470 Ry

     new trust radius        =       0.0445506318 bohr
     new conv_thr            =       0.0000010000 Ry


ATOMIC_POSITIONS (angstrom)
Mo            6.5821295919        1.7763812140        2.8271429203
S             8.1687766164        0.8191638981        4.4350284301
S             8.1872269377        0.8160430854        1.2757064302
Mo            8.0987713687        4.4959303593        2.7177183152
S             6.4998190037        3.7195085687        4.3446659141
S             6.5535433142        3.5175598064        1.1214090669
Mo            6.4913379344        7.2044514546        2.6672897407
S             8.0822817650        6.3411267773        4.2518166756
S             8.0875275927        6.3080149675        1.0898719399
Mo            8.1548542322        9.9069121067        2.8307610292
S             6.5010051430        8.9417289823        4.3804077230
S             6.6181193007        9.0502418117        1.1415693901
Mo            3.4238716872        1.7492267497        2.7726827736
S             4.9807182442        0.8175964585        4.3565824711
S             5.0510085603        0.8468998379        1.2209279877
Mo            4.9866004437        4.5147054410        2.6334565059
S             3.4311919964        3.6718290159        4.2801822782
S             3.4339940731        3.5456484321        1.0660209288
Mo            3.4577798917        7.2090368816        2.6221010091
S             4.9819293183        6.3241886775        1.0394711025
Mo            5.0049986600        9.9081961645        2.7460169848
S             3.4653829224        8.9641754365        4.3315969614
S             3.4074461472        9.0666634920        1.1017497857
Mo            0.2900102543        1.7467612733        2.8379950593
S             1.8596927842        0.8018333629        4.4029254414
S             1.8551615670        0.8536994449        1.2072362026
Mo            1.8576048343        4.4902889167        2.6641048751
S             0.2720401148        3.6541584583        4.3346119161
S             0.2328151571        3.5274104394        1.1703122939
Mo            0.2693678056        7.2240857890        2.6984181318
S             1.8998050278        6.3093303952        4.2294413144
S             1.8598291333        6.3142231681        1.0493000760
Mo            1.8495806932        9.9389825400        2.7635106143
S             0.2967946342        9.0670763203        4.4084273956
S             0.2720298084        9.0465864176        1.1584285648
H             3.1595537861        9.7058580436        5.4758732876



     Writing config-only to output data dir ./MoS2-V-O.save/
     NEW-OLD atomic charge density approx. for the potential

     negative rho (up, down):  1.417E-04 0.000E+00

     total cpu time spent up to now is      116.3 secs

     Self-consistent Calculation

     iteration #  1     ecut=    80.00 Ry     beta= 0.70
     Davidson diagonalization with overlap
     ethr =  1.00E-06,  avg # of iterations =  8.0

     negative rho (up, down):  1.240E-04 0.000E+00

     total cpu time spent up to now is      129.4 secs

     total energy              =   -2205.57182626 Ry
     estimated scf accuracy    <       0.00090613 Ry

     iteration #  2     ecut=    80.00 Ry     beta= 0.70
     Davidson diagonalization with overlap
     ethr =  2.95E-07,  avg # of iterations =  2.0

     negative rho (up, down):  1.192E-04 0.000E+00

     total cpu time spent up to now is      145.7 secs

     total energy              =   -2205.57185118 Ry
     estimated scf accuracy    <       0.00019563 Ry

     iteration #  3     ecut=    80.00 Ry     beta= 0.70
     Davidson diagonalization with overlap
     ethr =  6.37E-08,  avg # of iterations =  3.0

     negative rho (up, down):  1.175E-04 0.000E+00

     total cpu time spent up to now is      162.0 secs

     total energy              =   -2205.57187990 Ry
     estimated scf accuracy    <       0.00002456 Ry

     iteration #  4     ecut=    80.00 Ry     beta= 0.70
     Davidson diagonalization with overlap
     ethr =  8.00E-09,  avg # of iterations =  8.0

     negative rho (up, down):  1.141E-04 0.000E+00

     total cpu time spent up to now is      178.0 secs

     total energy              =   -2205.57188782 Ry
     estimated scf accuracy    <       0.00000455 Ry

     iteration #  5     ecut=    80.00 Ry     beta= 0.70
     Davidson diagonalization with overlap
     ethr =  1.48E-09,  avg # of iterations =  5.0

     negative rho (up, down):  1.098E-04 0.000E+00

     total cpu time spent up to now is      190.5 secs

     total energy              =   -2205.57188834 Ry
     estimated scf accuracy    <       0.00000122 Ry

     iteration #  6     ecut=    80.00 Ry     beta= 0.70
     Davidson diagonalization with overlap
     ethr =  3.98E-10,  avg # of iterations =  5.0

     negative rho (up, down):  1.369E-04 0.000E+00

     total cpu time spent up to now is      193.0 secs

     End of self-consistent calculation

          k = 0.0000 0.0000 0.0000 (105382 PWs)   bands (ev):

   -62.8665 -62.8182 -62.8033 -62.7923 -62.7794 -62.7718 -62.7623 -62.7529
   -62.7402 -62.7073 -62.6040 -62.5572 -37.1636 -37.1287 -37.0976 -37.0871
   -37.0689 -37.0612 -37.0420 -37.0200 -37.0125 -37.0016 -36.9914 -36.9843
   -36.9758 -36.9640 -36.9558 -36.9526 -36.9502 -36.9433 -36.9360 -36.9243
   -36.9035 -36.8930 -36.8808 -36.8649 -36.8552 -36.8487 -36.8446 -36.8353
   -36.8064 -36.7925 -36.7625 -36.7600 -36.7292 -36.6928 -36.6079 -36.5427
   -16.2647 -15.6751 -15.0694 -15.0383 -14.8687 -14.7995 -14.6468 -14.4285
   -14.3785 -14.3707 -14.3289 -14.2983 -14.2880 -14.2445 -14.1123 -14.0642
   -14.0579 -14.0493 -13.9708 -13.8359 -13.7810 -13.7724 -13.7501  -8.9433
    -7.6320  -7.3669  -7.2871  -7.2353  -7.1840  -7.1647  -7.0897  -7.0145
    -6.7857  -6.7732  -6.7067  -6.6472  -6.5283  -6.4788  -6.4331  -6.4048
    -6.3277  -6.2118  -6.2032  -5.9042  -5.8751  -5.8568  -5.7694  -5.7300
    -5.7264  -5.6631  -5.6305  -5.5929  -5.5647  -5.4940  -5.4665  -5.4125
    -5.3739  -5.2926  -5.1510  -5.0961  -5.0286  -4.9777  -4.9273  -4.8910
    -4.8444  -4.7918  -4.6339  -4.5163  -4.4747  -4.2688  -4.2493  -4.1961
    -4.1592  -4.0233  -3.9593  -3.8408  -3.7813  -3.7443  -3.6800  -3.6417
    -3.6169  -3.5100  -3.4788  -3.4570  -3.4345  -3.4038  -3.3797  -3.3238
    -3.3061  -3.1561  -3.1192  -2.8823  -2.8571  -2.7663  -2.7408  -2.6945
    -2.6502  -2.6086  -2.5963  -2.5783  -2.4847  -2.2008  -1.9768  -1.9313
    -1.8859  -0.8732  -0.6763  -0.3696  -0.1115  -0.0760  -0.0377   0.0316
     0.1427   0.1685   0.2114   0.2741   0.2925   0.3415   0.4834   0.5103
     0.5318   0.5926   0.6328   0.6441   0.6687   0.7349   0.7614   0.7736
     0.8080   0.8478   0.9104   0.9188   1.0239   1.0393   1.1106   1.3962
     1.4158

     the Fermi energy is    -0.8776 ev

!    total energy              =   -2205.57188812 Ry
     estimated scf accuracy    <       0.00000054 Ry
     smearing contrib. (-TS)   =      -0.00626759 Ry
     internal energy E=F+TS    =   -2205.56562053 Ry

     The total energy is F=E-TS. E is the sum of the following terms:
     one-electron contribution =  -18046.56757265 Ry
     hartree contribution      =    9010.60152399 Ry
     xc contribution           =    -385.34739990 Ry
     ewald contribution        =    7215.74782803 Ry

     convergence has been achieved in   6 iterations

     negative rho (up, down):  1.369E-04 0.000E+00

     Forces acting on atoms (cartesian axes, Ry/au):

     atom    1 type  1   force =     0.00388974   -0.01107252    0.00004091
     atom    2 type  2   force =    -0.00909847    0.01141485   -0.00080195
     atom    3 type  2   force =    -0.01061120    0.00730806   -0.00937755
     atom    4 type  1   force =     0.00622214    0.00140458    0.00126530
     atom    5 type  2   force =     0.00222802   -0.00579404   -0.00305670
     atom    6 type  2   force =     0.00155408    0.00658190    0.00120878
     atom    7 type  1   force =     0.00234150   -0.01815674   -0.00150024
     atom    8 type  2   force =     0.00145640   -0.00472413    0.01264666
     atom    9 type  2   force =     0.01134914    0.00490249    0.00651892
     atom   10 type  1   force =    -0.00407663    0.00765951   -0.00838367
     atom   11 type  2   force =     0.00790636   -0.00300543   -0.00890081
     atom   12 type  2   force =    -0.00364692    0.00101973    0.00187986
     atom   13 type  1   force =     0.00411355    0.00249098   -0.00272388
     atom   14 type  2   force =     0.00771406    0.00240499    0.00832710
     atom   15 type  2   force =    -0.00924795    0.00125043   -0.00826985
     atom   16 type  1   force =     0.00865562    0.00201125    0.00180668
     atom   17 type  2   force =     0.00640167    0.00016017    0.00058639
     atom   18 type  2   force =    -0.00536343   -0.00316187    0.01148539
     atom   19 type  1   force =     0.00315712   -0.00481140   -0.00236521
     atom   20 type  2   force =    -0.00076697   -0.00701546   -0.00199822
     atom   21 type  1   force =    -0.00657018    0.00896492    0.00503076
     atom   22 type  2   force =    -0.00762870    0.02024178   -0.00261767
     atom   23 type  2   force =     0.00017113    0.00142750    0.00581454
     atom   24 type  1   force =    -0.00661784   -0.00148608   -0.00927873
     atom   25 type  2   force =     0.01087160    0.01381112    0.00048692
     atom   26 type  2   force =    -0.00745021   -0.00055771   -0.00586115
     atom   27 type  1   force =    -0.00382411   -0.00553159    0.00676759
     atom   28 type  2   force =    -0.00120082   -0.00258451   -0.00504002
     atom   29 type  2   force =     0.00192967    0.00114220   -0.00497702
     atom   30 type  1   force =    -0.00194951    0.00417609    0.00273953
     atom   31 type  2   force =    -0.00283206   -0.00408061    0.00698744
     atom   32 type  2   force =    -0.00447897    0.00438043    0.00649129
     atom   33 type  1   force =     0.00287077    0.00134722   -0.00278610
     atom   34 type  2   force =    -0.00053794   -0.03130283   -0.01510747
     atom   35 type  2   force =    -0.00769299    0.00707380    0.00676713
     atom   36 type  3   force =     0.01076231   -0.00788906    0.00619508
     The non-local contrib.  to forces
     atom    1 type  1   force =     0.00056953    0.03280711   -0.00814259
     atom    2 type  2   force =    -0.00602728   -0.00244826   -0.26874723
     atom    3 type  2   force =    -0.01101854   -0.00601805    0.26734195
     atom    4 type  1   force =    -0.00192086    0.00978242    0.00423125
     atom    5 type  2   force =     0.00738486   -0.03542149   -0.25524378
     atom    6 type  2   force =    -0.00059542    0.00644954    0.26201731
     atom    7 type  1   force =    -0.03011392   -0.00343327   -0.02210501
     atom    8 type  2   force =     0.00761922   -0.00437294   -0.25712337
     atom    9 type  2   force =     0.00696541   -0.00827157    0.27315040
     atom   10 type  1   force =     0.00185237    0.00244501   -0.00167257
     atom   11 type  2   force =     0.01434943    0.00251684   -0.25926438
     atom   12 type  2   force =    -0.01549161   -0.01573194    0.26526841
     atom   13 type  1   force =    -0.00044646    0.02563797   -0.00968103
     atom   14 type  2   force =     0.00412200   -0.01181011   -0.25654133
     atom   15 type  2   force =    -0.01139567   -0.00950024    0.26166621
     atom   16 type  1   force =    -0.00942989    0.04302302   -0.02062599
     atom   17 type  2   force =     0.00136721   -0.02864319   -0.24842796
     atom   18 type  2   force =    -0.00334893   -0.00403201    0.27196589
     atom   19 type  1   force =     0.02874607    0.00710227   -0.01815789
     atom   20 type  2   force =    -0.00313436   -0.02038254    0.26264306
     atom   21 type  1   force =    -0.00173068    0.01549143   -0.00354375
     atom   22 type  2   force =    -0.07034290    0.19268176    0.12826921
     atom   23 type  2   force =     0.00491698   -0.01510453    0.27102964
     atom   24 type  1   force =     0.00295472    0.02167285   -0.01120432
     atom   25 type  2   force =     0.01269430    0.00210353   -0.24699990
     atom   26 type  2   force =    -0.00008755   -0.01556990    0.26451908
     atom   27 type  1   force =    -0.00085143    0.00836226    0.00556271
     atom   28 type  2   force =    -0.00392801   -0.02527735   -0.27261190
     atom   29 type  2   force =     0.00548353    0.00133984    0.26161552
     atom   30 type  1   force =    -0.00209631    0.01494916    0.01017785
     atom   31 type  2   force =    -0.01220775   -0.00849416   -0.25176183
     atom   32 type  2   force =     0.00547650   -0.00773427    0.27575100
     atom   33 type  1   force =    -0.00878161    0.00697764    0.00574837
     atom   34 type  2   force =     0.00182069   -0.02495020   -0.26947365
     atom   35 type  2   force =    -0.00130526   -0.00796091    0.26727171
     atom   36 type  3   force =     0.01320646   -0.03042081   -0.04537626
     The ionic contribution  to forces
     atom    1 type  1   force =     0.19834199    0.57957787    5.74761645
     atom    2 type  2   force =    -0.48881497    0.32104780   39.35488150
     atom    3 type  2   force =    -0.17100363    0.03574244  -36.22415520
     atom    4 type  1   force =     0.08037341    0.55574767    0.73664267
     atom    5 type  2   force =    -0.94463318    1.50091849   38.72408098
     atom    6 type  2   force =     0.33028554   -0.55919428  -37.97770497
     atom    7 type  1   force =    -2.59328995   -2.48642639    2.44164957
     atom    8 type  2   force =    -0.97799064    0.02821582   37.50275541
     atom    9 type  2   force =     0.35475105   -0.06816595  -37.98774577
     atom   10 type  1   force =    -0.99941360   -0.39704622    5.29659182
     atom   11 type  2   force =    -0.40760813   -1.70740227   38.96402832
     atom   12 type  2   force =     0.34853156    0.60598246  -37.79576720
     atom   13 type  1   force =     0.47875164    1.24735431    2.56579587
     atom   14 type  2   force =     0.20703012    0.27030740   38.48575163
     atom   15 type  2   force =     0.22566724    0.01164668  -36.91534805
     atom   16 type  1   force =    -0.13952936    3.78203517    0.55696602
     atom   17 type  2   force =     0.82643617    1.55936354   37.91722882
     atom   18 type  2   force =    -0.12855958   -0.56221328  -38.48075550
     atom   19 type  1   force =     2.66497161   -2.54912319    0.28141520
     atom   20 type  2   force =     0.23225896   -0.21655159  -38.55062677
     atom   21 type  1   force =     0.51415337   -0.21782388    0.93001256
     atom   22 type  2   force =     0.81386982   -2.77801646   37.07552123
     atom   23 type  2   force =    -0.01702431    0.58367293  -38.34356280
     atom   24 type  1   force =    -0.43069846    1.10059265    5.47127529
     atom   25 type  2   force =     0.29693507    0.57256969   39.07246161
     atom   26 type  2   force =    -0.27320504    0.12357065  -37.38190085
     atom   27 type  1   force =     0.09013569    0.55944998   -2.01865104
     atom   28 type  2   force =     0.03439331    0.96103423   38.22136249
     atom   29 type  2   force =    -0.26095498   -0.35236464  -37.32033604
     atom   30 type  1   force =    -0.34719558   -1.17554841   -0.15513409
     atom   31 type  2   force =     1.21983051   -0.13646750   37.28776341
     atom   32 type  2   force =    -0.49986963   -0.09543080  -38.57115832
     atom   33 type  1   force =     0.26961787   -0.69350773    1.28219164
     atom   34 type  2   force =    -0.04074263   -1.30937962   39.16500703
     atom   35 type  2   force =    -0.30590470    0.46393266  -37.80237061
     atom   36 type  3   force =    -0.15989656    0.44189978    8.44421769
     The local contribution  to forces
     atom    1 type  1   force =    -0.19481478   -0.62359836   -5.74024198
     atom    2 type  2   force =     0.48541006   -0.30701774  -39.10807197
     atom    3 type  2   force =     0.17089153   -0.02260257   35.96813444
     atom    4 type  1   force =    -0.07228257   -0.56407627   -0.74042595
     atom    5 type  2   force =     0.94024138   -1.47327491  -38.49254414
     atom    6 type  2   force =    -0.32829511    0.56024826   37.73734766
     atom    7 type  1   force =     2.62604602    2.47146987   -2.42196177
     atom    8 type  2   force =     0.97210331   -0.02909107  -37.25383887
     atom    9 type  2   force =    -0.35031682    0.08099129   37.74183068
     atom   10 type  1   force =     0.99338519    0.40225016   -5.30442900
     atom   11 type  2   force =     0.40172468    1.70230710  -38.73434995
     atom   12 type  2   force =    -0.33776208   -0.59044220   37.55292356
     atom   13 type  1   force =    -0.47423057   -1.27045858   -2.55974026
     atom   14 type  2   force =    -0.20314573   -0.25645333  -38.24148899
     atom   15 type  2   force =    -0.22416851   -0.00153088   36.66571164
     atom   16 type  1   force =     0.15782382   -3.82290871   -0.53544209
     atom   17 type  2   force =    -0.82152755   -1.53214640  -37.68858792
     atom   18 type  2   force =     0.12637768    0.56332649   38.24089506
     atom   19 type  1   force =    -2.69054268    2.53704927   -0.26682818
     atom   20 type  2   force =    -0.23003680    0.22920912   38.30683045
     atom   21 type  1   force =    -0.51869851    0.21161243   -0.92248199
     atom   22 type  2   force =    -0.75565537    2.61826897  -37.20332821
     atom   23 type  2   force =     0.01265607   -0.56820370   38.09904066
     atom   24 type  1   force =     0.42091534   -1.12351064   -5.47030620
     atom   25 type  2   force =    -0.29820385   -0.56074121  -38.84497309
     atom   26 type  2   force =     0.26602398   -0.10941633   37.13211388
     atom   27 type  1   force =    -0.09328733   -0.57348397    2.01902103
     atom   28 type  2   force =    -0.03192603   -0.94009048  -37.97499012
     atom   29 type  2   force =     0.25786551    0.35257432   37.07404362
     atom   30 type  1   force =     0.34706528    1.16474525    0.14682939
     atom   31 type  2   force =    -1.21118953    0.14042351  -37.04952466
     atom   32 type  2   force =     0.49035789    0.10716830   38.32263767
     atom   33 type  1   force =    -0.25807112    0.68788361   -1.29180872
     atom   34 type  2   force =     0.03834270    1.30210111  -38.93173351
     atom   35 type  2   force =     0.29953273   -0.44980770   37.56259750
     atom   36 type  3   force =     0.15746083   -0.41937731   -8.39271513
     The core correction contribution to forces
     atom    1 type  1   force =     0.00000000    0.00000000    0.00000000
     atom    2 type  2   force =     0.00017432    0.00000340    0.02069245
     atom    3 type  2   force =     0.00046862    0.00022124   -0.02089176
     atom    4 type  1   force =     0.00000000    0.00000000    0.00000000
     atom    5 type  2   force =    -0.00070224    0.00197502    0.02036438
     atom    6 type  2   force =     0.00020126   -0.00091811   -0.02075548
     atom    7 type  1   force =     0.00000000    0.00000000    0.00000000
     atom    8 type  2   force =    -0.00029272    0.00051197    0.02045024
     atom    9 type  2   force =    -0.00008984    0.00043444   -0.02090236
     atom   10 type  1   force =     0.00000000    0.00000000    0.00000000
     atom   11 type  2   force =    -0.00049028   -0.00044917    0.02040098
     atom   12 type  2   force =     0.00118766    0.00122418   -0.02090165
     atom   13 type  1   force =     0.00000000    0.00000000    0.00000000
     atom   14 type  2   force =    -0.00016456    0.00038881    0.02022187
     atom   15 type  2   force =     0.00068820    0.00061292   -0.02058400
     atom   16 type  1   force =     0.00000000    0.00000000    0.00000000
     atom   17 type  2   force =     0.00007364    0.00153837    0.02011591
     atom   18 type  2   force =     0.00013579   -0.00033145   -0.02094585
     atom   19 type  1   force =     0.00000000    0.00000000    0.00000000
     atom   20 type  2   force =     0.00028677    0.00068262   -0.02113659
     atom   21 type  1   force =     0.00000000    0.00000000    0.00000000
     atom   22 type  2   force =     0.00449418   -0.01255762   -0.00315549
     atom   23 type  2   force =    -0.00038729    0.00115308   -0.02111818
     atom   24 type  1   force =     0.00000000    0.00000000    0.00000000
     atom   25 type  2   force =    -0.00050057    0.00002809    0.01970745
     atom   26 type  2   force =    -0.00022693    0.00089211   -0.02092768
     atom   27 type  1   force =     0.00000000    0.00000000    0.00000000
     atom   28 type  2   force =     0.00023438    0.00175952    0.02086679
     atom   29 type  2   force =    -0.00049527   -0.00048657   -0.02053349
     atom   30 type  1   force =     0.00000000    0.00000000    0.00000000
     atom   31 type  2   force =     0.00056453    0.00036662    0.02026876
     atom   32 type  2   force =    -0.00053157    0.00041330   -0.02108122
     atom   33 type  1   force =     0.00000000    0.00000000    0.00000000
     atom   34 type  2   force =    -0.00001260    0.00068371    0.02074523
     atom   35 type  2   force =    -0.00011034    0.00084361   -0.02102977
     atom   36 type  3   force =     0.00000000    0.00000000    0.00000000
     The Hubbard contrib.    to forces
     atom    1 type  1   force =     0.00000000    0.00000000    0.00000000
     atom    2 type  2   force =     0.00000000    0.00000000    0.00000000
     atom    3 type  2   force =     0.00000000    0.00000000    0.00000000
     atom    4 type  1   force =     0.00000000    0.00000000    0.00000000
     atom    5 type  2   force =     0.00000000    0.00000000    0.00000000
     atom    6 type  2   force =     0.00000000    0.00000000    0.00000000
     atom    7 type  1   force =     0.00000000    0.00000000    0.00000000
     atom    8 type  2   force =     0.00000000    0.00000000    0.00000000
     atom    9 type  2   force =     0.00000000    0.00000000    0.00000000
     atom   10 type  1   force =     0.00000000    0.00000000    0.00000000
     atom   11 type  2   force =     0.00000000    0.00000000    0.00000000
     atom   12 type  2   force =     0.00000000    0.00000000    0.00000000
     atom   13 type  1   force =     0.00000000    0.00000000    0.00000000
     atom   14 type  2   force =     0.00000000    0.00000000    0.00000000
     atom   15 type  2   force =     0.00000000    0.00000000    0.00000000
     atom   16 type  1   force =     0.00000000    0.00000000    0.00000000
     atom   17 type  2   force =     0.00000000    0.00000000    0.00000000
     atom   18 type  2   force =     0.00000000    0.00000000    0.00000000
     atom   19 type  1   force =     0.00000000    0.00000000    0.00000000
     atom   20 type  2   force =     0.00000000    0.00000000    0.00000000
     atom   21 type  1   force =     0.00000000    0.00000000    0.00000000
     atom   22 type  2   force =     0.00000000    0.00000000    0.00000000
     atom   23 type  2   force =     0.00000000    0.00000000    0.00000000
     atom   24 type  1   force =     0.00000000    0.00000000    0.00000000
     atom   25 type  2   force =     0.00000000    0.00000000    0.00000000
     atom   26 type  2   force =     0.00000000    0.00000000    0.00000000
     atom   27 type  1   force =     0.00000000    0.00000000    0.00000000
     atom   28 type  2   force =     0.00000000    0.00000000    0.00000000
     atom   29 type  2   force =     0.00000000    0.00000000    0.00000000
     atom   30 type  1   force =     0.00000000    0.00000000    0.00000000
     atom   31 type  2   force =     0.00000000    0.00000000    0.00000000
     atom   32 type  2   force =     0.00000000    0.00000000    0.00000000
     atom   33 type  1   force =     0.00000000    0.00000000    0.00000000
     atom   34 type  2   force =     0.00000000    0.00000000    0.00000000
     atom   35 type  2   force =     0.00000000    0.00000000    0.00000000
     atom   36 type  3   force =     0.00000000    0.00000000    0.00000000
     The SCF correction term to forces
     atom    1 type  1   force =    -0.00020592    0.00013857    0.00078355
     atom    2 type  2   force =     0.00016050   -0.00017265    0.00041783
     atom    3 type  2   force =     0.00005191   -0.00003728    0.00016755
     atom    4 type  1   force =     0.00005325   -0.00005153    0.00079185
     atom    5 type  2   force =    -0.00006171    0.00000657    0.00026038
     atom    6 type  2   force =    -0.00004110   -0.00000579    0.00027879
     atom    7 type  1   force =    -0.00029955    0.00023075    0.00089150
     atom    8 type  2   force =     0.00001831    0.00000979    0.00037776
     atom    9 type  2   force =     0.00004043   -0.00008801    0.00016049
     atom   10 type  1   force =     0.00010051    0.00000827    0.00110060
     atom   11 type  2   force =    -0.00006824    0.00001978    0.00025875
     atom   12 type  2   force =    -0.00011134   -0.00001507    0.00033125
     atom   13 type  1   force =     0.00004003   -0.00004502    0.00087606
     atom   14 type  2   force =    -0.00012668   -0.00003007    0.00035844
     atom   15 type  2   force =    -0.00003813    0.00001965    0.00025888
     atom   16 type  1   force =    -0.00020786   -0.00014053    0.00088327
     atom   17 type  2   force =     0.00005330    0.00004556    0.00023207
     atom   18 type  2   force =     0.00003269    0.00008609    0.00030031
     atom   19 type  1   force =    -0.00001679    0.00015795    0.00118018
     atom   20 type  2   force =    -0.00014045    0.00002463    0.00026615
     atom   21 type  1   force =    -0.00029328   -0.00031735    0.00101846
     atom   22 type  2   force =     0.00000668   -0.00013717    0.00005012
     atom   23 type  2   force =     0.00001077   -0.00009257    0.00039974
     atom   24 type  1   force =     0.00021165   -0.00024322    0.00093102
     atom   25 type  2   force =    -0.00005226   -0.00015128    0.00026537
     atom   26 type  2   force =     0.00004642   -0.00003653    0.00030895
     atom   27 type  1   force =     0.00018005    0.00013786    0.00080941
     atom   28 type  2   force =     0.00002662   -0.00001272    0.00030723
     atom   29 type  2   force =     0.00003198    0.00007696    0.00020790
     atom   30 type  1   force =     0.00027820    0.00002780    0.00084090
     atom   31 type  2   force =     0.00017127    0.00008862    0.00021629
     atom   32 type  2   force =     0.00008894   -0.00003840    0.00031669
     atom   33 type  1   force =     0.00010672   -0.00000859    0.00105714
     atom   34 type  2   force =     0.00005500    0.00023988    0.00032196
     atom   35 type  2   force =     0.00009569    0.00006384    0.00027283
     atom   36 type  3   force =    -0.00000733    0.00000699    0.00004331

     Total force =     0.074887     Total SCF correction =     0.003680
     Energy error            =      1.1E-02 Ry
     Gradient error          =      3.1E-02 Ry/Bohr

     number of scf cycles    =   2
     number of bfgs steps    =   1

     energy             old  =   -2205.5611613470 Ry
     energy             new  =   -2205.5718881225 Ry

     CASE: energy            _new < energy            _old

     new trust radius        =       0.0490056950 bohr
     new conv_thr            =       0.0000000313 Ry


ATOMIC_POSITIONS (angstrom)
Mo            6.5860334233        1.7673052041        2.8278698665
S             8.1616105850        0.8280555742        4.4346353114
S             8.1795203245        0.8214840510        1.2695236611
Mo            8.1033077684        4.4969661899        2.7184735682
S             6.5011661472        3.7153760497        4.3423928582
S             6.5545344016        3.5227605463        1.1221755967
Mo            6.4930446945        7.1905209680        2.6654490092
S             8.0832852990        6.3376816856        4.2614421456
S             8.0958074726        6.3116833473        1.0950715272
Mo            8.1512001432        9.9125544585        2.8230768031
S             6.5070205239        8.9396471565        4.3744126374
S             6.6159191313        9.0511736101        1.1430546107
Mo            3.4268359151        1.7512085356        2.7702539535
S             4.9865586806        0.8192015487        4.3628981456
S             5.0439730374        0.8477939423        1.2147113443
Mo            4.9932767293        4.5162441747        2.6346782690
S             3.4357865695        3.6719731499        4.2806363939
S             3.4299201439        3.5431935089        1.0745967334
Mo            3.4605002080        7.2046271554        2.6189318699
S             4.9811976637        6.3193396705        1.0386913535
Mo            4.9995157145        9.9150123124        2.7496242560
S             3.4595902938        8.9806747178        4.3311973539
S             3.4073538682        9.0678738170        1.1064520861
Mo            0.2847357562        1.7457006068        2.8300132740
S             1.8682055943        0.8121291002        4.4041695685
S             1.8494656218        0.8532120122        1.2032106164
Mo            1.8546426023        4.4858208907        2.6690354052
S             0.2712694622        3.6525265718        4.3309275400
S             0.2343152350        3.5281426628        1.1669205327
Mo            0.2678153866        7.2281367112        2.6994393624
S             1.8975816885        6.3061343884        4.2351261768
S             1.8566014741        6.3176853006        1.0542284132
Mo            1.8523894370        9.9395761085        2.7599111450
S             0.2966418311        9.0432984434        4.3980787726
S             0.2663649607        9.0515347602        1.1641851129
H             3.1676125569        9.6992752572        5.4792662630



     Writing config-only to output data dir ./MoS2-V-O.save/
     NEW-OLD atomic charge density approx. for the potential

     negative rho (up, down):  1.423E-04 0.000E+00

     total cpu time spent up to now is      196.7 secs

     Self-consistent Calculation

     iteration #  1     ecut=    80.00 Ry     beta= 0.70
     Davidson diagonalization with overlap
     ethr =  1.00E-06,  avg # of iterations =  8.0

     negative rho (up, down):  1.251E-04 0.000E+00

     total cpu time spent up to now is      216.9 secs

     total energy              =   -2205.57840695 Ry
     estimated scf accuracy    <       0.00043433 Ry

     iteration #  2     ecut=    80.00 Ry     beta= 0.70
     Davidson diagonalization with overlap
     ethr =  1.41E-07,  avg # of iterations =  2.0

     negative rho (up, down):  1.163E-04 0.000E+00

     total cpu time spent up to now is      235.5 secs

     total energy              =   -2205.57843626 Ry
     estimated scf accuracy    <       0.00009271 Ry

     iteration #  3     ecut=    80.00 Ry     beta= 0.70
     Davidson diagonalization with overlap
     ethr =  3.02E-08,  avg # of iterations =  6.0

     negative rho (up, down):  1.121E-04 0.000E+00

     total cpu time spent up to now is      247.7 secs

     total energy              =   -2205.57845376 Ry
     estimated scf accuracy    <       0.00001236 Ry

     iteration #  4     ecut=    80.00 Ry     beta= 0.70
     Davidson diagonalization with overlap
     ethr =  4.03E-09,  avg # of iterations =  5.0

     negative rho (up, down):  1.115E-04 0.000E+00

     total cpu time spent up to now is      261.7 secs

     total energy              =   -2205.57845761 Ry
     estimated scf accuracy    <       0.00000196 Ry

     iteration #  5     ecut=    80.00 Ry     beta= 0.70
     Davidson diagonalization with overlap
     ethr =  6.38E-10,  avg # of iterations =  5.0

     negative rho (up, down):  1.125E-04 0.000E+00

     total cpu time spent up to now is      272.4 secs

     total energy              =   -2205.57845778 Ry
     estimated scf accuracy    <       0.00000044 Ry

     iteration #  6     ecut=    80.00 Ry     beta= 0.70
     Davidson diagonalization with overlap
     ethr =  1.42E-10,  avg # of iterations =  6.0

     negative rho (up, down):  1.147E-04 0.000E+00

     total cpu time spent up to now is      287.9 secs

     total energy              =   -2205.57845787 Ry
     estimated scf accuracy    <       0.00000007 Ry

     iteration #  7     ecut=    80.00 Ry     beta= 0.70
     Davidson diagonalization with overlap
     ethr =  2.41E-11,  avg # of iterations =  4.0

     negative rho (up, down):  1.373E-04 0.000E+00

     total cpu time spent up to now is      290.4 secs

     End of self-consistent calculation

          k = 0.0000 0.0000 0.0000 (105382 PWs)   bands (ev):

   -62.8653 -62.8169 -62.8022 -62.7932 -62.7796 -62.7713 -62.7619 -62.7522
   -62.7360 -62.7051 -62.6008 -62.5576 -37.1608 -37.1277 -37.0969 -37.0848
   -37.0682 -37.0590 -37.0408 -37.0174 -37.0134 -37.0010 -36.9896 -36.9846
   -36.9765 -36.9638 -36.9553 -36.9509 -36.9494 -36.9428 -36.9350 -36.9247
   -36.9023 -36.8924 -36.8786 -36.8621 -36.8537 -36.8489 -36.8426 -36.8340
   -36.8044 -36.7910 -36.7621 -36.7588 -36.7302 -36.6936 -36.6048 -36.5410
   -16.2842 -15.6854 -15.0679 -15.0403 -14.8579 -14.7989 -14.6489 -14.4190
   -14.3733 -14.3700 -14.3292 -14.3040 -14.2849 -14.2448 -14.1136 -14.0629
   -14.0568 -14.0533 -13.9709 -13.8366 -13.7766 -13.7734 -13.7547  -8.9786
    -7.6307  -7.3636  -7.2923  -7.2374  -7.1728  -7.1662  -7.1008  -7.0160
    -6.7855  -6.7688  -6.7037  -6.6462  -6.5318  -6.4816  -6.4366  -6.4090
    -6.3200  -6.2139  -6.2000  -5.8973  -5.8714  -5.8603  -5.7706  -5.7266
    -5.7241  -5.6630  -5.6270  -5.5859  -5.5743  -5.5025  -5.4679  -5.4092
    -5.3648  -5.2822  -5.1472  -5.0820  -5.0205  -4.9755  -4.9297  -4.8974
    -4.8542  -4.7946  -4.6298  -4.5248  -4.4782  -4.2719  -4.2527  -4.1838
    -4.1576  -4.0292  -3.9584  -3.8433  -3.7850  -3.7391  -3.6744  -3.6338
    -3.6123  -3.5138  -3.4778  -3.4695  -3.4313  -3.4039  -3.3797  -3.3274
    -3.3100  -3.1631  -3.1192  -2.8874  -2.8433  -2.7662  -2.7437  -2.6994
    -2.6513  -2.6163  -2.5921  -2.5768  -2.4773  -2.1982  -1.9776  -1.9325
    -1.8950  -0.8726  -0.6582  -0.3715  -0.1076  -0.0705  -0.0350   0.0429
     0.1427   0.1817   0.2049   0.2857   0.2969   0.3486   0.4839   0.5093
     0.5390   0.5922   0.6375   0.6481   0.6748   0.7362   0.7604   0.7717
     0.8096   0.8520   0.9132   0.9228   1.0292   1.0416   1.1080   1.3946
     1.4220

     the Fermi energy is    -0.8755 ev

!    total energy              =   -2205.57845779 Ry
     estimated scf accuracy    <       0.00000002 Ry
     smearing contrib. (-TS)   =      -0.00607977 Ry
     internal energy E=F+TS    =   -2205.57237801 Ry

     The total energy is F=E-TS. E is the sum of the following terms:
     one-electron contribution =  -18048.44581978 Ry
     hartree contribution      =    9011.54713190 Ry
     xc contribution           =    -385.35883948 Ry
     ewald contribution        =    7216.68514935 Ry

     convergence has been achieved in   7 iterations

     negative rho (up, down):  1.373E-04 0.000E+00

     Forces acting on atoms (cartesian axes, Ry/au):

     atom    1 type  1   force =    -0.00304446   -0.00268331   -0.00482217
     atom    2 type  2   force =    -0.00440920    0.00618763   -0.00110736
     atom    3 type  2   force =    -0.00874881    0.00523341   -0.01099827
     atom    4 type  1   force =     0.00497429    0.00081092    0.00100505
     atom    5 type  2   force =     0.00394273   -0.00554418   -0.00203752
     atom    6 type  2   force =     0.00232551    0.00342250    0.00151161
     atom    7 type  1   force =     0.00197779   -0.01134173    0.00163108
     atom    8 type  2   force =     0.00132801   -0.00474153    0.00935906
     atom    9 type  2   force =     0.00935002    0.00349215    0.00333676
     atom   10 type  1   force =    -0.00070511    0.00614010   -0.00105696
     atom   11 type  2   force =     0.00506055   -0.00326583   -0.00949931
     atom   12 type  2   force =    -0.00571071   -0.00059548    0.00223375
     atom   13 type  1   force =     0.00300463    0.00067247   -0.00055790
     atom   14 type  2   force =     0.00499596    0.00298038    0.00594413
     atom   15 type  2   force =    -0.00634813    0.00084321   -0.00583766
     atom   16 type  1   force =     0.00515665    0.00133437    0.00190045
     atom   17 type  2   force =     0.00610142    0.00014976    0.00091410
     atom   18 type  2   force =    -0.00330595   -0.00131107    0.00855146
     atom   19 type  1   force =     0.00108715    0.00037424    0.00434731
     atom   20 type  2   force =    -0.00015296   -0.00692688   -0.00423153
     atom   21 type  1   force =    -0.00126183    0.00603265    0.00271511
     atom   22 type  2   force =    -0.00557853    0.00871240   -0.00828242
     atom   23 type  2   force =     0.00112199    0.00038062    0.00344561
     atom   24 type  1   force =    -0.00376455   -0.00072444   -0.00343641
     atom   25 type  2   force =     0.00547962    0.01035178   -0.00353947
     atom   26 type  2   force =    -0.00426910    0.00001276   -0.00508750
     atom   27 type  1   force =    -0.00187906   -0.00202985    0.00491164
     atom   28 type  2   force =    -0.00157475   -0.00404639   -0.00314155
     atom   29 type  2   force =     0.00136571    0.00155152   -0.00488999
     atom   30 type  1   force =    -0.00098774   -0.00208660    0.00485806
     atom   31 type  2   force =    -0.00116481   -0.00255437    0.00387464
     atom   32 type  2   force =    -0.00378943    0.00214652    0.00539710
     atom   33 type  1   force =    -0.00205011    0.00352688    0.00284804
     atom   34 type  2   force =    -0.00192246   -0.01963613   -0.01386245
     atom   35 type  2   force =    -0.00579925    0.00656819    0.00215513
     atom   36 type  3   force =     0.00919492   -0.00343667    0.01144837
     The non-local contrib.  to forces
     atom    1 type  1   force =     0.00143336    0.03032595   -0.00799992
     atom    2 type  2   force =    -0.00285436   -0.00622500   -0.26747544
     atom    3 type  2   force =    -0.00848196   -0.00794611    0.26482672
     atom    4 type  1   force =    -0.00127073    0.01121372    0.00374053
     atom    5 type  2   force =     0.00869482   -0.03564647   -0.25534584
     atom    6 type  2   force =     0.00056792    0.00338526    0.26270453
     atom    7 type  1   force =    -0.03152010   -0.00426762   -0.02395292
     atom    8 type  2   force =     0.00858550   -0.00415210   -0.25886397
     atom    9 type  2   force =     0.00501212   -0.00953730    0.27079509
     atom   10 type  1   force =     0.00131521    0.00299855   -0.00157578
     atom   11 type  2   force =     0.01058961    0.00192053   -0.26090208
     atom   12 type  2   force =    -0.01669030   -0.01744227    0.26708711
     atom   13 type  1   force =     0.00009568    0.02619397   -0.00939249
     atom   14 type  2   force =     0.00209711   -0.01143342   -0.25730218
     atom   15 type  2   force =    -0.00893117   -0.00961612    0.26220066
     atom   16 type  1   force =    -0.00996869    0.04396109   -0.02195977
     atom   17 type  2   force =     0.00086407   -0.02779856   -0.24885669
     atom   18 type  2   force =    -0.00144248   -0.00263064    0.27058763
     atom   19 type  1   force =     0.03040925    0.00647549   -0.01932850
     atom   20 type  2   force =    -0.00289832   -0.01958427    0.26089101
     atom   21 type  1   force =    -0.00267947    0.01584402   -0.00471863
     atom   22 type  2   force =    -0.06444300    0.18436589    0.12933659
     atom   23 type  2   force =     0.00517310   -0.01609774    0.27039023
     atom   24 type  1   force =     0.00160317    0.02230026   -0.01005227
     atom   25 type  2   force =     0.00859244   -0.00088904   -0.25032614
     atom   26 type  2   force =     0.00219799   -0.01464597    0.26530391
     atom   27 type  1   force =    -0.00173094    0.00723399    0.00483286
     atom   28 type  2   force =    -0.00402141   -0.02550489   -0.27172698
     atom   29 type  2   force =     0.00465108    0.00008249    0.26214575
     atom   30 type  1   force =    -0.00256451    0.01617028    0.01012996
     atom   31 type  2   force =    -0.01101817   -0.00782384   -0.25389485
     atom   32 type  2   force =     0.00676304   -0.00948183    0.27572476
     atom   33 type  1   force =    -0.00782486    0.00624702    0.00460898
     atom   34 type  2   force =     0.00097443   -0.01549773   -0.26940389
     atom   35 type  2   force =    -0.00014018   -0.00823839    0.26493243
     atom   36 type  3   force =     0.01319690   -0.03070874   -0.04757016
     The ionic contribution  to forces
     atom    1 type  1   force =     0.02358814    0.74518824    5.69666948
     atom    2 type  2   force =    -0.34072197    0.21008019   39.42522469
     atom    3 type  2   force =    -0.15418271    0.01700582  -36.37186350
     atom    4 type  1   force =     0.05306412    0.52683498    0.76672267
     atom    5 type  2   force =    -0.94367855    1.48287307   38.69679402
     atom    6 type  2   force =     0.31433650   -0.59551005  -37.95206525
     atom    7 type  1   force =    -2.69209874   -2.10512817    2.40694062
     atom    8 type  2   force =    -0.98689882    0.07156855   37.63344666
     atom    9 type  2   force =     0.35541506   -0.05720184  -37.98635395
     atom   10 type  1   force =    -0.92683685   -0.48677835    5.11461220
     atom   11 type  2   force =    -0.42885223   -1.74417566   38.82904648
     atom   12 type  2   force =     0.26418502    0.52354718  -37.70108941
     atom   13 type  1   force =     0.42301855    1.21710875    2.48655797
     atom   14 type  2   force =     0.16005722    0.28581122   38.58532673
     atom   15 type  2   force =     0.24552540    0.01891158  -37.00633435
     atom   16 type  1   force =    -0.30211782    3.70151011    0.62651929
     atom   17 type  2   force =     0.82922929    1.57785397   37.91236004
     atom   18 type  2   force =    -0.10811314   -0.48741897  -38.38819020
     atom   19 type  1   force =     2.64289099   -2.43538530    0.27036491
     atom   20 type  2   force =     0.19843214   -0.17494207  -38.61130068
[...]
     atom   27 type  1   force =    -0.00370905    0.00434130    0.00062911
     atom   28 type  2   force =     0.00232541   -0.01532777   -0.26972935
     atom   29 type  2   force =    -0.00028082   -0.01096831    0.26437580
     atom   30 type  1   force =    -0.00556170    0.01455557    0.00783271
     atom   31 type  2   force =    -0.00211439   -0.00086343   -0.25849899
     atom   32 type  2   force =     0.00857405   -0.01309125    0.27418084
     atom   33 type  1   force =    -0.01156876    0.00609611   -0.00471630
     atom   34 type  2   force =     0.00835102   -0.00484568   -0.26476591
     atom   35 type  2   force =    -0.00052375   -0.00900409    0.26599242
     atom   36 type  3   force =    -0.00380316   -0.01708901   -0.05707523
     The ionic contribution  to forces
     atom    1 type  1   force =    -0.08092751    0.58694333    1.66928059
     atom    2 type  2   force =    -0.19845220    0.03443009   38.86939551
     atom    3 type  2   force =     0.11319040   -0.22581284  -37.66288928
     atom    4 type  1   force =     0.02277084    0.83206343    0.35029594
     atom    5 type  2   force =    -0.89358205    1.23433390   38.52247334
     atom    6 type  2   force =     0.22884874   -0.21175320  -38.42928585
     atom    7 type  1   force =    -2.63318166   -1.39167857    3.34296319
     atom    8 type  2   force =    -1.10621503    0.19328159   38.27548972
     atom    9 type  2   force =     0.35945584    0.21516532  -37.76034336
     atom   10 type  1   force =    -0.65412085   -0.84272710    2.84820723
     atom   11 type  2   force =    -0.35418348   -1.57351752   38.27320399
     atom   12 type  2   force =     0.20424147    0.00445200  -37.64180269
     atom   13 type  1   force =    -0.00318199    0.91789070    1.91503892
     atom   14 type  2   force =     0.11927145    0.19961950   38.54299234
     atom   15 type  2   force =    -0.01537983   -0.13478556  -37.95005762
     atom   16 type  1   force =    -0.90515267    3.92795021    1.17661817
     atom   17 type  2   force =     0.84928690    1.48328987   38.15529236
     atom   18 type  2   force =    -0.22644410   -0.02880610  -37.94242689
     atom   19 type  1   force =     2.39052121   -2.71813969    3.00976072
     atom   20 type  2   force =    -0.16325189    0.07833145  -38.39917406
     atom   21 type  1   force =     0.49943438   -0.90702664    0.29536561
     atom   22 type  2   force =     0.34305015   -2.12536565   36.63741890
     atom   23 type  2   force =    -0.25000303    0.11593562  -37.71121423
     atom   24 type  1   force =     0.04986996    0.38287879    2.20265081
     atom   25 type  2   force =     0.11693724    0.33707364   38.91712262
     atom   26 type  2   force =    -0.07623829   -0.12590392  -37.58882222
     atom   27 type  1   force =     0.71504719    1.10225206    1.14303965
     atom   28 type  2   force =     0.05192540    0.61017164   38.38580459
     atom   29 type  2   force =     0.08912631    0.03379320  -37.80511274
     atom   30 type  1   force =     0.10973430   -0.80973027    2.24071043
     atom   31 type  2   force =     1.30975466    0.05338299   37.97497263
     atom   32 type  2   force =    -0.22562713    0.06335682  -37.45724258
     atom   33 type  1   force =     0.12221245   -0.83556573    3.44238783
     atom   34 type  2   force =    -0.09512487   -0.64165136   38.93402701
     atom   35 type  2   force =     0.05791837   -0.00766806  -37.39327394
     atom   36 type  3   force =     0.12846932    0.17353608    8.61713335
     The local contribution  to forces
     atom    1 type  1   force =     0.08006264   -0.61386858   -1.66818338
     atom    2 type  2   force =     0.19765579   -0.02273215  -38.62635170
     atom    3 type  2   force =    -0.11081985    0.23628724   37.41599211
     atom    4 type  1   force =    -0.02329090   -0.84470523   -0.35369458
     atom    5 type  2   force =     0.89039107   -1.20891524  -38.28736075
     atom    6 type  2   force =    -0.23111330    0.21820833   38.18922922
     atom    7 type  1   force =     2.66902010    1.40174164   -3.31692673
     atom    8 type  2   force =     1.09566647   -0.19590351  -38.03152266
     atom    9 type  2   force =    -0.35659400   -0.20079978   37.51367950
     atom   10 type  1   force =     0.65362460    0.83612902   -2.84949929
     atom   11 type  2   force =     0.35428744    1.57397553  -38.03704614
     atom   12 type  2   force =    -0.19360038    0.00346250   37.39447294
     atom   13 type  1   force =     0.00072945   -0.94623110   -1.90721987
     atom   14 type  2   force =    -0.11626404   -0.18582007  -38.30837953
     atom   15 type  2   force =     0.01489306    0.14373713   37.70905535
     atom   16 type  1   force =     0.91374994   -3.97257233   -1.15789606
     atom   17 type  2   force =    -0.84152437   -1.46211739  -37.92375848
     atom   18 type  2   force =     0.22340643    0.03624482   37.69726822
     atom   19 type  1   force =    -2.42398565    2.72342687   -2.99446833
     atom   20 type  2   force =     0.16469945   -0.06646128   38.15716353
     atom   21 type  1   force =    -0.50323158    0.88851609   -0.29117444
     atom   22 type  2   force =    -0.36258427    2.01286521  -36.86030114
     atom   23 type  2   force =     0.24375807   -0.10569778   37.45909660
     atom   24 type  1   force =    -0.04667547   -0.40727728   -2.20151878
     atom   25 type  2   force =    -0.11941053   -0.31939014  -38.68006670
     atom   26 type  2   force =     0.07374645    0.13757902   37.34143486
     atom   27 type  1   force =    -0.71068414   -1.10568513   -1.14403509
     atom   28 type  2   force =    -0.05393460   -0.59602556  -38.13701439
     atom   29 type  2   force =    -0.08838958   -0.02360904   37.56136278
     atom   30 type  1   force =    -0.10351960    0.79388893   -2.24859909
     atom   31 type  2   force =    -1.30780629   -0.05233084  -37.73673980
     atom   32 type  2   force =     0.21727617   -0.05094660   37.20335211
     atom   33 type  1   force =    -0.11135677    0.83062353   -3.43745129
     atom   34 type  2   force =     0.08731887    0.64693078  -38.69029694
     atom   35 type  2   force =    -0.05775104    0.01716718   37.14765500
     atom   36 type  3   force =    -0.12414224   -0.15728073   -8.56044241
     The core correction contribution to forces
     atom    1 type  1   force =     0.00000000    0.00000000    0.00000000
     atom    2 type  2   force =    -0.00012454    0.00067390    0.02065963
     atom    3 type  2   force =     0.00018693    0.00044517   -0.02095629
     atom    4 type  1   force =     0.00000000    0.00000000    0.00000000
     atom    5 type  2   force =    -0.00038617    0.00117661    0.02038193
     atom    6 type  2   force =     0.00011676   -0.00007779   -0.02072632
     atom    7 type  1   force =     0.00000000    0.00000000    0.00000000
     atom    8 type  2   force =    -0.00058671    0.00013226    0.02066557
     atom    9 type  2   force =     0.00038466    0.00083964   -0.02081510
     atom   10 type  1   force =     0.00000000    0.00000000    0.00000000
     atom   11 type  2   force =     0.00035811   -0.00021862    0.02007976
     atom   12 type  2   force =     0.00084234    0.00047008   -0.02086197
     atom   13 type  1   force =     0.00000000    0.00000000    0.00000000
     atom   14 type  2   force =     0.00032981    0.00079743    0.02017363
     atom   15 type  2   force =    -0.00002758    0.00058104   -0.02070967
     atom   16 type  1   force =     0.00000000    0.00000000    0.00000000
     atom   17 type  2   force =     0.00066818    0.00110171    0.02013111
     atom   18 type  2   force =    -0.00023443    0.00012528   -0.02077922
     atom   19 type  1   force =     0.00000000    0.00000000    0.00000000
     atom   20 type  2   force =    -0.00006784    0.00047598   -0.02113697
     atom   21 type  1   force =     0.00000000    0.00000000    0.00000000
     atom   22 type  2   force =    -0.00139146   -0.00753209   -0.00867060
     atom   23 type  2   force =    -0.00067356    0.00073977   -0.02120527
     atom   24 type  1   force =     0.00000000    0.00000000    0.00000000
     atom   25 type  2   force =    -0.00013741    0.00124481    0.02026484
     atom   26 type  2   force =    -0.00011673    0.00059221   -0.02102899
     atom   27 type  1   force =     0.00000000    0.00000000    0.00000000
     atom   28 type  2   force =    -0.00020430    0.00100983    0.02096924
     atom   29 type  2   force =     0.00003373    0.00035728   -0.02071643
     atom   30 type  1   force =     0.00000000    0.00000000    0.00000000
     atom   31 type  2   force =     0.00013351    0.00006963    0.02029172
     atom   32 type  2   force =    -0.00056543    0.00066292   -0.02099359
     atom   33 type  1   force =     0.00000000    0.00000000    0.00000000
     atom   34 type  2   force =    -0.00058092    0.00010037    0.02071007
     atom   35 type  2   force =     0.00009254    0.00054074   -0.02098835
     atom   36 type  3   force =     0.00000000    0.00000000    0.00000000
     The Hubbard contrib.    to forces
     atom    1 type  1   force =     0.00000000    0.00000000    0.00000000
     atom    2 type  2   force =     0.00000000    0.00000000    0.00000000
     atom    3 type  2   force =     0.00000000    0.00000000    0.00000000
     atom    4 type  1   force =     0.00000000    0.00000000    0.00000000
     atom    5 type  2   force =     0.00000000    0.00000000    0.00000000
     atom    6 type  2   force =     0.00000000    0.00000000    0.00000000
     atom    7 type  1   force =     0.00000000    0.00000000    0.00000000
     atom    8 type  2   force =     0.00000000    0.00000000    0.00000000
     atom    9 type  2   force =     0.00000000    0.00000000    0.00000000
     atom   10 type  1   force =     0.00000000    0.00000000    0.00000000
     atom   11 type  2   force =     0.00000000    0.00000000    0.00000000
     atom   12 type  2   force =     0.00000000    0.00000000    0.00000000
     atom   13 type  1   force =     0.00000000    0.00000000    0.00000000
     atom   14 type  2   force =     0.00000000    0.00000000    0.00000000
     atom   15 type  2   force =     0.00000000    0.00000000    0.00000000
     atom   16 type  1   force =     0.00000000    0.00000000    0.00000000
     atom   17 type  2   force =     0.00000000    0.00000000    0.00000000
     atom   18 type  2   force =     0.00000000    0.00000000    0.00000000
     atom   19 type  1   force =     0.00000000    0.00000000    0.00000000
     atom   20 type  2   force =     0.00000000    0.00000000    0.00000000
     atom   21 type  1   force =     0.00000000    0.00000000    0.00000000
     atom   22 type  2   force =     0.00000000    0.00000000    0.00000000
     atom   23 type  2   force =     0.00000000    0.00000000    0.00000000
     atom   24 type  1   force =     0.00000000    0.00000000    0.00000000
     atom   25 type  2   force =     0.00000000    0.00000000    0.00000000
     atom   26 type  2   force =     0.00000000    0.00000000    0.00000000
     atom   27 type  1   force =     0.00000000    0.00000000    0.00000000
     atom   28 type  2   force =     0.00000000    0.00000000    0.00000000
     atom   29 type  2   force =     0.00000000    0.00000000    0.00000000
     atom   30 type  1   force =     0.00000000    0.00000000    0.00000000
     atom   31 type  2   force =     0.00000000    0.00000000    0.00000000
     atom   32 type  2   force =     0.00000000    0.00000000    0.00000000
     atom   33 type  1   force =     0.00000000    0.00000000    0.00000000
     atom   34 type  2   force =     0.00000000    0.00000000    0.00000000
     atom   35 type  2   force =     0.00000000    0.00000000    0.00000000
     atom   36 type  3   force =     0.00000000    0.00000000    0.00000000
     The SCF correction term to forces
     atom    1 type  1   force =     0.00000901   -0.00002437   -0.00002212
     atom    2 type  2   force =     0.00000283   -0.00003546   -0.00001094
     atom    3 type  2   force =     0.00000450   -0.00003122   -0.00000899
     atom    4 type  1   force =    -0.00001943    0.00004956    0.00001235
     atom    5 type  2   force =     0.00000001    0.00002863    0.00001146
     atom    6 type  2   force =     0.00000960    0.00000981   -0.00000962
     atom    7 type  1   force =    -0.00002298    0.00004696    0.00002118
     atom    8 type  2   force =    -0.00001299    0.00001905    0.00000509
     atom    9 type  2   force =    -0.00000444    0.00002615    0.00000250
     atom   10 type  1   force =     0.00001336   -0.00004937   -0.00001429
     atom   11 type  2   force =    -0.00000607   -0.00002581   -0.00000492
     atom   12 type  2   force =     0.00001030   -0.00000873    0.00001038
     atom   13 type  1   force =    -0.00001245   -0.00004014   -0.00002013
     atom   14 type  2   force =    -0.00000194   -0.00003159    0.00000528
     atom   15 type  2   force =    -0.00000504   -0.00002888   -0.00001552
     atom   16 type  1   force =    -0.00001531    0.00007887    0.00001999
     atom   17 type  2   force =     0.00000087    0.00003401    0.00001391
     atom   18 type  2   force =    -0.00000587    0.00000703   -0.00000627
     atom   19 type  1   force =    -0.00001969    0.00003221    0.00003612
     atom   20 type  2   force =    -0.00000085    0.00003070    0.00002626
     atom   21 type  1   force =     0.00000927   -0.00007379    0.00000794
     atom   22 type  2   force =    -0.00001958   -0.00002305    0.00000400
     atom   23 type  2   force =    -0.00001274   -0.00000718    0.00002272
     atom   24 type  1   force =     0.00000661   -0.00003895   -0.00003229
     atom   25 type  2   force =    -0.00000106   -0.00003319   -0.00001402
     atom   26 type  2   force =    -0.00000896   -0.00003435   -0.00000630
     atom   27 type  1   force =    -0.00000297    0.00005312    0.00001572
     atom   28 type  2   force =     0.00000728    0.00002636    0.00000097
     atom   29 type  2   force =     0.00000033    0.00000404   -0.00000918
     atom   30 type  1   force =    -0.00000292    0.00005248    0.00001834
     atom   31 type  2   force =     0.00003037    0.00002657    0.00000621
     atom   32 type  2   force =     0.00001462    0.00002741    0.00001510
     atom   33 type  1   force =     0.00000811   -0.00006802   -0.00000965
     atom   34 type  2   force =     0.00000807   -0.00001451   -0.00001681
     atom   35 type  2   force =     0.00000030    0.00000851    0.00000435
     atom   36 type  3   force =    -0.00000135   -0.00000519   -0.00000440

     Total force =     0.006560     Total SCF correction =     0.000247
     Energy error            =      9.8E-05 Ry
     Gradient error          =      1.9E-03 Ry/Bohr

     bfgs converged in  23 scf cycles and  22 bfgs steps
     (criteria: energy <  1.0E-04 Ry, force <  1.0E-02 Ry/Bohr)

     End of BFGS Geometry Optimization

     Final energy             =   -2205.5972486547 Ry

     File ./MoS2-V-O.bfgs deleted, as requested
Begin final coordinates

ATOMIC_POSITIONS (angstrom)
Mo            6.5617955357        1.7658433709        2.7455375020
S             8.1208617106        0.8630256218        4.3672470560
S             8.1407939686        0.8442379798        1.1683911042
Mo            8.1222411823        4.4975816006        2.7118193753
S             6.5348451280        3.6601792948        4.3140426127
S             6.5641191038        3.5662526361        1.0930212599
Mo            6.4853113074        7.1622234639        2.6867447427
S             8.0617791838        6.3033661236        4.3125697191
S             8.1207537727        6.3375600619        1.1237402986
Mo            8.1269185800        9.9445303559        2.7743053601
S             6.5120365272        8.9603826376        4.3294865674
S             6.5743929449        9.0326042063        1.1373343480
Mo            3.4219858562        1.7639586378        2.7511501081
S             4.9987170388        0.8499183519        4.3398912574
S             4.9879455698        0.8564012167        1.1458270820
Mo            5.0201217552        4.5154444973        2.6463366188
S             3.4743198660        3.6659242172        4.3003530767
S             3.4125422151        3.5710781636        1.1140248416
Mo            3.4687822386        7.2186397071        2.6823082419
S             4.9590780902        6.3123490699        1.0611694671
Mo            4.9879774110        9.9510774854        2.7288915756
S             3.4610123994        9.0112133299        4.2993160052
S             3.3765351425        9.0592694292        1.1480019978
Mo            0.2521366379        1.7582990690        2.7676885176
S             1.8428023808        0.8829424448        4.3770682149
S             1.8344388571        0.8510782228        1.1763227198
Mo            1.8490230546        4.4845792021        2.7247812644
S             0.2496705400        3.6136978493        4.3249516076
S             0.2599536117        3.5715686207        1.1421529742
Mo            0.2500008420        7.2287129319        2.7491642568
S             1.8860307787        6.3046521931        4.3026330621
S             1.8415600518        6.3271565238        1.1348220913
Mo            1.8242575270        9.9667649193        2.7912479562
S             0.2362066612        9.0348603908        4.3746262659
S             0.2555949185        9.0550294334        1.1850013907
H             3.5480579560        9.4031209280        5.6227909972
End final coordinates



     Writing all to output data dir ./MoS2-V-O.save/
 
     init_run     :      2.40s CPU      2.66s WALL (       1 calls)
     electrons    :   1988.18s CPU   2222.51s WALL (      23 calls)
     update_pot   :     31.41s CPU     33.22s WALL (      22 calls)
     forces       :     32.30s CPU     38.10s WALL (      23 calls)

     Called by init_run:
     wfcinit      :      0.39s CPU      0.43s WALL (       1 calls)
     potinit      :      1.33s CPU      1.45s WALL (       1 calls)
     hinit0       :      0.16s CPU      0.18s WALL (       1 calls)

     Called by electrons:
     c_bands      :    272.25s CPU    277.29s WALL (     193 calls)
     sum_band     :     57.71s CPU     79.00s WALL (     193 calls)
     v_of_rho     :     82.67s CPU    102.52s WALL (     200 calls)
     newd         :     29.05s CPU     48.56s WALL (     200 calls)
     mix_rho      :   1556.83s CPU   1726.22s WALL (     193 calls)

     Called by c_bands:
     init_us_2    :      4.09s CPU      4.44s WALL (     387 calls)
     init_us_2:cp :      4.09s CPU      4.44s WALL (     387 calls)
     regterg      :    257.82s CPU    262.48s WALL (     193 calls)

     Called by *egterg:
     rdiaghg      :     18.51s CPU     18.71s WALL (    1032 calls)
     h_psi        :    136.24s CPU    137.42s WALL (    1071 calls)
     s_psi        :     16.09s CPU     16.14s WALL (    1071 calls)
     g_psi        :      2.05s CPU      2.06s WALL (     877 calls)

     Called by h_psi:
     h_psi:calbec :     18.35s CPU     18.44s WALL (    1071 calls)
     vloc_psi     :     97.37s CPU     98.35s WALL (    1071 calls)
     add_vuspsi   :     16.45s CPU     16.55s WALL (    1071 calls)

     General routines
     calbec       :     26.13s CPU     26.26s WALL (    1356 calls)
     fft          :     54.58s CPU     64.10s WALL (   13549 calls)
     ffts         :    701.10s CPU    864.57s WALL (  379849 calls)
     fftw         :     82.76s CPU     83.49s WALL (  118939 calls)
     interpolate  :      1.43s CPU      1.70s WALL (     200 calls)
 
     Parallel routines
 
     PWSCF        :  34m18.74s CPU  38m24.27s WALL

 
   This run was terminated on:   9:52:55   4Nov2023            

=------------------------------------------------------------------------------=
   JOB DONE.
=------------------------------------------------------------------------------=
