
     Program PWSCF v.7.2 starts on  4Nov2023 at  5:30:36 

     This program is part of the open-source Quantum ESPRESSO suite
     for quantum simulation of materials; please cite
         "P. Giannozzi et al., J. Phys.:Condens. Matter 21 395502 (2009);
         "P. Giannozzi et al., J. Phys.:Condens. Matter 29 465901 (2017);
         "P. Giannozzi et al., J. Chem. Phys. 152 154105 (2020);
          URL http://www.quantum-espresso.org", 
     in publications or presentations arising from this work. More details at
     http://www.quantum-espresso.org/quote

     Parallel version (MPI & OpenMP), running on      48 processor cores
     Number of MPI processes:                48
     Threads/MPI process:                     1

     MPI processes distributed on     1 nodes
     20390 MiB available memory on the printing compute node when the environment starts
 
     Waiting for input...
     Reading input from standard input
Warning: card &CELL ignored
Warning: card CELL_DYNAMICS = 'BFGS', ignored
Warning: card CELL_DOFREE = '2DXY' ignored
Warning: card / ignored

     Current dimensions of program PWSCF are:
     Max number of different atomic species (ntypx) = 10
     Max number of k-points (npk) =  40000
     Max angular momentum in pseudopotentials (lmaxx) =  4

     IMPORTANT: XC functional enforced from input :
     Exchange-correlation= RVV10
                           (   1   4  13   4  26   0   0)
     Any further DFT definition will be discarded
     Please, verify this is what you really want


     gamma-point specific algorithms are used
     signal trapping enabled: kill the code with -SIGUSR1 to stop cleanly the simulation 
 
     R & G space division:  proc/nbgrp/npool/nimage =      48
     Subspace diagonalization in iterative solution of the eigenvalue problem:
     one sub-group per band group will be used
     scalapack distributed-memory algorithm (size of sub-group:  2*  2 procs)

 
     Parallelization info
     --------------------
     sticks:   dense  smooth     PW     G-vecs:    dense   smooth      PW
     Min         243     194     47                49060    35090    4376
     Max         246     196     50                49086    35128    4410
     Sum       11735    9389   2349              2355467  1685513  210763
 
     Using Slab Decomposition
 


     bravais-lattice index     =            0
     lattice parameter (alat)  =      17.8707  a.u.
     unit-cell volume          =   17436.2743 (a.u.)^3
     number of atoms/cell      =           36
     number of atomic types    =            3
     number of electrons       =       307.00
     number of Kohn-Sham states=          185
     kinetic-energy cutoff     =      80.0000  Ry
     charge density cutoff     =     400.0000  Ry
     scf convergence threshold =      1.0E-06
     mixing beta               =       0.7000
     number of iterations used =            8  local-TF  mixing
     energy convergence thresh.=      1.0E-04
     force convergence thresh. =      1.0E-02
     Exchange-correlation= RVV10
                           (   1   4  13   4  26   0   0)
     nstep                     =          200


     celldm(1)=  17.870686  celldm(2)=   0.000000  celldm(3)=   0.000000
     celldm(4)=   0.000000  celldm(5)=   0.000000  celldm(6)=   0.000000

     crystal axes: (cart. coord. in units of alat)
               a(1) = (   1.000000   0.000000   0.000000 )  
               a(2) = (   0.000000   1.155671   0.000000 )  
               a(3) = (   0.000000   0.000000   2.643601 )  

     reciprocal axes: (cart. coord. in units 2 pi/alat)
               b(1) = (  1.000000  0.000000  0.000000 )  
               b(2) = (  0.000000  0.865298  0.000000 )  
               b(3) = (  0.000000  0.000000  0.378272 )  


     PseudoPot. # 1 for Mo read from file:
     ../pseudo/Mo_ONCV_PBE-1.0.oncvpsp.upf
     MD5 check sum: 1b5d28e075c9ccadda658a603575cd1f
     Pseudo is Norm-conserving, Zval = 14.0
     Generated using ONCVPSP code by D. R. Hamann
     Using radial grid of 1526 points,  6 beta functions with: 
                l(1) =   0
                l(2) =   0
                l(3) =   1
                l(4) =   1
                l(5) =   2
                l(6) =   2

     PseudoPot. # 2 for S  read from file:
     ../pseudo/s_pbe_v1.4.uspp.F.UPF
     MD5 check sum: 88d86576ff6df21479756cfb9bdac1df
     Pseudo is Ultrasoft + core correction, Zval =  6.0
     Generated by new atomic code, or converted to UPF format
     Using radial grid of  907 points,  6 beta functions with: 
                l(1) =   0
                l(2) =   0
                l(3) =   1
                l(4) =   1
                l(5) =   2
                l(6) =   2
     Q(r) pseudized with  8 coefficients,  rinner =    1.300   1.300   1.300
                                                       1.300   1.300

     PseudoPot. # 3 for H  read from file:
     ../pseudo/H_ONCV_PBE-1.0.oncvpsp.upf
     MD5 check sum: 1790becc920ee074925cf490c71280fe
     Pseudo is Norm-conserving, Zval =  1.0
     Generated using ONCVPSP code by D. R. Hamann
     Using radial grid of 1166 points,  2 beta functions with: 
                l(1) =   0
                l(2) =   0

     atomic species   valence    mass     pseudopotential
        Mo            14.00    95.94000     Mo( 1.00)
        S              6.00    32.06500     S ( 1.00)
        H              1.00     1.00794     H ( 1.00)

     No symmetry found



   Cartesian axes

     site n.     atom                  positions (alat units)
         1           Mo  tau(   1) = (   0.6952221   0.1890506   0.2985846  )
         2           S   tau(   2) = (   0.8646417   0.0856217   0.4689279  )
         3           S   tau(   3) = (   0.8663890   0.0857843   0.1351291  )
         4           Mo  tau(   4) = (   0.8560186   0.4753274   0.2873942  )
         5           S   tau(   5) = (   0.6873294   0.3936244   0.4596353  )
         6           S   tau(   6) = (   0.6929804   0.3713468   0.1185692  )
         7           Mo  tau(   7) = (   0.6862796   0.7633098   0.2825370  )
         8           S   tau(   8) = (   0.8545980   0.6708292   0.4486168  )
         9           S   tau(   9) = (   0.8545123   0.6666874   0.1146125  )
        10           Mo  tau(  10) = (   0.8629403   1.0471007   0.3006803  )
        11           S   tau(  11) = (   0.6868280   0.9456650   0.4634891  )
        12           S   tau(  12) = (   0.6998113   0.9568511   0.1205389  )
        13           Mo  tau(  13) = (   0.3618216   0.1847309   0.2935964  )
        14           S   tau(  14) = (   0.5260962   0.0863870   0.4600448  )
        15           S   tau(  15) = (   0.5348379   0.0894875   0.1297123  )
        16           Mo  tau(  16) = (   0.5265817   0.4772436   0.2784130  )
        17           S   tau(  17) = (   0.3624753   0.3882513   0.4525556  )
        18           S   tau(  18) = (   0.3635411   0.3752055   0.1119148  )
        19           Mo  tau(  19) = (   0.3652268   0.7630864   0.2781795  )
        20           S   tau(  20) = (   0.5269494   0.6690381   0.1096838  )
        21           Mo  tau(  21) = (   0.5300192   1.0470394   0.2900995  )
        22           S   tau(  22) = (   0.3670346   0.9457522   0.4574073  )
        23           S   tau(  23) = (   0.3604225   0.9585725   0.1159032  )
        24           Mo  tau(  24) = (   0.0313099   0.1847895   0.3013130  )
        25           S   tau(  25) = (   0.1956761   0.0838230   0.4650863  )
        26           S   tau(  26) = (   0.1967693   0.0903508   0.1278874  )
        27           Mo  tau(  27) = (   0.1967578   0.4753919   0.2813011  )
        28           S   tau(  28) = (   0.0287851   0.3864324   0.4586755  )
        29           S   tau(  29) = (   0.0244514   0.3729871   0.1239344  )
        30           Mo  tau(  30) = (   0.0286728   0.7631204   0.2856894  )
        31           S   tau(  31) = (   0.2011512   0.6675435   0.4465001  )
        32           S   tau(  32) = (   0.1969214   0.6672839   0.1104564  )
        33           Mo  tau(  33) = (   0.1950294   1.0511147   0.2932237  )
        34           S   tau(  34) = (   0.0312912   0.9612169   0.4667423  )
        35           S   tau(  35) = (   0.0292670   0.9563028   0.1216485  )
        36           H   tau(  36) = (   0.1111111   0.7704471   0.5792558  )

     number of k points=     1  Gaussian smearing, width (Ry)=  0.0100
                       cart. coord. in units 2pi/alat
        k(    1) = (   0.0000000   0.0000000   0.0000000), wk =   2.0000000

     Dense  grid:  1177734 G-vectors     FFT dimensions: ( 120, 135, 320)

     Smooth grid:   842757 G-vectors     FFT dimensions: ( 108, 120, 270)

     Estimated max dynamical RAM per process >     146.59 MB

     Estimated total dynamical RAM >       6.87 GB

     Initial potential from superposition of free atoms

     starting charge     306.9873, renormalised to     307.0000

     negative rho (up, down):  1.403E-04 0.000E+00


---------------------------------------------------------------------------------
Carrying out rVV10 run using the following parameters:
Nqs =      20    Nr_points =    1024   r_max =   100.000
b_value =  6.30000    beta =  0.00901
     q_mesh =  0.00010000  0.00030000  0.00058939  0.00100810
               0.00161396  0.00249058  0.00375900  0.00559430
               0.00824984  0.01209221  0.01765183  0.02569619
               0.03733578  0.05417739  0.07854596  0.11380545
               0.16482331  0.23864234  0.34545298  0.50000000

Gradients computed in Reciprocal space

---------------------------------------------------------------------------------


     Starting wfcs are  213 randomized atomic wfcs

     total cpu time spent up to now is        2.8 secs

     Self-consistent Calculation

     iteration #  1     ecut=    80.00 Ry     beta= 0.70
     Davidson diagonalization with overlap
     ethr =  1.00E-02,  avg # of iterations =  2.0

     Threshold (ethr) on eigenvalues was too large:
     Diagonalizing with lowered threshold

     Davidson diagonalization with overlap
     ethr =  3.68E-04,  avg # of iterations =  4.0

     negative rho (up, down):  1.820E-08 0.000E+00

     total cpu time spent up to now is       21.8 secs

     total energy              =   -2205.58164850 Ry
     estimated scf accuracy    <       1.41896528 Ry

     iteration #  2     ecut=    80.00 Ry     beta= 0.70
     Davidson diagonalization with overlap
     ethr =  4.62E-04,  avg # of iterations =  2.0

     total cpu time spent up to now is       24.2 secs

     total energy              =   -2205.43474778 Ry
     estimated scf accuracy    <       0.56324115 Ry

     iteration #  3     ecut=    80.00 Ry     beta= 0.70
     Davidson diagonalization with overlap
     ethr =  1.83E-04,  avg # of iterations =  5.0

     total cpu time spent up to now is       26.8 secs

     total energy              =   -2205.51258031 Ry
     estimated scf accuracy    <       0.07188614 Ry

     iteration #  4     ecut=    80.00 Ry     beta= 0.70
     Davidson diagonalization with overlap
     ethr =  2.34E-05,  avg # of iterations = 14.0

     total cpu time spent up to now is       30.0 secs

     total energy              =   -2205.51805898 Ry
     estimated scf accuracy    <       0.02617295 Ry

     iteration #  5     ecut=    80.00 Ry     beta= 0.70
     Davidson diagonalization with overlap
     ethr =  8.53E-06,  avg # of iterations =  2.0

     total cpu time spent up to now is       32.4 secs

     total energy              =   -2205.51742665 Ry
     estimated scf accuracy    <       0.01648446 Ry

     iteration #  6     ecut=    80.00 Ry     beta= 0.70
     Davidson diagonalization with overlap
     ethr =  5.37E-06,  avg # of iterations =  2.0

     total cpu time spent up to now is       34.7 secs

     total energy              =   -2205.51638124 Ry
     estimated scf accuracy    <       0.01114193 Ry

     iteration #  7     ecut=    80.00 Ry     beta= 0.70
     Davidson diagonalization with overlap
     ethr =  3.63E-06,  avg # of iterations =  2.0

     negative rho (up, down):  8.270E-05 0.000E+00

     total cpu time spent up to now is       40.0 secs

     total energy              =   -2205.51483011 Ry
     estimated scf accuracy    <       0.00649165 Ry

     iteration #  8     ecut=    80.00 Ry     beta= 0.70
     Davidson diagonalization with overlap
     c_bands:  1 eigenvalues not converged
     ethr =  2.11E-06,  avg # of iterations = 20.0

     negative rho (up, down):  9.144E-03 0.000E+00

     total cpu time spent up to now is       44.9 secs

     total energy              =   -2205.51453404 Ry
     estimated scf accuracy    <       0.00320580 Ry

     iteration #  9     ecut=    80.00 Ry     beta= 0.70
     Davidson diagonalization with overlap
     ethr =  1.04E-06,  avg # of iterations =  2.0

     negative rho (up, down):  2.678E-02 0.000E+00

     total cpu time spent up to now is       49.7 secs

     total energy              =   -2205.51447010 Ry
     estimated scf accuracy    <       0.00193706 Ry

     iteration # 10     ecut=    80.00 Ry     beta= 0.70
     Davidson diagonalization with overlap
     ethr =  6.31E-07,  avg # of iterations =  2.0

     negative rho (up, down):  2.994E-02 0.000E+00

     total cpu time spent up to now is       54.5 secs

     total energy              =   -2205.51463176 Ry
     estimated scf accuracy    <       0.00068552 Ry

     iteration # 11     ecut=    80.00 Ry     beta= 0.70
     Davidson diagonalization with overlap
     ethr =  2.23E-07,  avg # of iterations =  2.0

     negative rho (up, down):  1.053E-02 0.000E+00

     total cpu time spent up to now is       60.9 secs

     total energy              =   -2205.51464096 Ry
     estimated scf accuracy    <       0.00014644 Ry

     iteration # 12     ecut=    80.00 Ry     beta= 0.70
     Davidson diagonalization with overlap
     ethr =  4.77E-08,  avg # of iterations =  5.0

     negative rho (up, down):  3.245E-03 0.000E+00

     total cpu time spent up to now is       67.1 secs

     total energy              =   -2205.51470164 Ry
     estimated scf accuracy    <       0.00001416 Ry

     iteration # 13     ecut=    80.00 Ry     beta= 0.70
     Davidson diagonalization with overlap
     ethr =  4.61E-09,  avg # of iterations = 11.0

     negative rho (up, down):  3.288E-04 0.000E+00

     total cpu time spent up to now is       77.6 secs

     total energy              =   -2205.51470790 Ry
     estimated scf accuracy    <       0.00000278 Ry

     iteration # 14     ecut=    80.00 Ry     beta= 0.70
     Davidson diagonalization with overlap
     ethr =  9.05E-10,  avg # of iterations =  4.0

     negative rho (up, down):  1.369E-04 0.000E+00

     total cpu time spent up to now is       79.9 secs

     End of self-consistent calculation

          k = 0.0000 0.0000 0.0000 (105382 PWs)   bands (ev):

   -62.8894 -62.8859 -62.8747 -62.8557 -62.8377 -62.8270 -62.8176 -62.8104
   -62.8048 -62.7631 -62.7368 -62.7180 -37.2331 -37.1621 -37.1494 -37.1486
   -37.1339 -37.1059 -37.0941 -37.0823 -37.0739 -37.0703 -37.0634 -37.0520
   -37.0412 -37.0384 -37.0234 -37.0149 -37.0070 -37.0039 -36.9982 -36.9893
   -36.9769 -36.9628 -36.9318 -36.9222 -36.9177 -36.9066 -36.9010 -36.8964
   -36.8873 -36.8695 -36.8671 -36.8496 -36.8431 -36.8038 -36.7374 -36.6846
   -16.0145 -15.2952 -15.1948 -15.0249 -14.9123 -14.8149 -14.6498 -14.5137
   -14.4612 -14.4292 -14.3779 -14.3341 -14.3186 -14.2708 -14.1806 -14.1456
   -14.1219 -14.0914 -14.0308 -13.9355 -13.8439 -13.8225 -13.7985  -7.9638
    -7.6301  -7.4285  -7.3140  -7.2654  -7.2137  -7.1893  -7.1226  -7.0337
    -6.8394  -6.8164  -6.7454  -6.6831  -6.5989  -6.5122  -6.4362  -6.4120
    -6.2685  -6.2401  -6.1330  -5.9528  -5.9346  -5.9029  -5.8237  -5.7996
    -5.7630  -5.7270  -5.6724  -5.6582  -5.6325  -5.5815  -5.5291  -5.4888
    -5.4467  -5.4003  -5.2147  -5.1308  -5.0699  -4.9986  -4.9919  -4.9650
    -4.9070  -4.8417  -4.6660  -4.5397  -4.4167  -4.3049  -4.2811  -4.2548
    -4.1654  -4.0618  -4.0149  -3.9037  -3.8276  -3.7948  -3.7358  -3.6964
    -3.6930  -3.5675  -3.5448  -3.5078  -3.4661  -3.4605  -3.4491  -3.3828
    -3.3556  -3.2215  -3.1473  -2.9084  -2.8904  -2.8049  -2.7986  -2.7332
    -2.7152  -2.6642  -2.6438  -2.6305  -2.5707  -2.2966  -2.0159  -1.9856
    -1.9493  -1.1610  -0.7895  -0.5898  -0.1755  -0.1427  -0.0936  -0.0645
     0.0386   0.1276   0.2241   0.2362   0.2717   0.3009   0.3591   0.4185
     0.4599   0.5081   0.5457   0.5661   0.6163   0.6679   0.7090   0.7346
     0.7872   0.8083   0.8392   0.8953   0.9303   0.9838   1.0267   1.1923
     1.3921

     the Fermi energy is    -1.1611 ev

!    total energy              =   -2205.51471008 Ry
     estimated scf accuracy    <       0.00000019 Ry
     smearing contrib. (-TS)   =      -0.00564515 Ry
     internal energy E=F+TS    =   -2205.50906493 Ry

     The total energy is F=E-TS. E is the sum of the following terms:
     one-electron contribution =  -18042.77521363 Ry
     hartree contribution      =    9008.11244647 Ry
     xc contribution           =    -385.20216949 Ry
     ewald contribution        =    7214.35587172 Ry

     convergence has been achieved in  14 iterations

     negative rho (up, down):  1.369E-04 0.000E+00

     Forces acting on atoms (cartesian axes, Ry/au):

     atom    1 type  1   force =     0.01234427   -0.02427335    0.00516998
     atom    2 type  2   force =    -0.01482716    0.01770308    0.00100099
     atom    3 type  2   force =    -0.01133157    0.00945356   -0.00325032
     atom    4 type  1   force =     0.00645454    0.00491272   -0.00148659
     atom    5 type  2   force =    -0.00093372   -0.00599148   -0.00631134
     atom    6 type  2   force =     0.00069749    0.01031512    0.00013840
     atom    7 type  1   force =     0.00644872   -0.02141914   -0.00508629
     atom    8 type  2   force =    -0.00008746   -0.00390037    0.01707611
     atom    9 type  2   force =     0.01137246    0.00632909    0.01240371
     atom   10 type  1   force =    -0.01649105    0.01005839   -0.03018451
     atom   11 type  2   force =     0.00440065   -0.00105455   -0.00846318
     atom   12 type  2   force =    -0.00014576    0.00171178    0.00681681
     atom   13 type  1   force =     0.00514462    0.00387360   -0.00726987
     atom   14 type  2   force =     0.00832558    0.00074524    0.01180771
     atom   15 type  2   force =    -0.01241829    0.00269769   -0.00768276
     atom   16 type  1   force =     0.00361996    0.00980202    0.00325558
     atom   17 type  2   force =     0.00812341   -0.00127188    0.00212768
     atom   18 type  2   force =    -0.00832236   -0.00713071    0.01411632
     atom   19 type  1   force =     0.00013446   -0.00478532    0.00460327
     atom   20 type  2   force =     0.00259751   -0.00330605    0.00075408
     atom   21 type  1   force =    -0.00306218    0.00780081    0.00064311
     atom   22 type  2   force =    -0.00294873   -0.00188260   -0.00610268
     atom   23 type  2   force =    -0.00120211    0.00192853    0.00845943
     atom   24 type  1   force =    -0.01194915   -0.00425130   -0.02187410
     atom   25 type  2   force =     0.01652263    0.01908289    0.00709194
     atom   26 type  2   force =    -0.01001402   -0.00029887   -0.00347029
     atom   27 type  1   force =     0.00125775   -0.01221945   -0.00861418
     atom   28 type  2   force =    -0.00136838   -0.00436905   -0.00401290
     atom   29 type  2   force =     0.00382898   -0.00039562   -0.00189296
     atom   30 type  1   force =    -0.01027850    0.01020661   -0.02909459
     atom   31 type  2   force =    -0.02362590    0.04515672    0.06662145
     atom   32 type  2   force =    -0.00990936    0.00674878    0.00876250
     atom   33 type  1   force =     0.01013865   -0.00540118   -0.00922883
     atom   34 type  2   force =     0.00907171   -0.05151216   -0.00272264
     atom   35 type  2   force =    -0.00697052    0.00657015    0.01533484
     atom   36 type  3   force =     0.03540285   -0.02163370   -0.02943591
     The non-local contrib.  to forces
     atom    1 type  1   force =    -0.00215982    0.03100568   -0.00907199
     atom    2 type  2   force =    -0.01180458    0.00449972   -0.26859545
     atom    3 type  2   force =    -0.01411708   -0.00288609    0.27037975
     atom    4 type  1   force =    -0.00124839    0.00435698    0.00565704
     atom    5 type  2   force =     0.00605814   -0.03324912   -0.25221607
     atom    6 type  2   force =    -0.00154965    0.01200710    0.26218184
     atom    7 type  1   force =    -0.02594320    0.00426932   -0.02062284
     atom    8 type  2   force =     0.00010595   -0.00238351   -0.24777261
     atom    9 type  2   force =     0.00428036   -0.00997194    0.27707313
     atom   10 type  1   force =     0.00618146    0.00171631   -0.00436661
     atom   11 type  2   force =     0.01453770    0.00272638   -0.25750146
     atom   12 type  2   force =    -0.01305446   -0.01380785    0.26201885
     atom   13 type  1   force =    -0.00039382    0.01999336   -0.00989394
     atom   14 type  2   force =     0.01136832   -0.01140537   -0.26169469
     atom   15 type  2   force =    -0.01381709   -0.00546272    0.26071649
     atom   16 type  1   force =    -0.00420405    0.03070060   -0.02710351
     atom   17 type  2   force =     0.00866404   -0.03320971   -0.24599684
     atom   18 type  2   force =    -0.00689257   -0.00313938    0.27503752
     atom   19 type  1   force =     0.00844601   -0.00927647   -0.01612610
     atom   20 type  2   force =     0.00071112   -0.02009342    0.26581798
     atom   21 type  1   force =     0.00210010    0.02791615    0.00801930
     atom   22 type  2   force =    -0.00928293    0.00157413   -0.25741778
     atom   23 type  2   force =     0.00235107   -0.01910356    0.26627599
     atom   24 type  1   force =     0.00705845    0.01472142   -0.01125002
     atom   25 type  2   force =     0.00926247    0.00612545   -0.25956571
     atom   26 type  2   force =    -0.00266070   -0.01314733    0.26415552
     atom   27 type  1   force =    -0.00363790    0.01309934   -0.00310734
     atom   28 type  2   force =    -0.00448789   -0.02769219   -0.27260641
     atom   29 type  2   force =     0.01169700    0.00410527    0.26405489
     atom   30 type  1   force =    -0.00093805    0.01732896    0.01799373
     atom   31 type  2   force =    -0.11880237    0.14780731   -0.01449767
     atom   32 type  2   force =    -0.00315636   -0.00785999    0.27864075
     atom   33 type  1   force =    -0.00643750    0.00758988    0.00622301
     atom   34 type  2   force =     0.01078262   -0.06999921   -0.21827679
     atom   35 type  2   force =    -0.00275201   -0.01232995    0.27156939
     atom   36 type  3   force =     0.00789844   -0.00657227   -0.01260086
     The ionic contribution  to forces
     atom    1 type  1   force =     0.36491110    0.22739929    5.70889022
     atom    2 type  2   force =    -0.70172829    0.45774115   39.27485636
     atom    3 type  2   force =    -0.17649877    0.03253115  -36.08452693
     atom    4 type  1   force =    -0.03076151    0.41056660    0.55587949
     atom    5 type  2   force =    -0.99099433    1.44080093   38.74274680
     atom    6 type  2   force =     0.33862743   -0.51925798  -38.02118907
     atom    7 type  1   force =    -2.70768317   -2.77815789    2.45155167
     atom    8 type  2   force =    -1.27895211   -0.09575739   37.24160975
     atom    9 type  2   force =     0.30860282   -0.05395413  -38.05279002
     atom   10 type  1   force =    -1.24418942   -0.12102543    5.53171413
     atom   11 type  2   force =    -0.62400141   -1.54005312   39.11424834
     atom   12 type  2   force =     0.42853647    0.71490366  -37.86960208
     atom   13 type  1   force =     0.52734094    0.98857201    2.84544288
     atom   14 type  2   force =     0.07710848    0.02429544   38.51896689
     atom   15 type  2   force =     0.16323696   -0.05222426  -36.79542975
     atom   16 type  1   force =     0.02907131    3.84751333    0.43869922
     atom   17 type  2   force =     0.87166735    1.40385094   37.91197620
     atom   18 type  2   force =    -0.14657664   -0.67031106  -38.57091435
     atom   19 type  1   force =     2.99252606   -2.44927586    0.33584960
     atom   20 type  2   force =     0.24375278   -0.20873069  -38.49988328
     atom   21 type  1   force =     0.09555282    0.15952484    1.11920519
     atom   22 type  2   force =     0.67358705   -1.54848533   38.33270743
     atom   23 type  2   force =    -0.05810068    0.69643665  -38.32820878
     atom   24 type  1   force =    -0.57509478    1.14382442    5.81071608
     atom   25 type  2   force =     0.67861580    0.36231172   39.25299189
     atom   26 type  2   force =    -0.28231957    0.08423299  -37.33899765
     atom   27 type  1   force =     0.09810872    0.14324740   -2.46749949
     atom   28 type  2   force =     0.01454463    0.84722251   38.16588156
     atom   29 type  2   force =    -0.27393212   -0.46087690  -37.28297742
     atom   30 type  1   force =    -0.56898106   -0.91769333   -0.81255915
     atom   31 type  2   force =     1.69999987   -0.60209558   36.63690338
     atom   32 type  2   force =    -0.46198145   -0.03108355  -38.71946287
     atom   33 type  1   force =     0.87752762   -0.55773986    1.82219457
     atom   34 type  2   force =     0.02085289   -0.91023139   39.05719624
     atom   35 type  2   force =    -0.31699540    0.52106485  -37.88478207
     atom   36 type  3   force =    -0.06538039    0.01091388    7.85859502
     The local contribution  to forces
     atom    1 type  1   force =    -0.35036861   -0.28271181   -5.69426390
     atom    2 type  2   force =     0.69838717   -0.44432682  -39.02574486
     atom    3 type  2   force =     0.17862796   -0.02020070   35.83188417
     atom    4 type  1   force =     0.03859633   -0.41002412   -0.56278796
     atom    5 type  2   force =     0.98466694   -1.41553685  -38.51697565
     atom    6 type  2   force =    -0.33663879    0.51865141   37.77998840
     atom    7 type  1   force =     2.74037146    2.75261934   -2.43578566
     atom    8 type  2   force =     1.27892253    0.09393272  -36.99670248
     atom    9 type  2   force =    -0.30152441    0.06973414   37.80922074
     atom   10 type  1   force =     1.22164453    0.12925650   -5.55706335
     atom   11 type  2   force =     0.61465161    1.53668393  -38.88563451
     atom   12 type  2   force =    -0.41675197   -0.70071798   37.63528108
     atom   13 type  1   force =    -0.52173547   -1.00466136   -2.84247589
     atom   14 type  2   force =    -0.07952172   -0.01222314  -38.26584954
     atom   15 type  2   force =    -0.16253671    0.06005597   36.54765008
     atom   16 type  1   force =    -0.02123125   -3.86867565   -0.40812523
     atom   17 type  2   force =    -0.87196979   -1.37363745  -37.68369980
     atom   18 type  2   force =     0.14488397    0.66676342   38.33103809
     atom   19 type  1   force =    -3.00107502    2.45395572   -0.31483153
     atom   20 type  2   force =    -0.24190816    0.22483211   38.25595457
     atom   21 type  1   force =    -0.10068958   -0.17951422   -1.12627327
     atom   22 type  2   force =    -0.66770578    1.54536995  -38.10169970
     atom   23 type  2   force =     0.05484145   -0.67685121   38.09121665
     atom   24 type  1   force =     0.55596250   -1.16283093   -5.82091820
     atom   25 type  2   force =    -0.67131510   -0.34896893  -39.00676618
     atom   26 type  2   force =     0.27511384   -0.07209383   37.09231711
     atom   27 type  1   force =    -0.09337229   -0.16858150    2.46225809
     atom   28 type  2   force =    -0.01166963   -0.82577861  -37.91794796
     atom   29 type  2   force =     0.26684532    0.45707623   37.03767292
     atom   30 type  1   force =     0.55963162    0.91068635    0.76580671
     atom   31 type  2   force =    -1.61156286    0.50745581  -36.56321739
     atom   32 type  2   force =     0.45523020    0.04519884   38.47086343
     atom   33 type  1   force =    -0.86110212    0.54453693   -1.83717564
     atom   34 type  2   force =    -0.02231020    0.92571165  -38.85984729
     atom   35 type  2   force =     0.31282657   -0.50329131   37.64977546
     atom   36 type  3   force =     0.09287982   -0.02597407   -7.87542931
     The core correction contribution to forces
     atom    1 type  1   force =     0.00000000    0.00000000    0.00000000
     atom    2 type  2   force =     0.00030976   -0.00021830    0.02065551
     atom    3 type  2   force =     0.00062796    0.00003415   -0.02088943
     atom    4 type  1   force =     0.00000000    0.00000000    0.00000000
     atom    5 type  2   force =    -0.00062818    0.00183985    0.02031724
     atom    6 type  2   force =     0.00026419   -0.00115610   -0.02083723
     atom    7 type  1   force =     0.00000000    0.00000000    0.00000000
     atom    8 type  2   force =    -0.00006091    0.00039576    0.02002085
     atom    9 type  2   force =     0.00004375    0.00058393   -0.02101268
     atom   10 type  1   force =     0.00000000    0.00000000    0.00000000
     atom   11 type  2   force =    -0.00069380   -0.00039583    0.02053167
     atom   12 type  2   force =     0.00117327    0.00125225   -0.02078897
     atom   13 type  1   force =     0.00000000    0.00000000    0.00000000
     atom   14 type  2   force =    -0.00057875    0.00009676    0.02059098
     atom   15 type  2   force =     0.00074732    0.00036327   -0.02055435
     atom   16 type  1   force =     0.00000000    0.00000000    0.00000000
     atom   17 type  2   force =    -0.00028096    0.00164706    0.02004536
     atom   18 type  2   force =     0.00024240   -0.00047326   -0.02108134
     atom   19 type  1   force =     0.00000000    0.00000000    0.00000000
     atom   20 type  2   force =     0.00009281    0.00071500   -0.02120819
     atom   21 type  1   force =     0.00000000    0.00000000    0.00000000
     atom   22 type  2   force =     0.00033890   -0.00029658    0.02046880
     atom   23 type  2   force =    -0.00034939    0.00142753   -0.02079001
     atom   24 type  1   force =     0.00000000    0.00000000    0.00000000
     atom   25 type  2   force =    -0.00008381   -0.00043623    0.02063717
     atom   26 type  2   force =    -0.00015958    0.00070634   -0.02089642
     atom   27 type  1   force =     0.00000000    0.00000000    0.00000000
     atom   28 type  2   force =     0.00024972    0.00185878    0.02082679
     atom   29 type  2   force =    -0.00077579   -0.00068883   -0.02060891
     atom   30 type  1   force =     0.00000000    0.00000000    0.00000000
     atom   31 type  2   force =     0.00661079   -0.00797452    0.00764633
     atom   32 type  2   force =    -0.00008309    0.00051785   -0.02126499
     atom   33 type  1   force =     0.00000000    0.00000000    0.00000000
     atom   34 type  2   force =    -0.00024556    0.00298491    0.01834257
     atom   35 type  2   force =    -0.00004897    0.00103776   -0.02111568
     atom   36 type  3   force =     0.00000000    0.00000000    0.00000000
     The Hubbard contrib.    to forces
     atom    1 type  1   force =     0.00000000    0.00000000    0.00000000
     atom    2 type  2   force =     0.00000000    0.00000000    0.00000000
     atom    3 type  2   force =     0.00000000    0.00000000    0.00000000
     atom    4 type  1   force =     0.00000000    0.00000000    0.00000000
     atom    5 type  2   force =     0.00000000    0.00000000    0.00000000
     atom    6 type  2   force =     0.00000000    0.00000000    0.00000000
     atom    7 type  1   force =     0.00000000    0.00000000    0.00000000
     atom    8 type  2   force =     0.00000000    0.00000000    0.00000000
     atom    9 type  2   force =     0.00000000    0.00000000    0.00000000
     atom   10 type  1   force =     0.00000000    0.00000000    0.00000000
     atom   11 type  2   force =     0.00000000    0.00000000    0.00000000
     atom   12 type  2   force =     0.00000000    0.00000000    0.00000000
     atom   13 type  1   force =     0.00000000    0.00000000    0.00000000
     atom   14 type  2   force =     0.00000000    0.00000000    0.00000000
     atom   15 type  2   force =     0.00000000    0.00000000    0.00000000
     atom   16 type  1   force =     0.00000000    0.00000000    0.00000000
     atom   17 type  2   force =     0.00000000    0.00000000    0.00000000
     atom   18 type  2   force =     0.00000000    0.00000000    0.00000000
     atom   19 type  1   force =     0.00000000    0.00000000    0.00000000
     atom   20 type  2   force =     0.00000000    0.00000000    0.00000000
     atom   21 type  1   force =     0.00000000    0.00000000    0.00000000
     atom   22 type  2   force =     0.00000000    0.00000000    0.00000000
     atom   23 type  2   force =     0.00000000    0.00000000    0.00000000
     atom   24 type  1   force =     0.00000000    0.00000000    0.00000000
     atom   25 type  2   force =     0.00000000    0.00000000    0.00000000
     atom   26 type  2   force =     0.00000000    0.00000000    0.00000000
     atom   27 type  1   force =     0.00000000    0.00000000    0.00000000
     atom   28 type  2   force =     0.00000000    0.00000000    0.00000000
     atom   29 type  2   force =     0.00000000    0.00000000    0.00000000
     atom   30 type  1   force =     0.00000000    0.00000000    0.00000000
     atom   31 type  2   force =     0.00000000    0.00000000    0.00000000
     atom   32 type  2   force =     0.00000000    0.00000000    0.00000000
     atom   33 type  1   force =     0.00000000    0.00000000    0.00000000
     atom   34 type  2   force =     0.00000000    0.00000000    0.00000000
     atom   35 type  2   force =     0.00000000    0.00000000    0.00000000
     atom   36 type  3   force =     0.00000000    0.00000000    0.00000000
     The SCF correction term to forces
     atom    1 type  1   force =    -0.00003867    0.00002861   -0.00037829
     atom    2 type  2   force =     0.00000850    0.00000246   -0.00016451
     atom    3 type  2   force =     0.00002809   -0.00002982   -0.00009182
     atom    4 type  1   force =    -0.00013216    0.00000838   -0.00022910
     atom    5 type  2   force =    -0.00003657    0.00014882   -0.00017759
     atom    6 type  2   force =    -0.00000596    0.00006582    0.00000052
     atom    7 type  1   force =    -0.00029665   -0.00015478   -0.00022340
     atom    8 type  2   force =    -0.00010320   -0.00009281   -0.00007334
     atom    9 type  2   force =    -0.00003034   -0.00006778   -0.00008140
     atom   10 type  1   force =    -0.00012789    0.00010614   -0.00046261
     atom   11 type  2   force =    -0.00009372   -0.00002078   -0.00010116
     atom   12 type  2   force =    -0.00004934    0.00007684   -0.00008600
     atom   13 type  1   force =    -0.00006731   -0.00003528   -0.00033685
     atom   14 type  2   force =    -0.00005103   -0.00002331   -0.00019988
     atom   15 type  2   force =    -0.00004905   -0.00003944   -0.00005917
     atom   16 type  1   force =    -0.00001633    0.00025887   -0.00020885
     atom   17 type  2   force =     0.00004251    0.00007240   -0.00019116
     atom   18 type  2   force =     0.00002020    0.00002470    0.00004247
     atom   19 type  1   force =     0.00023713   -0.00019357   -0.00028264
     atom   20 type  2   force =    -0.00005133   -0.00003391    0.00007906
     atom   21 type  1   force =    -0.00002580   -0.00013083   -0.00030205
     atom   22 type  2   force =     0.00011376   -0.00004965   -0.00015538
     atom   23 type  2   force =     0.00005515    0.00001425   -0.00002837
     atom   24 type  1   force =     0.00012441    0.00002892   -0.00041591
     atom   25 type  2   force =     0.00004299    0.00004602   -0.00019917
     atom   26 type  2   force =     0.00001170   -0.00000191   -0.00004278
     atom   27 type  1   force =     0.00015894    0.00001045   -0.00025938
     atom   28 type  2   force =    -0.00000548    0.00001558   -0.00016082
     atom   29 type  2   force =    -0.00000570   -0.00001626   -0.00002839
     atom   30 type  1   force =     0.00000872   -0.00012024   -0.00032982
     atom   31 type  2   force =     0.00012839   -0.00004117   -0.00020714
     atom   32 type  2   force =     0.00008106   -0.00002925   -0.00000777
     atom   33 type  1   force =     0.00015038    0.00020700   -0.00046470
     atom   34 type  2   force =    -0.00000831    0.00001701   -0.00013131
     atom   35 type  2   force =    -0.00000098    0.00008393   -0.00010621
     atom   36 type  3   force =     0.00000470   -0.00000611    0.00000530

     Total force =     0.146855     Total SCF correction =     0.001522

     BFGS Geometry Optimization
     Energy error            =      0.0E+00 Ry
     Gradient error          =      6.7E-02 Ry/Bohr

     number of scf cycles    =   1
     number of bfgs steps    =   0

     energy             new  =   -2205.5147100751 Ry

     new trust radius        =       0.0838792611 bohr
     new conv_thr            =       0.0000010000 Ry


ATOMIC_POSITIONS (angstrom)
Mo            6.5810807135        1.7749613235        2.8263788656
S             8.1688631413        0.8190720917        4.4350680536
S             8.1872366778        0.8162443545        1.2761634314
Mo            8.0985781601        4.4976566437        2.7170317262
S             6.4994151514        3.7192409314        4.3433208337
S             6.5537188956        3.5171960804        1.1213534687
Mo            6.4933942120        7.2071027638        2.6691929354
S             8.0816814482        6.3418070080        4.2514978506
S             8.0869356921        6.3080515261        1.0904267611
Mo            8.1518923615        9.9075030815        2.8274888069
S             6.4974963210        8.9423687699        4.3786270128
S             6.6178700666        9.0496170491        1.1435146039
Mo            3.4243820767        1.7490056730        2.7726241129
S             4.9795711958        0.8173355722        4.3567814623
S             5.0512622763        0.8476896630        1.2225929218
Mo            4.9816722816        4.5183650085        2.6346073256
S             3.4321403863        3.6709266347        4.2808355016
S             3.4335165767        3.5444552877        1.0658217171
Mo            3.4539328950        7.2137922585        2.6331128080
S             4.9846087336        6.3251828017        1.0376527754
Mo            5.0106434840        9.9057280621        2.7437412786
S             3.4693977164        8.9427550373        4.3223619114
S             3.4077930353        9.0660105174        1.1005448381
Mo            0.2897672706        1.7452598389        2.8378694318
S             1.8592056101        0.8027922388        4.4019623323
S             1.8555008405        0.8542677647        1.2075644581
Mo            1.8613568837        4.4892005093        2.6556389519
S             0.2714897339        3.6520868228        4.3354605663
S             0.2332574162        3.5270398756        1.1710161704
Mo            0.2657130025        7.2220472000        2.6863002332
S             1.8897359587        6.3366947397        4.2576986770
S             1.8569944069        6.3139151112        1.0491961970
Mo            1.8497118071        9.9372809740        2.7680625674
S             0.3007134416        9.0627387659        4.4124287084
S             0.2730827585        9.0470024894        1.1585156263
H             1.0694854942        7.2744852736        5.4623066144



     Writing config-only to output data dir ./MoS2-V-O.save/
     NEW-OLD atomic charge density approx. for the potential

     negative rho (up, down):  1.463E-04 0.000E+00

     total cpu time spent up to now is       83.5 secs

     Self-consistent Calculation

     iteration #  1     ecut=    80.00 Ry     beta= 0.70
     Davidson diagonalization with overlap
     ethr =  1.00E-06,  avg # of iterations = 10.0

     negative rho (up, down):  7.262E-05 0.000E+00

     total cpu time spent up to now is       97.0 secs

     total energy              =   -2205.53314147 Ry
     estimated scf accuracy    <       0.00217968 Ry

     iteration #  2     ecut=    80.00 Ry     beta= 0.70
     Davidson diagonalization with overlap
     ethr =  7.10E-07,  avg # of iterations =  2.0

     negative rho (up, down):  5.762E-05 0.000E+00

     total cpu time spent up to now is      113.7 secs

     total energy              =   -2205.53316696 Ry
     estimated scf accuracy    <       0.00051079 Ry

     iteration #  3     ecut=    80.00 Ry     beta= 0.70
     Davidson diagonalization with overlap
     ethr =  1.66E-07,  avg # of iterations =  5.0

     negative rho (up, down):  5.395E-05 0.000E+00

     total cpu time spent up to now is      126.1 secs

     total energy              =   -2205.53320147 Ry
     estimated scf accuracy    <       0.00010425 Ry

     iteration #  4     ecut=    80.00 Ry     beta= 0.70
     Davidson diagonalization with overlap
     ethr =  3.40E-08,  avg # of iterations =  5.0

     negative rho (up, down):  5.124E-05 0.000E+00

     total cpu time spent up to now is      139.8 secs

     total energy              =   -2205.53322000 Ry
     estimated scf accuracy    <       0.00001143 Ry

     iteration #  5     ecut=    80.00 Ry     beta= 0.70
     Davidson diagonalization with overlap
     ethr =  3.72E-09,  avg # of iterations = 11.0

     negative rho (up, down):  4.698E-05 0.000E+00

     total cpu time spent up to now is      151.4 secs

     total energy              =   -2205.53322324 Ry
     estimated scf accuracy    <       0.00000442 Ry

     iteration #  6     ecut=    80.00 Ry     beta= 0.70
     Davidson diagonalization with overlap
     ethr =  1.44E-09,  avg # of iterations =  2.0

     negative rho (up, down):  4.488E-05 0.000E+00

     total cpu time spent up to now is      166.3 secs

     total energy              =   -2205.53322425 Ry
     estimated scf accuracy    <       0.00000175 Ry

     iteration #  7     ecut=    80.00 Ry     beta= 0.70
     Davidson diagonalization with overlap
     ethr =  5.71E-10,  avg # of iterations =  2.0

     negative rho (up, down):  1.372E-04 0.000E+00

     total cpu time spent up to now is      168.5 secs

     End of self-consistent calculation

          k = 0.0000 0.0000 0.0000 (105382 PWs)   bands (ev):

   -62.8809 -62.8758 -62.8667 -62.8435 -62.8264 -62.8170 -62.8072 -62.8014
   -62.7935 -62.7579 -62.7250 -62.7068 -37.2210 -37.1484 -37.1403 -37.1342
   -37.1212 -37.0968 -37.0830 -37.0701 -37.0615 -37.0586 -37.0560 -37.0412
   -37.0315 -37.0247 -37.0113 -37.0044 -36.9965 -36.9938 -36.9903 -36.9788
   -36.9677 -36.9525 -36.9208 -36.9132 -36.9078 -36.9042 -36.8893 -36.8863
   -36.8797 -36.8581 -36.8572 -36.8410 -36.8343 -36.7942 -36.7262 -36.6729
   -16.0096 -15.3081 -15.1839 -15.0178 -14.8967 -14.8129 -14.6439 -14.4986
   -14.4408 -14.4236 -14.3784 -14.3243 -14.3177 -14.2661 -14.1745 -14.1362
   -14.1082 -14.0941 -14.0297 -13.9098 -13.8386 -13.8216 -13.8011  -8.0497
    -7.6218  -7.4190  -7.3069  -7.2452  -7.2118  -7.1884  -7.1206  -7.0395
    -6.8298  -6.7918  -6.7396  -6.6652  -6.6030  -6.5019  -6.4264  -6.3920
    -6.2578  -6.2354  -6.1590  -5.9339  -5.9227  -5.8889  -5.8194  -5.7866
    -5.7592  -5.7105  -5.6794  -5.6517  -5.6256  -5.5728  -5.5264  -5.4774
    -5.4289  -5.3560  -5.1971  -5.1189  -5.0465  -5.0005  -4.9750  -4.9578
    -4.9004  -4.8392  -4.6526  -4.5316  -4.4162  -4.3027  -4.2710  -4.2435
    -4.1743  -4.0656  -4.0178  -3.9239  -3.8296  -3.7751  -3.7239  -3.6920
    -3.6795  -3.5458  -3.5379  -3.5082  -3.4660  -3.4614  -3.4435  -3.3771
    -3.3516  -3.2177  -3.1457  -2.9034  -2.8683  -2.7871  -2.7826  -2.7213
    -2.7012  -2.6641  -2.6470  -2.6164  -2.5602  -2.2802  -2.0027  -1.9821
    -1.9663  -1.1558  -0.7641  -0.5734  -0.1565  -0.1404  -0.0708  -0.0580
     0.0444   0.1335   0.2429   0.2674   0.2928   0.3084   0.3773   0.4298
     0.4718   0.5099   0.5632   0.5729   0.6216   0.6727   0.7215   0.7451
     0.7916   0.8204   0.8549   0.8942   0.9571   1.0007   1.0331   1.2227
     1.4056

     the Fermi energy is    -1.1558 ev

!    total energy              =   -2205.53322407 Ry
     estimated scf accuracy    <       0.00000080 Ry
     smearing contrib. (-TS)   =      -0.00564331 Ry
     internal energy E=F+TS    =   -2205.52758075 Ry

     The total energy is F=E-TS. E is the sum of the following terms:
     one-electron contribution =  -18041.94704907 Ry
     hartree contribution      =    9007.82097509 Ry
     xc contribution           =    -385.20759937 Ry
     ewald contribution        =    7213.80609260 Ry

     convergence has been achieved in   7 iterations

     negative rho (up, down):  1.372E-04 0.000E+00

     Forces acting on atoms (cartesian axes, Ry/au):

     atom    1 type  1   force =     0.00302501   -0.01175829   -0.00018622
     atom    2 type  2   force =    -0.00949940    0.01076673   -0.00131444
     atom    3 type  2   force =    -0.01077042    0.00774396   -0.00961387
     atom    4 type  1   force =     0.00641933    0.00256050    0.00151337
     atom    5 type  2   force =     0.00097492   -0.00585955   -0.00611637
     atom    6 type  2   force =     0.00081860    0.00665308    0.00201064
     atom    7 type  1   force =     0.00379271   -0.01414128    0.00115439
     atom    8 type  2   force =     0.00132014   -0.00323522    0.01083111
     atom    9 type  2   force =     0.00898817    0.00440845    0.00514782
     atom   10 type  1   force =    -0.00563717    0.00739468   -0.00973225
     atom   11 type  2   force =     0.00409742   -0.00150072   -0.01045019
     atom   12 type  2   force =    -0.00314148    0.00015249    0.00264872
     atom   13 type  1   force =     0.00447808    0.00207071   -0.00241159
     atom   14 type  2   force =     0.00594865    0.00057209    0.00847227
     atom   15 type  2   force =    -0.00869682    0.00212520   -0.00650561
     atom   16 type  1   force =     0.00211198    0.00600310    0.00295096
     atom   17 type  2   force =     0.00620000    0.00061312    0.00096805
     atom   18 type  2   force =    -0.00553808   -0.00514503    0.01024461
     atom   19 type  1   force =    -0.00158033   -0.00306622    0.00842778
     atom   20 type  2   force =     0.00075618   -0.00254576   -0.00117913
     atom   21 type  1   force =    -0.00280661    0.00412068    0.00237008
     atom   22 type  2   force =    -0.00062238    0.00028396   -0.00544289
     atom   23 type  2   force =     0.00026006   -0.00013423    0.00508449
     atom   24 type  1   force =    -0.00763788   -0.00319978   -0.00917308
     atom   25 type  2   force =     0.01090398    0.01413582   -0.00015890
     atom   26 type  2   force =    -0.00684715   -0.00102379   -0.00452404
     atom   27 type  1   force =     0.00061278   -0.00181915    0.00246042
     atom   28 type  2   force =    -0.00045790   -0.00492450   -0.00608594
     atom   29 type  2   force =     0.00256007   -0.00011221   -0.00479901
     atom   30 type  1   force =    -0.00662440    0.00194394   -0.00699519
     atom   31 type  2   force =    -0.02599636    0.03589847    0.05316360
     atom   32 type  2   force =    -0.00710259    0.00428850    0.00698234
     atom   33 type  1   force =     0.00452424   -0.00154360    0.00079808
     atom   34 type  2   force =     0.00145015   -0.03593969   -0.01265453
     atom   35 type  2   force =    -0.00570974    0.00918636    0.00563277
     atom   36 type  3   force =     0.03942625   -0.02497284   -0.03351824
     The non-local contrib.  to forces
     atom    1 type  1   force =    -0.00051067    0.02760854   -0.00951133
     atom    2 type  2   force =    -0.00845461   -0.00028978   -0.26785387
     atom    3 type  2   force =    -0.01234030   -0.00550148    0.26481382
     atom    4 type  1   force =    -0.00048166    0.00634210    0.00429448
     atom    5 type  2   force =     0.00776194   -0.03357782   -0.25317815
     atom    6 type  2   force =    -0.00141251    0.00852932    0.26429106
     atom    7 type  1   force =    -0.02679717    0.00350116   -0.02228064
     atom    8 type  2   force =     0.00173091   -0.00184563   -0.24961536
     atom    9 type  2   force =     0.00262712   -0.01146911    0.27218714
     atom   10 type  1   force =     0.00361803    0.00294920   -0.00544210
     atom   11 type  2   force =     0.01281609    0.00125418   -0.25967094
     atom   12 type  2   force =    -0.01489366   -0.01549297    0.26066789
     atom   13 type  1   force =     0.00050130    0.02149662   -0.01027646
     atom   14 type  2   force =     0.00946553   -0.01140415   -0.26301884
     atom   15 type  2   force =    -0.01102471   -0.00615049    0.26071956
     atom   16 type  1   force =    -0.00529008    0.03208123   -0.02880395
     atom   17 type  2   force =     0.00881990   -0.03172410   -0.24650130
     atom   18 type  2   force =    -0.00461893   -0.00164989    0.27299593
     atom   19 type  1   force =     0.00886684   -0.00924195   -0.01805507
     atom   20 type  2   force =    -0.00070399   -0.01892924    0.26410938
     atom   21 type  1   force =     0.00179606    0.02883202    0.00675813
     atom   22 type  2   force =    -0.00770652    0.00214297   -0.25736928
     atom   23 type  2   force =     0.00354825   -0.02075698    0.26530831
     atom   24 type  1   force =     0.00503565    0.01530247   -0.01119560
     atom   25 type  2   force =     0.00511072    0.00182831   -0.26381572
     atom   26 type  2   force =    -0.00030268   -0.01327387    0.26377750
     atom   27 type  1   force =    -0.00341492    0.01050154   -0.00605887
     atom   28 type  2   force =    -0.00479789   -0.02778480   -0.27349550
     atom   29 type  2   force =     0.01118459    0.00297817    0.26356332
     atom   30 type  1   force =    -0.00206964    0.01832055    0.01701968
     atom   31 type  2   force =    -0.13072030    0.16364381   -0.00442953
     atom   32 type  2   force =    -0.00195924   -0.00971994    0.27851470
     atom   33 type  1   force =    -0.00484614    0.00626801    0.00444224
     atom   34 type  2   force =     0.00431284   -0.05333623   -0.22447229
     atom   35 type  2   force =    -0.00287545   -0.01058322    0.26627086
     atom   36 type  3   force =     0.01000343   -0.00880608   -0.01533028
     The ionic contribution  to forces
     atom    1 type  1   force =     0.10918732    0.57971705    5.80998112
     atom    2 type  2   force =    -0.49774192    0.31438473   39.36765956
     atom    3 type  2   force =    -0.16022134    0.06403318  -36.21511137
     atom    4 type  1   force =    -0.02950489    0.29806443    0.63772889
     atom    5 type  2   force =    -0.98619036    1.41624362   38.66766949
     atom    6 type  2   force =     0.29161419   -0.57119110  -37.93723814
     atom    7 type  1   force =    -2.84758472   -2.52836579    2.46564339
     atom    8 type  2   force =    -1.22395770   -0.06843114   37.36758894
     atom    9 type  2   force =     0.26110107   -0.11563803  -38.07300238
     atom   10 type  1   force =    -0.92692813   -0.18944678    5.20869804
     atom   11 type  2   force =    -0.58482398   -1.56590009   39.04717790
     atom   12 type  2   force =     0.30555182    0.62057700  -37.83551529
     atom   13 type  1   force =     0.48260886    0.94824187    2.80013233
     atom   14 type  2   force =    -0.00602965    0.04660158   38.60968399
     atom   15 type  2   force =     0.17224870   -0.00507036  -36.84734555
     atom   16 type  1   force =    -0.05342387    3.69526106    0.58112914
     atom   17 type  2   force =     0.81554419    1.43981044   37.90843576
     atom   18 type  2   force =    -0.06880601   -0.61379028  -38.50128345
     atom   19 type  1   force =     2.91095867   -2.61021143    0.54354316
     atom   20 type  2   force =     0.16796169   -0.18080260  -38.52507667
     atom   21 type  1   force =     0.05522941    0.00755439    1.24138919
     atom   22 type  2   force =     0.69660783   -1.51518700   38.31670687
     atom   23 type  2   force =    -0.01155406    0.62906034  -38.29567941
     atom   24 type  1   force =    -0.33855893    1.01703560    5.54176574
     atom   25 type  2   force =     0.55073690    0.31106683   39.21834687
     atom   26 type  2   force =    -0.23778188    0.07107673  -37.30486276
     atom   27 type  1   force =     0.13957045    0.50562042   -2.34079649
     atom   28 type  2   force =     0.07571743    0.81966548   38.13476655
     atom   29 type  2   force =    -0.28744162   -0.41510290  -37.30551035
     atom   30 type  1   force =    -0.37340305   -1.10894100   -1.37018366
     atom   31 type  2   force =     1.71801039   -0.83952023   36.76349106
     atom   32 type  2   force =    -0.36068065   -0.07578748  -38.61514628
     atom   33 type  1   force =     0.68406228   -0.33958755    1.90857939
     atom   34 type  2   force =    -0.08712188   -0.68271310   38.95051758
     atom   35 type  2   force =    -0.25195549    0.58900254  -37.83038554
     atom   36 type  3   force =    -0.10300108    0.05266957    7.90650237
     The local contribution  to forces
     atom    1 type  1   force =    -0.10570342   -0.61900478   -5.80166321
     atom    2 type  2   force =     0.49632552   -0.30313602  -39.12233071
     atom    3 type  2   force =     0.16123088   -0.05098585   35.96125541
     atom    4 type  1   force =     0.03625364   -0.30200339   -0.64156260
     atom    5 type  2   force =     0.98008515   -1.39039718  -38.44142956
     atom    6 type  2   force =    -0.28962324    0.57035243   37.69560754
     atom    7 type  1   force =     2.87811309    2.51070199   -2.44323663
     atom    8 type  2   force =     1.22356142    0.06660095  -37.12777983
     atom    9 type  2   force =    -0.25481235    0.13096462   37.82668085
     atom   10 type  1   force =     0.91771172    0.19395787   -5.21414084
     atom   11 type  2   force =     0.57665613    1.56357014  -38.81905979
     atom   12 type  2   force =    -0.29491903   -0.60611426   37.59799946
     atom   13 type  1   force =    -0.47868130   -0.96767828   -2.79325304
     atom   14 type  2   force =     0.00310551   -0.03472222  -38.35935556
     atom   15 type  2   force =    -0.17058002    0.01290632   36.60047701
     atom   16 type  1   force =     0.06092276   -3.72150054   -0.55034201
     atom   17 type  2   force =    -0.81780132   -1.40914488  -37.68153391
     atom   18 type  2   force =     0.06766911    0.61074882   38.25937705
     atom   19 type  1   force =    -2.92122711    2.61654269   -0.51821154
     atom   20 type  2   force =    -0.16658864    0.19647566   38.28074090
     atom   21 type  1   force =    -0.05979382   -0.03219449   -1.24687138
     atom   22 type  2   force =    -0.68978456    1.51370051  -38.08580641
     atom   23 type  2   force =     0.00861710   -0.60985576   38.05601449
     atom   24 type  1   force =     0.32594649   -1.03551065   -5.54075051
     atom   25 type  2   force =    -0.54492702   -0.29844349  -38.97591435
     atom   26 type  2   force =     0.23146400   -0.05953108   37.05719192
     atom   27 type  1   force =    -0.13553803   -0.51816920    2.34821498
     atom   28 type  2   force =    -0.07169302   -0.79870410  -37.88872560
     atom   29 type  2   force =     0.27959233    0.41256220   37.05753676
     atom   30 type  1   force =     0.36877197    1.09268991    1.34499725
     atom   31 type  2   force =    -1.62074052    0.72098619  -36.71266990
     atom   32 type  2   force =     0.35558362    0.08925760   38.36461884
     atom   33 type  1   force =    -0.67474776    0.33187988   -1.91331803
     atom   34 type  2   force =     0.08435131    0.69769328  -38.75769610
     atom   35 type  2   force =     0.24909185   -0.57027421   37.59047005
     atom   36 type  3   force =     0.13241886   -0.06882547   -7.92477503
     The core correction contribution to forces
     atom    1 type  1   force =     0.00000000    0.00000000    0.00000000
     atom    2 type  2   force =     0.00028054   -0.00011069    0.02067236
     atom    3 type  2   force =     0.00054103    0.00018313   -0.02077937
     atom    4 type  1   force =     0.00000000    0.00000000    0.00000000
     atom    5 type  2   force =    -0.00070469    0.00182256    0.02030171
     atom    6 type  2   force =     0.00023793   -0.00103684   -0.02084750
     atom    7 type  1   force =     0.00000000    0.00000000    0.00000000
     atom    8 type  2   force =    -0.00008118    0.00038872    0.02005332
     atom    9 type  2   force =     0.00008396    0.00058276   -0.02092961
     atom   10 type  1   force =     0.00000000    0.00000000    0.00000000
     atom   11 type  2   force =    -0.00056835   -0.00035509    0.02057947
     atom   12 type  2   force =     0.00115556    0.00124393   -0.02074111
     atom   13 type  1   force =     0.00000000    0.00000000    0.00000000
     atom   14 type  2   force =    -0.00054713    0.00012781    0.02064815
     atom   15 type  2   force =     0.00065064    0.00042638   -0.02056526
     atom   16 type  1   force =     0.00000000    0.00000000    0.00000000
     atom   17 type  2   force =    -0.00030340    0.00157432    0.02005426
     atom   18 type  2   force =     0.00020861   -0.00051000   -0.02104912
     atom   19 type  1   force =     0.00000000    0.00000000    0.00000000
     atom   20 type  2   force =     0.00011837    0.00069090   -0.02116983
     atom   21 type  1   force =     0.00000000    0.00000000    0.00000000
     atom   22 type  2   force =     0.00028566   -0.00030916    0.02047331
     atom   23 type  2   force =    -0.00035502    0.00145558   -0.02078794
     atom   24 type  1   force =     0.00000000    0.00000000    0.00000000
     atom   25 type  2   force =     0.00005031   -0.00025257    0.02072336
     atom   26 type  2   force =    -0.00023399    0.00070874   -0.02086512
     atom   27 type  1   force =     0.00000000    0.00000000    0.00000000
     atom   28 type  2   force =     0.00029015    0.00181540    0.02085416
     atom   29 type  2   force =    -0.00077623   -0.00060248   -0.02062062
     atom   30 type  1   force =     0.00000000    0.00000000    0.00000000
     atom   31 type  2   force =     0.00745194   -0.00918375    0.00629623
     atom   32 type  2   force =    -0.00007621    0.00056841   -0.02127924
     atom   33 type  1   force =     0.00000000    0.00000000    0.00000000
     atom   34 type  2   force =    -0.00006676    0.00238577    0.01844833
     atom   35 type  2   force =    -0.00000437    0.00103647   -0.02096351
     atom   36 type  3   force =     0.00000000    0.00000000    0.00000000
     The Hubbard contrib.    to forces
     atom    1 type  1   force =     0.00000000    0.00000000    0.00000000
     atom    2 type  2   force =     0.00000000    0.00000000    0.00000000
     atom    3 type  2   force =     0.00000000    0.00000000    0.00000000
     atom    4 type  1   force =     0.00000000    0.00000000    0.00000000
     atom    5 type  2   force =     0.00000000    0.00000000    0.00000000
     atom    6 type  2   force =     0.00000000    0.00000000    0.00000000
     atom    7 type  1   force =     0.00000000    0.00000000    0.00000000
     atom    8 type  2   force =     0.00000000    0.00000000    0.00000000
     atom    9 type  2   force =     0.00000000    0.00000000    0.00000000
     atom   10 type  1   force =     0.00000000    0.00000000    0.00000000
     atom   11 type  2   force =     0.00000000    0.00000000    0.00000000
     atom   12 type  2   force =     0.00000000    0.00000000    0.00000000
     atom   13 type  1   force =     0.00000000    0.00000000    0.00000000
     atom   14 type  2   force =     0.00000000    0.00000000    0.00000000
     atom   15 type  2   force =     0.00000000    0.00000000    0.00000000
     atom   16 type  1   force =     0.00000000    0.00000000    0.00000000
     atom   17 type  2   force =     0.00000000    0.00000000    0.00000000
     atom   18 type  2   force =     0.00000000    0.00000000    0.00000000
     atom   19 type  1   force =     0.00000000    0.00000000    0.00000000
     atom   20 type  2   force =     0.00000000    0.00000000    0.00000000
     atom   21 type  1   force =     0.00000000    0.00000000    0.00000000
     atom   22 type  2   force =     0.00000000    0.00000000    0.00000000
     atom   23 type  2   force =     0.00000000    0.00000000    0.00000000
     atom   24 type  1   force =     0.00000000    0.00000000    0.00000000
     atom   25 type  2   force =     0.00000000    0.00000000    0.00000000
     atom   26 type  2   force =     0.00000000    0.00000000    0.00000000
     atom   27 type  1   force =     0.00000000    0.00000000    0.00000000
     atom   28 type  2   force =     0.00000000    0.00000000    0.00000000
     atom   29 type  2   force =     0.00000000    0.00000000    0.00000000
     atom   30 type  1   force =     0.00000000    0.00000000    0.00000000
     atom   31 type  2   force =     0.00000000    0.00000000    0.00000000
     atom   32 type  2   force =     0.00000000    0.00000000    0.00000000
     atom   33 type  1   force =     0.00000000    0.00000000    0.00000000
     atom   34 type  2   force =     0.00000000    0.00000000    0.00000000
     atom   35 type  2   force =     0.00000000    0.00000000    0.00000000
     atom   36 type  3   force =     0.00000000    0.00000000    0.00000000
     The SCF correction term to forces
     atom    1 type  1   force =     0.00005327   -0.00008135    0.00097967
     atom    2 type  2   force =     0.00009256   -0.00008377    0.00051069
     atom    3 type  2   force =     0.00002080    0.00001273    0.00018010
     atom    4 type  1   force =     0.00015373    0.00015510    0.00102506
     atom    5 type  2   force =     0.00002437    0.00004701    0.00049260
     atom    6 type  2   force =     0.00000373   -0.00000299    0.00017015
     atom    7 type  1   force =     0.00006299    0.00001911    0.00100073
     atom    8 type  2   force =     0.00006817    0.00004962    0.00055649
     atom    9 type  2   force =    -0.00001014   -0.00003404    0.00018429
     atom   10 type  1   force =    -0.00003730   -0.00006787    0.00112511
     atom   11 type  2   force =     0.00001902   -0.00007212    0.00049564
     atom   12 type  2   force =    -0.00003469   -0.00006347    0.00021022
     atom   13 type  1   force =     0.00005071    0.00000824    0.00095804
     atom   14 type  2   force =    -0.00004412   -0.00003317    0.00048700
     atom   15 type  2   force =     0.00001005    0.00001109    0.00018111
     atom   16 type  1   force =    -0.00009534    0.00015909    0.00094024
     atom   17 type  2   force =    -0.00005788    0.00009508    0.00048571
     atom   18 type  2   force =     0.00001063    0.00005407    0.00017666
     atom   19 type  1   force =    -0.00017724   -0.00015778    0.00112370
     atom   20 type  2   force =    -0.00002976    0.00001727    0.00018954
     atom   21 type  1   force =    -0.00003675   -0.00007349    0.00106660
     atom   22 type  2   force =    -0.00002330   -0.00006562    0.00052508
     atom   23 type  2   force =     0.00000528   -0.00003967    0.00020151
     atom   24 type  1   force =    -0.00005959   -0.00002946    0.00097975
     atom   25 type  2   force =    -0.00006545   -0.00006552    0.00047340
     atom   26 type  2   force =     0.00000890   -0.00000657    0.00020688
     atom   27 type  1   force =    -0.00000323    0.00022583    0.00107327
     atom   28 type  2   force =     0.00002692    0.00008126    0.00048692
     atom   29 type  2   force =     0.00000250    0.00005055    0.00020435
     atom   30 type  1   force =     0.00007781   -0.00012778    0.00114400
     atom   31 type  2   force =     0.00000362   -0.00002981    0.00044820
     atom   32 type  2   force =     0.00003138   -0.00003234    0.00024679
     atom   33 type  1   force =     0.00005735   -0.00010620    0.00106694
     atom   34 type  2   force =    -0.00002387    0.00002833    0.00052041
     atom   35 type  2   force =     0.00003521    0.00000252    0.00021337
     atom   36 type  3   force =     0.00000653   -0.00001312    0.00005717

     Total force =     0.113385     Total SCF correction =     0.004075
     Energy error            =      1.9E-02 Ry
     Gradient error          =      5.3E-02 Ry/Bohr

     number of scf cycles    =   2
     number of bfgs steps    =   1

     energy             old  =   -2205.5147100751 Ry
     energy             new  =   -2205.5332240661 Ry

     CASE: energy            _new < energy            _old

     new trust radius        =       0.0922671872 bohr
     new conv_thr            =       0.0000000532 Ry


ATOMIC_POSITIONS (angstrom)
Mo            6.5845312001        1.7651405859        2.8270647009
S             8.1616535890        0.8273794776        4.4345328692
S             8.1798925047        0.8217226808        1.2706477019
Mo            8.1029100635        4.4997387083        2.7175972962
S             6.4997831241        3.7152716597        4.3391689205
S             6.5542522805        3.5222349173        1.1224250210
Mo            6.4963527895        7.1964692319        2.6690256583
S             8.0823579894        6.3395257444        4.2597439009
S             8.0933548065        6.3113137187        1.0949954519
Mo            8.1464488392        9.9128905249        2.8178312953
S             6.5003038811        8.9414248819        4.3718846621
S             6.6162065223        9.0499560218        1.1459311917
Mo            3.4275012300        1.7506744103        2.7702628000
S             4.9839405867        0.8177473866        4.3629969428
S             5.0448369747        0.8492087479        1.2180298857
Mo            4.9833241611        4.5229864977        2.6366423892
S             3.4366104872        3.6710543387        4.2816636162
S             3.4293622021        3.5406867978        1.0733129708
Mo            3.4531275206        7.2114652487        2.6382137327
S             4.9853973104        6.3233518149        1.0371508897
Mo            5.0087131409        9.9090628239        2.7450770955
S             3.4686258478        8.9426182371        4.3185935068
S             3.4077468264        9.0662325078        1.1044829701
Mo            0.2839663453        1.7429439316        2.8297629355
S             1.8674058979        0.8130690304        4.4029535745
S             1.8504062079        0.8536875510        1.2046749148
Mo            1.8618675904        4.4863990087        2.6556197001
S             0.2710431952        3.6488518905        4.3316727174
S             0.2351750947        3.5269213188        1.1682218815
Mo            0.2606947006        7.2246090062        2.6782379693
S             1.8725737094        6.3622924117        4.2955690435
S             1.8517821621        6.3171782010        1.0541718871
Mo            1.8536115635        9.9356562623        2.7670816134
S             0.3028453243        9.0361568464        4.4054041244
S             0.2690434652        9.0527977171        1.1637817127
H             1.0954489886        7.2581596035        5.4403339932



     Writing config-only to output data dir ./MoS2-V-O.save/
     NEW-OLD atomic charge density approx. for the potential

     negative rho (up, down):  1.475E-04 0.000E+00

     total cpu time spent up to now is      172.1 secs

     Self-consistent Calculation

     iteration #  1     ecut=    80.00 Ry     beta= 0.70
     Davidson diagonalization with overlap
     ethr =  1.00E-06,  avg # of iterations = 10.0

     negative rho (up, down):  6.652E-05 0.000E+00

     total cpu time spent up to now is      185.9 secs

     total energy              =   -2205.54848994 Ry
     estimated scf accuracy    <       0.00153449 Ry

     iteration #  2     ecut=    80.00 Ry     beta= 0.70
     Davidson diagonalization with overlap
     ethr =  5.00E-07,  avg # of iterations =  2.0

     negative rho (up, down):  4.133E-05 0.000E+00

     total cpu time spent up to now is      202.2 secs

     total energy              =   -2205.54851297 Ry
     estimated scf accuracy    <       0.00035300 Ry

     iteration #  3     ecut=    80.00 Ry     beta= 0.70
     Davidson diagonalization with overlap
     ethr =  1.15E-07,  avg # of iterations =  5.0

     negative rho (up, down):  3.114E-05 0.000E+00

     total cpu time spent up to now is      217.5 secs

     total energy              =   -2205.54853674 Ry
     estimated scf accuracy    <       0.00007383 Ry

     iteration #  4     ecut=    80.00 Ry     beta= 0.70
     Davidson diagonalization with overlap
     ethr =  2.40E-08,  avg # of iterations =  5.0

     negative rho (up, down):  2.867E-05 0.000E+00

     total cpu time spent up to now is      231.0 secs

     total energy              =   -2205.54855018 Ry
     estimated scf accuracy    <       0.00000938 Ry

     iteration #  5     ecut=    80.00 Ry     beta= 0.70
     Davidson diagonalization with overlap
     ethr =  3.05E-09,  avg # of iterations =  5.0

     negative rho (up, down):  2.904E-05 0.000E+00

     total cpu time spent up to now is      244.3 secs

     total energy              =   -2205.54855251 Ry
     estimated scf accuracy    <       0.00000363 Ry

     iteration #  6     ecut=    80.00 Ry     beta= 0.70
     Davidson diagonalization with overlap
     ethr =  1.18E-09,  avg # of iterations =  4.0

     negative rho (up, down):  3.304E-05 0.000E+00

     total cpu time spent up to now is      257.9 secs

     total energy              =   -2205.54855306 Ry
     estimated scf accuracy    <       0.00000101 Ry

     iteration #  7     ecut=    80.00 Ry     beta= 0.70
     Davidson diagonalization with overlap
     ethr =  3.28E-10,  avg # of iterations =  5.0

     negative rho (up, down):  5.050E-05 0.000E+00

     total cpu time spent up to now is      267.9 secs

     total energy              =   -2205.54855321 Ry
     estimated scf accuracy    <       0.00000038 Ry

     iteration #  8     ecut=    80.00 Ry     beta= 0.70
     Davidson diagonalization with overlap
     ethr =  1.23E-10,  avg # of iterations =  3.0

     negative rho (up, down):  7.777E-05 0.000E+00

     total cpu time spent up to now is      278.8 secs

     total energy              =   -2205.54855319 Ry
     estimated scf accuracy    <       0.00000010 Ry

     iteration #  9     ecut=    80.00 Ry     beta= 0.70
     Davidson diagonalization with overlap
     ethr =  3.26E-11,  avg # of iterations =  4.0

     negative rho (up, down):  1.378E-04 0.000E+00

     total cpu time spent up to now is      281.3 secs

     End of self-consistent calculation

          k = 0.0000 0.0000 0.0000 (105382 PWs)   bands (ev):

   -62.8673 -62.8604 -62.8534 -62.8274 -62.8118 -62.8023 -62.7925 -62.7863
   -62.7777 -62.7484 -62.7058 -62.6883 -37.2046 -37.1308 -37.1268 -37.1171
   -37.1046 -37.0825 -37.0676 -37.0537 -37.0450 -37.0431 -37.0422 -37.0259
   -37.0169 -37.0077 -36.9951 -36.9893 -36.9814 -36.9789 -36.9771 -36.9637
   -36.9540 -36.9371 -36.9059 -36.9021 -36.8978 -36.8907 -36.8719 -36.8706
   -36.8648 -36.8422 -36.8402 -36.8258 -36.8204 -36.7793 -36.7076 -36.6536
   -16.0089 -15.3516 -15.1676 -15.0096 -14.8792 -14.8051 -14.6416 -14.4804
   -14.4256 -14.4084 -14.3711 -14.3130 -14.3027 -14.2553 -14.1657 -14.1234
   -14.0922 -14.0869 -14.0211 -13.8893 -13.8263 -13.8141 -13.7915  -8.1900
    -7.6127  -7.4084  -7.2965  -7.2246  -7.2029  -7.1810  -7.1081  -7.0429
    -6.8183  -6.7652  -6.7255  -6.6457  -6.6022  -6.4888  -6.4117  -6.3707
    -6.2474  -6.2345  -6.1818  -5.9192  -5.9116  -5.8697  -5.8122  -5.7716
    -5.7512  -5.6896  -5.6720  -5.6325  -5.6115  -5.5633  -5.5199  -5.4615
    -5.4038  -5.3217  -5.1781  -5.1068  -5.0189  -4.9998  -4.9523  -4.9389
    -4.8895  -4.8289  -4.6322  -4.5170  -4.4246  -4.2966  -4.2580  -4.2237
    -4.1748  -4.0590  -4.0119  -3.9380  -3.8251  -3.7536  -3.7194  -3.6696
    -3.6586  -3.5334  -3.5097  -3.5043  -3.4638  -3.4565  -3.4327  -3.3661
    -3.3389  -3.2083  -3.1403  -2.8941  -2.8438  -2.7694  -2.7635  -2.7076
    -2.6852  -2.6551  -2.6401  -2.5948  -2.5432  -2.2609  -1.9900  -1.9713
    -1.9638  -1.1381  -0.7355  -0.5439  -0.1397  -0.1345  -0.0650  -0.0244
     0.0548   0.1434   0.2602   0.2940   0.3180   0.3240   0.3909   0.4447
     0.4855   0.5121   0.5832   0.5864   0.6309   0.6814   0.7426   0.7653
     0.7998   0.8392   0.8755   0.9022   0.9795   1.0152   1.0503   1.2669
     1.4177

     the Fermi energy is    -1.1381 ev

!    total energy              =   -2205.54855309 Ry
     estimated scf accuracy    <       0.00000003 Ry
     smearing contrib. (-TS)   =      -0.00564279 Ry
     internal energy E=F+TS    =   -2205.54291030 Ry

     The total energy is F=E-TS. E is the sum of the following terms:
     one-electron contribution =  -18041.33094202 Ry
     hartree contribution      =    9007.62847929 Ry
     xc contribution           =    -385.22320102 Ry
     ewald contribution        =    7213.38275344 Ry

     convergence has been achieved in   9 iterations

     negative rho (up, down):  1.378E-04 0.000E+00

     Forces acting on atoms (cartesian axes, Ry/au):

     atom    1 type  1   force =    -0.00354171   -0.00241396   -0.00435064
     atom    2 type  2   force =    -0.00527892    0.00541181   -0.00191202
     atom    3 type  2   force =    -0.00926734    0.00563390   -0.01208059
     atom    4 type  1   force =     0.00586808    0.00060329    0.00179253
     atom    5 type  2   force =     0.00237423   -0.00529293   -0.00498531
     atom    6 type  2   force =     0.00095336    0.00421905    0.00313629
     atom    7 type  1   force =     0.00168042   -0.00828129    0.00353607
     atom    8 type  2   force =     0.00132243   -0.00338162    0.00705695
     atom    9 type  2   force =     0.00623605    0.00249798    0.00057079
     atom   10 type  1   force =     0.00051131    0.00540284    0.00102418
     atom   11 type  2   force =     0.00369182   -0.00170176   -0.00984738
     atom   12 type  2   force =    -0.00478270   -0.00111724    0.00095873
     atom   13 type  1   force =     0.00291080    0.00050843    0.00016177
     atom   14 type  2   force =     0.00387770    0.00043847    0.00568836
     atom   15 type  2   force =    -0.00581905    0.00101881   -0.00499976
     atom   16 type  1   force =     0.00086614    0.00298225    0.00186858
     atom   17 type  2   force =     0.00459214    0.00241338    0.00109380
     atom   18 type  2   force =    -0.00370977   -0.00262799    0.00751979
     atom   19 type  1   force =    -0.00316954   -0.00157185    0.00940225
     atom   20 type  2   force =    -0.00114403   -0.00141087   -0.00094457
     atom   21 type  1   force =    -0.00211215    0.00184811    0.00174058
     atom   22 type  2   force =     0.00104954    0.00214694   -0.00299321
     atom   23 type  2   force =     0.00084423   -0.00194783    0.00366852
     atom   24 type  1   force =    -0.00455146   -0.00189988   -0.00285785
     atom   25 type  2   force =     0.00610528    0.00961466   -0.00379546
     atom   26 type  2   force =    -0.00380712   -0.00137465   -0.00363108
     atom   27 type  1   force =    -0.00014636    0.00321688    0.00646683
     atom   28 type  2   force =     0.00035704   -0.00494188   -0.00590709
     atom   29 type  2   force =     0.00232074    0.00043256   -0.00510507
     atom   30 type  1   force =    -0.00378818   -0.00202464    0.00536513
     atom   31 type  2   force =    -0.02445360    0.02698670    0.04310634
     atom   32 type  2   force =    -0.00439340    0.00223446    0.00689515
     atom   33 type  1   force =     0.00054960    0.00097463    0.00428675
     atom   34 type  2   force =    -0.00442189   -0.01994328   -0.01715699
     atom   35 type  2   force =    -0.00402958    0.00929113    0.00026493
     atom   36 type  3   force =     0.04230590   -0.02794458   -0.03503729
     The non-local contrib.  to forces
     atom    1 type  1   force =     0.00036414    0.02518602   -0.00947063
     atom    2 type  2   force =    -0.00572871   -0.00447650   -0.26640428
     atom    3 type  2   force =    -0.01013091   -0.00781238    0.26164328
     atom    4 type  1   force =     0.00013637    0.00766404    0.00355970
     atom    5 type  2   force =     0.00911228   -0.03319732   -0.25331136
     atom    6 type  2   force =    -0.00121087    0.00607608    0.26566201
     atom    7 type  1   force =    -0.02785733    0.00315854   -0.02345333
     atom    8 type  2   force =     0.00289294   -0.00167912   -0.24996061
     atom    9 type  2   force =     0.00044875   -0.01305990    0.26849046
     atom   10 type  1   force =     0.00180226    0.00418589   -0.00548110
     atom   11 type  2   force =     0.01145516    0.00018713   -0.26021508
     atom   12 type  2   force =    -0.01572728   -0.01678483    0.26076637
     atom   13 type  1   force =     0.00134129    0.02272011   -0.01040176
     atom   14 type  2   force =     0.00764863   -0.01165915   -0.26391111
     atom   15 type  2   force =    -0.00875649   -0.00714889    0.26075240
     atom   16 type  1   force =    -0.00612217    0.03335306   -0.02982969
     atom   17 type  2   force =     0.00882499   -0.03032488   -0.24604847
     atom   18 type  2   force =    -0.00306299    0.00009818    0.27161144
     atom   19 type  1   force =     0.00927820   -0.00936908   -0.01906748
     atom   20 type  2   force =    -0.00202727   -0.01744248    0.26349140
     atom   21 type  1   force =     0.00157307    0.02925685    0.00586192
     atom   22 type  2   force =    -0.00680013    0.00269849   -0.25591956
     atom   23 type  2   force =     0.00415721   -0.02211467    0.26537079
     atom   24 type  1   force =     0.00341247    0.01573097   -0.01056764
     atom   25 type  2   force =     0.00158639   -0.00234488   -0.26582296
     atom   26 type  2   force =     0.00196422   -0.01300605    0.26442694
     atom   27 type  1   force =    -0.00328276    0.00896368   -0.00865986
     atom   28 type  2   force =    -0.00485268   -0.02752574   -0.27296340
     atom   29 type  2   force =     0.01136284    0.00200650    0.26474296
     atom   30 type  1   force =    -0.00300774    0.01898308    0.01652888
     atom   31 type  2   force =    -0.14129720    0.18195923    0.01145543
     atom   32 type  2   force =    -0.00068261   -0.01088709    0.27885207
     atom   33 type  1   force =    -0.00348508    0.00541920    0.00372578
     atom   34 type  2   force =    -0.00174353   -0.03448558   -0.22895493
     atom   35 type  2   force =    -0.00250136   -0.01100990    0.26374567
     atom   36 type  3   force =     0.01309504   -0.01237022   -0.01941868
     The ionic contribution  to forces
     atom    1 type  1   force =    -0.07131343    0.82700744    5.77962268
     atom    2 type  2   force =    -0.34515497    0.21243013   39.43388009
     atom    3 type  2   force =    -0.13630496    0.07139953  -36.36070706
     atom    4 type  1   force =    -0.05098538    0.19184111    0.68602032
     atom    5 type  2   force =    -0.98344178    1.39201032   38.58856757
     atom    6 type  2   force =     0.25729457   -0.59411548  -37.87042039
     atom    7 type  1   force =    -2.98439094   -2.30465643    2.48354027
     atom    8 type  2   force =    -1.21813210   -0.05721093   37.48422461
     atom    9 type  2   force =     0.21622764   -0.15161868  -38.10650779
     atom   10 type  1   force =    -0.73195036   -0.23342171    4.98761443
     atom   11 type  2   force =    -0.56341189   -1.57802143   38.95482250
     atom   12 type  2   force =     0.22161049    0.53772454  -37.79329320
     atom   13 type  1   force =     0.41348559    0.92040462    2.74575462
     atom   14 type  2   force =    -0.06590151    0.06121980   38.69296766
     atom   15 type  2   force =     0.17342654    0.01257198  -36.91516976
     atom   16 type  1   force =    -0.13582678    3.59265197    0.67195606
[...]
     atom   27 type  1   force =     0.00020263    0.00337175   -0.01722626
     atom   28 type  2   force =    -0.00135399   -0.01681600   -0.26730049
     atom   29 type  2   force =     0.00651445   -0.00946172    0.27118014
     atom   30 type  1   force =    -0.00500316    0.02294623    0.00398734
     atom   31 type  2   force =    -0.05676440    0.18828535    0.13708554
     atom   32 type  2   force =     0.00450805   -0.01108749    0.27997447
     atom   33 type  1   force =    -0.00172508    0.00635692    0.00471645
     atom   34 type  2   force =    -0.00107637   -0.01407998   -0.25674897
     atom   35 type  2   force =    -0.00230169   -0.01207233    0.26751970
     atom   36 type  3   force =     0.00612970   -0.02718755   -0.04954508
     The ionic contribution  to forces
     atom    1 type  1   force =    -0.12114577    0.78122356    1.79972172
     atom    2 type  2   force =    -0.21287515    0.15470870   38.81741611
     atom    3 type  2   force =     0.03262320   -0.10118807  -37.70467219
     atom    4 type  1   force =    -0.03610561    0.44726492    0.43539436
     atom    5 type  2   force =    -0.85687180    1.14820972   38.23178599
     atom    6 type  2   force =     0.23966940   -0.14133258  -38.15199553
     atom    7 type  1   force =    -2.78003354   -1.93495694    3.92489649
     atom    8 type  2   force =    -1.24768072   -0.03257430   38.30989593
     atom    9 type  2   force =     0.31586950    0.07970667  -37.66585122
     atom   10 type  1   force =    -0.68489828   -0.52299925    2.56046032
     atom   11 type  2   force =    -0.41957866   -1.34903383   38.52330941
     atom   12 type  2   force =     0.21704160    0.05280699  -37.71600441
     atom   13 type  1   force =     0.16347188    0.77278495    2.08648757
     atom   14 type  2   force =     0.04165448    0.08321368   38.49501473
     atom   15 type  2   force =     0.04304986   -0.11844404  -37.68749864
     atom   16 type  1   force =    -0.23822446    3.78684435    1.13041440
     atom   17 type  2   force =     0.76767216    1.28895017   38.27382027
     atom   18 type  2   force =    -0.05286121   -0.12496583  -38.20173571
     atom   19 type  1   force =     2.89033366   -3.11134075    3.44188873
     atom   20 type  2   force =    -0.08157842   -0.01305441  -38.17562159
     atom   21 type  1   force =     0.32142753   -0.33779111    0.82188600
     atom   22 type  2   force =     0.71425864   -1.02091984   38.59882954
     atom   23 type  2   force =    -0.14857015    0.16182974  -38.08801020
     atom   24 type  1   force =    -0.05827354    0.62908291    1.89842703
     atom   25 type  2   force =     0.19163698    0.27934312   38.77819642
     atom   26 type  2   force =    -0.07600841   -0.06124464  -37.69190238
     atom   27 type  1   force =     0.16508543    1.36326590    0.58174511
     atom   28 type  2   force =     0.09922012    0.53198842   38.00982616
     atom   29 type  2   force =    -0.09624421    0.08516589  -37.67662827
     atom   30 type  1   force =    -0.18253443   -1.32872799    2.52233569
     atom   31 type  2   force =     1.36491990   -1.52051176   37.05978313
     atom   32 type  2   force =    -0.28357817   -0.00608912  -37.30547858
     atom   33 type  1   force =     0.32505063   -0.24350602    2.11985656
     atom   34 type  2   force =    -0.27044509   -0.12434415   38.73434582
     atom   35 type  2   force =    -0.05409123   -0.00915318  -37.56084829
     atom   36 type  3   force =     0.00861389    0.45578814    8.47050950
     The local contribution  to forces
     atom    1 type  1   force =     0.12369509   -0.80370660   -1.79750985
     atom    2 type  2   force =     0.21395728   -0.14389221  -38.57621428
     atom    3 type  2   force =    -0.03072185    0.11138479   37.45986691
     atom    4 type  1   force =     0.03531405   -0.45432975   -0.44013010
     atom    5 type  2   force =     0.85144412   -1.12653982  -38.00074905
     atom    6 type  2   force =    -0.24090755    0.14522111   37.90855681
     atom    7 type  1   force =     2.81257998    1.93573488   -3.89714263
     atom    8 type  2   force =     1.23418722    0.02873761  -38.07288876
     atom    9 type  2   force =    -0.30868316   -0.06359062   37.42258396
     atom   10 type  1   force =     0.68688346    0.51468923   -2.56140621
     atom   11 type  2   force =     0.41447124    1.35505845  -38.28603305
     atom   12 type  2   force =    -0.20782983   -0.04135720   37.47245892
     atom   13 type  1   force =    -0.16593683   -0.79541305   -2.07721224
     atom   14 type  2   force =    -0.04121615   -0.07113820  -38.24987216
     atom   15 type  2   force =    -0.04294299    0.12674970   37.44737562
     atom   16 type  1   force =     0.24596493   -3.82563638   -1.10464576
     atom   17 type  2   force =    -0.76876018   -1.26331268  -38.04727940
     atom   18 type  2   force =     0.05382542    0.12847506   37.95626455
     atom   19 type  1   force =    -2.91282134    3.12128293   -3.42601266
     atom   20 type  2   force =     0.07957241    0.02800224   37.93362900
     atom   21 type  1   force =    -0.32300882    0.31011319   -0.82475141
     atom   22 type  2   force =    -0.70720264    1.02435458  -38.37297679
     atom   23 type  2   force =     0.14405510   -0.14977292   37.84472863
     atom   24 type  1   force =     0.05940602   -0.64394140   -1.89533460
     atom   25 type  2   force =    -0.19086100   -0.26900146  -38.53498647
     atom   26 type  2   force =     0.07503771    0.07248654   37.44585103
     atom   27 type  1   force =    -0.16546039   -1.36640719   -0.56368674
     atom   28 type  2   force =    -0.09767563   -0.51644276  -37.76368776
     atom   29 type  2   force =     0.08998717   -0.07648200   37.42629519
     atom   30 type  1   force =     0.18758163    1.30520114   -2.52533199
     atom   31 type  2   force =    -1.31199462    1.34392123  -37.19448983
     atom   32 type  2   force =     0.27892592    0.01587393   37.04838122
     atom   33 type  1   force =    -0.32353738    0.23771787   -2.12399073
     atom   34 type  2   force =     0.27072427    0.13700563  -38.49865426
     atom   35 type  2   force =     0.05624888    0.02163255   37.31461418
     atom   36 type  3   force =    -0.01417301   -0.43040279   -8.42277486
     The core correction contribution to forces
     atom    1 type  1   force =     0.00000000    0.00000000    0.00000000
     atom    2 type  2   force =     0.00002118    0.00058518    0.02062665
     atom    3 type  2   force =     0.00011255    0.00039812   -0.02085094
     atom    4 type  1   force =     0.00000000    0.00000000    0.00000000
     atom    5 type  2   force =    -0.00050324    0.00097442    0.02014852
     atom    6 type  2   force =     0.00015965   -0.00025247   -0.02077608
     atom    7 type  1   force =     0.00000000    0.00000000    0.00000000
     atom    8 type  2   force =    -0.00080914   -0.00001754    0.02029805
     atom    9 type  2   force =     0.00059773    0.00096919   -0.02075732
     atom   10 type  1   force =     0.00000000    0.00000000    0.00000000
     atom   11 type  2   force =    -0.00012818    0.00017915    0.02043400
     atom   12 type  2   force =     0.00074005    0.00058781   -0.02079910
     atom   13 type  1   force =     0.00000000    0.00000000    0.00000000
     atom   14 type  2   force =     0.00004067    0.00036055    0.02075647
     atom   15 type  2   force =     0.00001118    0.00039566   -0.02060884
     atom   16 type  1   force =     0.00000000    0.00000000    0.00000000
     atom   17 type  2   force =     0.00022443    0.00112916    0.01996138
     atom   18 type  2   force =     0.00007062   -0.00025779   -0.02096255
     atom   19 type  1   force =     0.00000000    0.00000000    0.00000000
     atom   20 type  2   force =    -0.00027094    0.00072582   -0.02108245
     atom   21 type  1   force =     0.00000000    0.00000000    0.00000000
     atom   22 type  2   force =     0.00036745    0.00028664    0.01982866
     atom   23 type  2   force =    -0.00044837    0.00082382   -0.02081293
     atom   24 type  1   force =     0.00000000    0.00000000    0.00000000
     atom   25 type  2   force =     0.00004377    0.00053842    0.02071416
     atom   26 type  2   force =    -0.00006482    0.00052508   -0.02091541
     atom   27 type  1   force =     0.00000000    0.00000000    0.00000000
     atom   28 type  2   force =     0.00005454    0.00092501    0.02073821
     atom   29 type  2   force =    -0.00035041    0.00026897   -0.02094576
     atom   30 type  1   force =     0.00000000    0.00000000    0.00000000
     atom   31 type  2   force =     0.00333418   -0.01210968   -0.00453059
     atom   32 type  2   force =    -0.00037797    0.00070343   -0.02141961
     atom   33 type  1   force =     0.00000000    0.00000000    0.00000000
     atom   34 type  2   force =    -0.00004467    0.00096592    0.02025995
     atom   35 type  2   force =     0.00012804    0.00071173   -0.02101341
     atom   36 type  3   force =     0.00000000    0.00000000    0.00000000
     The Hubbard contrib.    to forces
     atom    1 type  1   force =     0.00000000    0.00000000    0.00000000
     atom    2 type  2   force =     0.00000000    0.00000000    0.00000000
     atom    3 type  2   force =     0.00000000    0.00000000    0.00000000
     atom    4 type  1   force =     0.00000000    0.00000000    0.00000000
     atom    5 type  2   force =     0.00000000    0.00000000    0.00000000
     atom    6 type  2   force =     0.00000000    0.00000000    0.00000000
     atom    7 type  1   force =     0.00000000    0.00000000    0.00000000
     atom    8 type  2   force =     0.00000000    0.00000000    0.00000000
     atom    9 type  2   force =     0.00000000    0.00000000    0.00000000
     atom   10 type  1   force =     0.00000000    0.00000000    0.00000000
     atom   11 type  2   force =     0.00000000    0.00000000    0.00000000
     atom   12 type  2   force =     0.00000000    0.00000000    0.00000000
     atom   13 type  1   force =     0.00000000    0.00000000    0.00000000
     atom   14 type  2   force =     0.00000000    0.00000000    0.00000000
     atom   15 type  2   force =     0.00000000    0.00000000    0.00000000
     atom   16 type  1   force =     0.00000000    0.00000000    0.00000000
     atom   17 type  2   force =     0.00000000    0.00000000    0.00000000
     atom   18 type  2   force =     0.00000000    0.00000000    0.00000000
     atom   19 type  1   force =     0.00000000    0.00000000    0.00000000
     atom   20 type  2   force =     0.00000000    0.00000000    0.00000000
     atom   21 type  1   force =     0.00000000    0.00000000    0.00000000
     atom   22 type  2   force =     0.00000000    0.00000000    0.00000000
     atom   23 type  2   force =     0.00000000    0.00000000    0.00000000
     atom   24 type  1   force =     0.00000000    0.00000000    0.00000000
     atom   25 type  2   force =     0.00000000    0.00000000    0.00000000
     atom   26 type  2   force =     0.00000000    0.00000000    0.00000000
     atom   27 type  1   force =     0.00000000    0.00000000    0.00000000
     atom   28 type  2   force =     0.00000000    0.00000000    0.00000000
     atom   29 type  2   force =     0.00000000    0.00000000    0.00000000
     atom   30 type  1   force =     0.00000000    0.00000000    0.00000000
     atom   31 type  2   force =     0.00000000    0.00000000    0.00000000
     atom   32 type  2   force =     0.00000000    0.00000000    0.00000000
     atom   33 type  1   force =     0.00000000    0.00000000    0.00000000
     atom   34 type  2   force =     0.00000000    0.00000000    0.00000000
     atom   35 type  2   force =     0.00000000    0.00000000    0.00000000
     atom   36 type  3   force =     0.00000000    0.00000000    0.00000000
     The SCF correction term to forces
     atom    1 type  1   force =     0.00001954   -0.00002563   -0.00001742
     atom    2 type  2   force =    -0.00001002   -0.00001146   -0.00001510
     atom    3 type  2   force =    -0.00001077   -0.00002153   -0.00000401
     atom    4 type  1   force =    -0.00000497    0.00000085    0.00000607
     atom    5 type  2   force =    -0.00000845    0.00000754    0.00000399
     atom    6 type  2   force =     0.00001523   -0.00000642    0.00000260
     atom    7 type  1   force =     0.00000048    0.00002430    0.00001668
     atom    8 type  2   force =     0.00000141    0.00000029    0.00001017
     atom    9 type  2   force =     0.00000137    0.00000410   -0.00000198
     atom   10 type  1   force =    -0.00000737   -0.00000126   -0.00004252
     atom   11 type  2   force =    -0.00000514   -0.00000050   -0.00000194
     atom   12 type  2   force =     0.00002200    0.00002132    0.00000773
     atom   13 type  1   force =     0.00000290   -0.00000133    0.00002369
     atom   14 type  2   force =    -0.00000259   -0.00000901    0.00000609
     atom   15 type  2   force =     0.00001747   -0.00001180    0.00000281
     atom   16 type  1   force =    -0.00001423   -0.00000047    0.00004762
     atom   17 type  2   force =    -0.00000553    0.00002224    0.00002040
     atom   18 type  2   force =    -0.00000747   -0.00000249    0.00001923
     atom   19 type  1   force =    -0.00000846    0.00000737    0.00007717
     atom   20 type  2   force =     0.00001681    0.00000252    0.00001260
     atom   21 type  1   force =     0.00002739   -0.00000072    0.00001817
     atom   22 type  2   force =     0.00000025   -0.00000748    0.00001839
     atom   23 type  2   force =    -0.00000391    0.00001663    0.00001171
     atom   24 type  1   force =    -0.00000006   -0.00001176   -0.00002013
     atom   25 type  2   force =     0.00000522   -0.00000809    0.00000629
     atom   26 type  2   force =    -0.00001711   -0.00001208    0.00000044
     atom   27 type  1   force =    -0.00000793   -0.00000335    0.00004095
     atom   28 type  2   force =     0.00001733    0.00001993    0.00000273
     atom   29 type  2   force =    -0.00000442   -0.00000309    0.00000400
     atom   30 type  1   force =    -0.00001303    0.00001677    0.00002735
     atom   31 type  2   force =     0.00001381   -0.00000820    0.00005193
     atom   32 type  2   force =    -0.00001099   -0.00000514    0.00001140
     atom   33 type  1   force =    -0.00000925   -0.00000640    0.00000946
     atom   34 type  2   force =     0.00000235   -0.00000184   -0.00000250
     atom   35 type  2   force =    -0.00001818    0.00001719    0.00000142
     atom   36 type  3   force =     0.00000314   -0.00000429   -0.00000202

     Total force =     0.006362     Total SCF correction =     0.000171
     Energy error            =      9.0E-05 Ry
     Gradient error          =      2.1E-03 Ry/Bohr

     bfgs converged in  25 scf cycles and  24 bfgs steps
     (criteria: energy <  1.0E-04 Ry, force <  1.0E-02 Ry/Bohr)

     End of BFGS Geometry Optimization

     Final energy             =   -2205.5925419937 Ry

     File ./MoS2-V-O.bfgs deleted, as requested
Begin final coordinates

ATOMIC_POSITIONS (angstrom)
Mo            6.5490062097        1.7610982083        2.7446842653
S             8.1090455931        0.8581340706        4.3619293077
S             8.1248700543        0.8380555097        1.1620070997
Mo            8.1187505202        4.4994419557        2.7143487080
S             6.5179856424        3.6609211494        4.3017205297
S             6.5497656415        3.5673379158        1.1015079688
Mo            6.4841204566        7.1680960953        2.7000060347
S             8.0514662307        6.2992865206        4.3214945217
S             8.1120044737        6.3358094554        1.1333246643
Mo            8.1150307946        9.9412179834        2.7666018862
S             6.4993166906        8.9609833620        4.3339515317
S             6.5674212775        9.0180073240        1.1389455104
Mo            3.4081233651        1.7554307453        2.7478270915
S             4.9832563561        0.8322324013        4.3324912873
S             4.9781075352        0.8432539753        1.1567483983
Mo            4.9830659985        4.5205834807        2.6474467758
S             3.4652561085        3.6505331116        4.3077154438
S             3.4015496429        3.5583477740        1.1016263853
Mo            3.4457554963        7.2325895567        2.6995719529
S             4.9497642401        6.3269360438        1.0726327856
Mo            4.9783078502        9.9197563963        2.7292953285
S             3.4472462848        8.9990595558        4.3380136441
S             3.3814817019        9.0420760754        1.1266649366
Mo            0.2422116017        1.7435082104        2.7567605513
S             1.8323399355        0.8555933317        4.3592438378
S             1.8273284387        0.8466747881        1.1633592178
Mo            1.8657882908        4.4792917742        2.7028400654
S             0.2567979496        3.6035344893        4.3106088261
S             0.2626913227        3.5648559237        1.1413001368
Mo            0.2378188532        7.2308071650        2.7629493698
S             1.8918415746        6.4022109890        4.3746670254
S             1.8287283253        6.3333583036        1.1501056036
Mo            1.8280430481        9.9480483857        2.7622346199
S             0.2413410496        9.0550399181        4.3668926149
S             0.2446636681        9.0424414430        1.1752890822
H             1.7428059007        7.0723263558        5.5879545276
End final coordinates



     Writing all to output data dir ./MoS2-V-O.save/
 
     init_run     :      2.38s CPU      2.67s WALL (       1 calls)
     electrons    :   2257.79s CPU   2522.95s WALL (      25 calls)
     update_pot   :     34.11s CPU     36.00s WALL (      24 calls)
     forces       :     34.66s CPU     40.69s WALL (      25 calls)

     Called by init_run:
     wfcinit      :      0.37s CPU      0.43s WALL (       1 calls)
     potinit      :      1.33s CPU      1.46s WALL (       1 calls)
     hinit0       :      0.17s CPU      0.18s WALL (       1 calls)

     Called by electrons:
     c_bands      :    293.42s CPU    298.62s WALL (     213 calls)
     sum_band     :     62.75s CPU     86.43s WALL (     213 calls)
     v_of_rho     :     93.49s CPU    114.81s WALL (     224 calls)
     newd         :     32.29s CPU     53.94s WALL (     224 calls)
     mix_rho      :   1786.78s CPU   1980.61s WALL (     213 calls)

     Called by c_bands:
     init_us_2    :      4.53s CPU      4.91s WALL (     427 calls)
     init_us_2:cp :      4.53s CPU      4.91s WALL (     427 calls)
     regterg      :    277.49s CPU    282.29s WALL (     213 calls)

     Called by *egterg:
     rdiaghg      :     20.39s CPU     20.62s WALL (    1160 calls)
     h_psi        :    148.00s CPU    149.30s WALL (    1199 calls)
     s_psi        :     17.56s CPU     17.62s WALL (    1199 calls)
     g_psi        :      2.07s CPU      2.09s WALL (     985 calls)

     Called by h_psi:
     h_psi:calbec :     20.35s CPU     20.47s WALL (    1199 calls)
     vloc_psi     :    106.51s CPU    107.56s WALL (    1199 calls)
     add_vuspsi   :     17.72s CPU     17.84s WALL (    1199 calls)

     General routines
     calbec       :     28.87s CPU     29.04s WALL (    1512 calls)
     fft          :     61.26s CPU     71.69s WALL (   15127 calls)
     ffts         :    806.24s CPU    993.43s WALL (  435953 calls)
     fftw         :     90.74s CPU     91.52s WALL (  130307 calls)
     interpolate  :      1.63s CPU      1.95s WALL (     224 calls)
 
     Parallel routines
 
     PWSCF        :  38m53.72s CPU  43m30.70s WALL

 
   This run was terminated on:   6:14: 7   4Nov2023            

=------------------------------------------------------------------------------=
   JOB DONE.
=------------------------------------------------------------------------------=
