
     Program PWSCF v.7.2 starts on  2Nov2023 at 10:38:22 

     This program is part of the open-source Quantum ESPRESSO suite
     for quantum simulation of materials; please cite
         "P. Giannozzi et al., J. Phys.:Condens. Matter 21 395502 (2009);
         "P. Giannozzi et al., J. Phys.:Condens. Matter 29 465901 (2017);
         "P. Giannozzi et al., J. Chem. Phys. 152 154105 (2020);
          URL http://www.quantum-espresso.org", 
     in publications or presentations arising from this work. More details at
     http://www.quantum-espresso.org/quote

     Parallel version (MPI & OpenMP), running on      48 processor cores
     Number of MPI processes:                48
     Threads/MPI process:                     1

     MPI processes distributed on     1 nodes
     9475 MiB available memory on the printing compute node when the environment starts
 
     Waiting for input...
     Reading input from standard input
Warning: card &CELL ignored
Warning: card CELL_DYNAMICS = 'BFGS', ignored
Warning: card CELL_DOFREE = '2DXY' ignored
Warning: card / ignored

     Current dimensions of program PWSCF are:
     Max number of different atomic species (ntypx) = 10
     Max number of k-points (npk) =  40000
     Max angular momentum in pseudopotentials (lmaxx) =  4
     file O.pbe-n-kjpaw_psl.0.1.UPF: wavefunction(s)  2P renormalized

     IMPORTANT: XC functional enforced from input :
     Exchange-correlation= RVV10
                           (   1   4  13   4  26   0   0)
     Any further DFT definition will be discarded
     Please, verify this is what you really want


     gamma-point specific algorithms are used
     signal trapping enabled: kill the code with -SIGUSR1 to stop cleanly the simulation 
 
     R & G space division:  proc/nbgrp/npool/nimage =      48
     Subspace diagonalization in iterative solution of the eigenvalue problem:
     one sub-group per band group will be used
     scalapack distributed-memory algorithm (size of sub-group:  2*  2 procs)

 
     Parallelization info
     --------------------
     sticks:   dense  smooth     PW     G-vecs:    dense   smooth      PW
     Min         396     194     47               101632    35090    4376
     Max         398     196     50               101674    35128    4410
     Sum       19091    9389   2349              4879585  1685513  210763
 
     Using Slab Decomposition
 


     bravais-lattice index     =            0
     lattice parameter (alat)  =      17.8707  a.u.
     unit-cell volume          =   17436.2743 (a.u.)^3
     number of atoms/cell      =           36
     number of atomic types    =            3
     number of electrons       =       312.00
     number of Kohn-Sham states=          187
     kinetic-energy cutoff     =      80.0000  Ry
     charge density cutoff     =     650.0000  Ry
     scf convergence threshold =      1.0E-06
     mixing beta               =       0.7000
     number of iterations used =            8  local-TF  mixing
     energy convergence thresh.=      1.0E-04
     force convergence thresh. =      1.0E-02
     Exchange-correlation= RVV10
                           (   1   4  13   4  26   0   0)
     nstep                     =          200


     celldm(1)=  17.870686  celldm(2)=   0.000000  celldm(3)=   0.000000
     celldm(4)=   0.000000  celldm(5)=   0.000000  celldm(6)=   0.000000

     crystal axes: (cart. coord. in units of alat)
               a(1) = (   1.000000   0.000000   0.000000 )  
               a(2) = (   0.000000   1.155671   0.000000 )  
               a(3) = (   0.000000   0.000000   2.643601 )  

     reciprocal axes: (cart. coord. in units 2 pi/alat)
               b(1) = (  1.000000  0.000000  0.000000 )  
               b(2) = (  0.000000  0.865298  0.000000 )  
               b(3) = (  0.000000  0.000000  0.378272 )  


     PseudoPot. # 1 for Mo read from file:
     ../pseudo/Mo_ONCV_PBE-1.0.oncvpsp.upf
     MD5 check sum: 1b5d28e075c9ccadda658a603575cd1f
     Pseudo is Norm-conserving, Zval = 14.0
     Generated using ONCVPSP code by D. R. Hamann
     Using radial grid of 1526 points,  6 beta functions with: 
                l(1) =   0
                l(2) =   0
                l(3) =   1
                l(4) =   1
                l(5) =   2
                l(6) =   2

     PseudoPot. # 2 for S  read from file:
     ../pseudo/s_pbe_v1.4.uspp.F.UPF
     MD5 check sum: 88d86576ff6df21479756cfb9bdac1df
     Pseudo is Ultrasoft + core correction, Zval =  6.0
     Generated by new atomic code, or converted to UPF format
     Using radial grid of  907 points,  6 beta functions with: 
                l(1) =   0
                l(2) =   0
                l(3) =   1
                l(4) =   1
                l(5) =   2
                l(6) =   2
     Q(r) pseudized with  8 coefficients,  rinner =    1.300   1.300   1.300
                                                       1.300   1.300

     PseudoPot. # 3 for O  read from file:
     ../pseudo/O.pbe-n-kjpaw_psl.0.1.UPF
     MD5 check sum: 0234752ac141de4415c5fc33072bef88
     Pseudo is Projector augmented-wave + core cor, Zval =  6.0
     Generated using "atomic" code by A. Dal Corso  v.5.0.99 svn rev. 10869
     Shape of augmentation charge: BESSEL
     Using radial grid of 1095 points,  4 beta functions with: 
                l(1) =   0
                l(2) =   0
                l(3) =   1
                l(4) =   1
     Q(r) pseudized with 0 coefficients 


     atomic species   valence    mass     pseudopotential
        Mo            14.00    95.94000     Mo( 1.00)
        S              6.00    32.06500     S ( 1.00)
        O              6.00    15.99940     O ( 1.00)

     No symmetry found



   Cartesian axes

     site n.     atom                  positions (alat units)
         1           Mo  tau(   1) = (   0.6952221   0.1890506   0.2985846  )
         2           S   tau(   2) = (   0.8646417   0.0856217   0.4689279  )
         3           S   tau(   3) = (   0.8663890   0.0857843   0.1351291  )
         4           Mo  tau(   4) = (   0.8560186   0.4753274   0.2873942  )
         5           S   tau(   5) = (   0.6873294   0.3936244   0.4596353  )
         6           S   tau(   6) = (   0.6929804   0.3713468   0.1185692  )
         7           Mo  tau(   7) = (   0.6862796   0.7633098   0.2825370  )
         8           S   tau(   8) = (   0.8545980   0.6708292   0.4486168  )
         9           S   tau(   9) = (   0.8545123   0.6666874   0.1146125  )
        10           Mo  tau(  10) = (   0.8629403   1.0471007   0.3006803  )
        11           S   tau(  11) = (   0.6868280   0.9456650   0.4634891  )
        12           S   tau(  12) = (   0.6998113   0.9568511   0.1205389  )
        13           Mo  tau(  13) = (   0.3618216   0.1847309   0.2935964  )
        14           S   tau(  14) = (   0.5260962   0.0863870   0.4600448  )
        15           S   tau(  15) = (   0.5348379   0.0894875   0.1297123  )
        16           Mo  tau(  16) = (   0.5265817   0.4772436   0.2784130  )
        17           S   tau(  17) = (   0.3624753   0.3882513   0.4525556  )
        18           S   tau(  18) = (   0.3635411   0.3752055   0.1119148  )
        19           Mo  tau(  19) = (   0.3652268   0.7630864   0.2781795  )
        20           S   tau(  20) = (   0.5269494   0.6690381   0.1096838  )
        21           Mo  tau(  21) = (   0.5300192   1.0470394   0.2900995  )
        22           S   tau(  22) = (   0.3670346   0.9457522   0.4574073  )
        23           S   tau(  23) = (   0.3604225   0.9585725   0.1159032  )
        24           Mo  tau(  24) = (   0.0313099   0.1847895   0.3013130  )
        25           S   tau(  25) = (   0.1956761   0.0838230   0.4650863  )
        26           S   tau(  26) = (   0.1967693   0.0903508   0.1278874  )
        27           Mo  tau(  27) = (   0.1967578   0.4753919   0.2813011  )
        28           S   tau(  28) = (   0.0287851   0.3864324   0.4586755  )
        29           S   tau(  29) = (   0.0244514   0.3729871   0.1239344  )
        30           Mo  tau(  30) = (   0.0286728   0.7631204   0.2856894  )
        31           S   tau(  31) = (   0.2011512   0.6675435   0.4465001  )
        32           S   tau(  32) = (   0.1969214   0.6672839   0.1104564  )
        33           Mo  tau(  33) = (   0.1950294   1.0511147   0.2932237  )
        34           S   tau(  34) = (   0.0312912   0.9612169   0.4667423  )
        35           S   tau(  35) = (   0.0292670   0.9563028   0.1216485  )
        36           O   tau(  36) = (   0.0000000   1.0272628   0.5792558  )

     number of k points=     1  Gaussian smearing, width (Ry)=  0.0100
                       cart. coord. in units 2pi/alat
        k(    1) = (   0.0000000   0.0000000   0.0000000), wk =   2.0000000

     Dense  grid:  2439793 G-vectors     FFT dimensions: ( 150, 180, 384)

     Smooth grid:   842757 G-vectors     FFT dimensions: ( 108, 120, 270)

     Estimated max dynamical RAM per process >     269.22 MB

     Estimated total dynamical RAM >      12.62 GB

     Initial potential from superposition of free atoms

     starting charge     311.9873, renormalised to     312.0000

     negative rho (up, down):  2.755E-04 0.000E+00


---------------------------------------------------------------------------------
Carrying out rVV10 run using the following parameters:
Nqs =      20    Nr_points =    1024   r_max =   100.000
b_value =  6.30000    beta =  0.00901
     q_mesh =  0.00010000  0.00030000  0.00058939  0.00100810
               0.00161396  0.00249058  0.00375900  0.00559430
               0.00824984  0.01209221  0.01765183  0.02569619
               0.03733578  0.05417739  0.07854596  0.11380545
               0.16482331  0.23864234  0.34545298  0.50000000

Gradients computed in Reciprocal space

---------------------------------------------------------------------------------


     Starting wfcs are  216 randomized atomic wfcs
     Checking if some PAW data can be deallocated... 

     total cpu time spent up to now is        9.5 secs

     Self-consistent Calculation

     iteration #  1     ecut=    80.00 Ry     beta= 0.70
     Davidson diagonalization with overlap
     ethr =  1.00E-02,  avg # of iterations =  2.0

     Threshold (ethr) on eigenvalues was too large:
     Diagonalizing with lowered threshold

     Davidson diagonalization with overlap
     ethr =  4.63E-04,  avg # of iterations =  4.0

     negative rho (up, down):  3.336E-08 0.000E+00

     total cpu time spent up to now is       28.4 secs

     total energy              =   -2246.17625785 Ry
     estimated scf accuracy    <       1.68766961 Ry

     iteration #  2     ecut=    80.00 Ry     beta= 0.70
     Davidson diagonalization with overlap
     ethr =  5.41E-04,  avg # of iterations =  3.0

     total cpu time spent up to now is       34.3 secs

     total energy              =   -2246.16102016 Ry
     estimated scf accuracy    <       0.56531513 Ry

     iteration #  3     ecut=    80.00 Ry     beta= 0.70
     Davidson diagonalization with overlap
     ethr =  1.81E-04,  avg # of iterations =  2.0

     total cpu time spent up to now is       39.6 secs

     total energy              =   -2246.18071576 Ry
     estimated scf accuracy    <       0.10975483 Ry

     iteration #  4     ecut=    80.00 Ry     beta= 0.70
     Davidson diagonalization with overlap
     c_bands:  1 eigenvalues not converged
     ethr =  3.52E-05,  avg # of iterations = 20.0

     total cpu time spent up to now is       46.1 secs

     total energy              =   -2246.19764887 Ry
     estimated scf accuracy    <       0.02384615 Ry

     iteration #  5     ecut=    80.00 Ry     beta= 0.70
     Davidson diagonalization with overlap
     ethr =  7.64E-06,  avg # of iterations = 18.0

     total cpu time spent up to now is       51.9 secs

     total energy              =   -2246.19643443 Ry
     estimated scf accuracy    <       0.01510442 Ry

     iteration #  6     ecut=    80.00 Ry     beta= 0.70
     Davidson diagonalization with overlap
     ethr =  4.84E-06,  avg # of iterations =  1.0

     total cpu time spent up to now is       56.3 secs

     total energy              =   -2246.19560321 Ry
     estimated scf accuracy    <       0.00939627 Ry

     iteration #  7     ecut=    80.00 Ry     beta= 0.70
     Davidson diagonalization with overlap
     ethr =  3.01E-06,  avg # of iterations =  2.0

     negative rho (up, down):  1.641E-04 0.000E+00

     total cpu time spent up to now is       64.6 secs

     total energy              =   -2246.19447398 Ry
     estimated scf accuracy    <       0.00558810 Ry

     iteration #  8     ecut=    80.00 Ry     beta= 0.70
     Davidson diagonalization with overlap
     ethr =  1.79E-06,  avg # of iterations =  7.0

     negative rho (up, down):  1.778E-02 0.000E+00

     total cpu time spent up to now is       71.3 secs

     total energy              =   -2246.19398623 Ry
     estimated scf accuracy    <       0.00304593 Ry

     iteration #  9     ecut=    80.00 Ry     beta= 0.70
     Davidson diagonalization with overlap
     ethr =  9.76E-07,  avg # of iterations =  1.0

     negative rho (up, down):  2.848E-02 0.000E+00

     total cpu time spent up to now is       77.9 secs

     total energy              =   -2246.19389896 Ry
     estimated scf accuracy    <       0.00157593 Ry

     iteration # 10     ecut=    80.00 Ry     beta= 0.70
     Davidson diagonalization with overlap
     ethr =  5.05E-07,  avg # of iterations =  2.0

     negative rho (up, down):  2.279E-02 0.000E+00

     total cpu time spent up to now is       84.8 secs

     total energy              =   -2246.19392634 Ry
     estimated scf accuracy    <       0.00052131 Ry

     iteration # 11     ecut=    80.00 Ry     beta= 0.70
     Davidson diagonalization with overlap
     ethr =  1.67E-07,  avg # of iterations =  2.0

     negative rho (up, down):  1.005E-02 0.000E+00

     total cpu time spent up to now is       92.4 secs

     total energy              =   -2246.19390754 Ry
     estimated scf accuracy    <       0.00007368 Ry

     iteration # 12     ecut=    80.00 Ry     beta= 0.70
     Davidson diagonalization with overlap
     ethr =  2.36E-08,  avg # of iterations =  9.0

     negative rho (up, down):  3.288E-03 0.000E+00

     total cpu time spent up to now is      101.5 secs

     total energy              =   -2246.19395782 Ry
     estimated scf accuracy    <       0.00001776 Ry

     iteration # 13     ecut=    80.00 Ry     beta= 0.70
     Davidson diagonalization with overlap
     ethr =  5.69E-09,  avg # of iterations =  2.0

     negative rho (up, down):  4.682E-04 0.000E+00

     total cpu time spent up to now is      111.1 secs

     total energy              =   -2246.19396298 Ry
     estimated scf accuracy    <       0.00000414 Ry

     iteration # 14     ecut=    80.00 Ry     beta= 0.70
     Davidson diagonalization with overlap
     ethr =  1.33E-09,  avg # of iterations =  2.0

     negative rho (up, down):  2.316E-04 0.000E+00

     total cpu time spent up to now is      116.0 secs

     End of self-consistent calculation

          k = 0.0000 0.0000 0.0000 (105382 PWs)   bands (ev):

   -62.9351 -62.9229 -62.9060 -62.8857 -62.8640 -62.8605 -62.8487 -62.8408
   -62.8387 -62.8321 -62.7239 -62.6041 -37.2756 -37.2182 -37.2014 -37.1915
   -37.1633 -37.1249 -37.1231 -37.1022 -37.0979 -37.0932 -37.0913 -37.0734
   -37.0699 -37.0509 -37.0476 -37.0345 -37.0301 -37.0221 -37.0183 -37.0101
   -37.0062 -36.9989 -36.9957 -36.9819 -36.9570 -36.9470 -36.9390 -36.9236
   -36.8793 -36.8642 -36.8357 -36.8257 -36.8020 -36.7864 -36.7260 -36.7107
   -26.2951 -15.9572 -15.1791 -15.1642 -14.9983 -14.8747 -14.7923 -14.5186
   -14.5105 -14.4752 -14.4191 -14.3674 -14.3651 -14.3056 -14.2739 -14.1584
   -14.1443 -14.1157 -14.0515 -14.0138 -13.8776 -13.8420 -13.8193 -13.2324
    -9.3176  -9.1777  -8.2300  -7.5871  -7.4750  -7.2892  -7.2510  -7.2110
    -7.1393  -7.1318  -7.0477  -6.8373  -6.7971  -6.7548  -6.7222  -6.5777
    -6.5131  -6.4468  -6.3707  -6.2905  -6.2086  -6.0687  -5.9490  -5.8868
    -5.8498  -5.8130  -5.7771  -5.7409  -5.6914  -5.6640  -5.6300  -5.6056
    -5.5569  -5.4696  -5.4612  -5.3625  -5.3272  -5.2786  -5.1301  -5.0647
    -5.0116  -4.9475  -4.9257  -4.8018  -4.6759  -4.6074  -4.5286  -4.4674
    -4.3438  -4.2735  -4.1862  -4.1409  -4.1075  -4.0050  -3.8583  -3.7921
    -3.7817  -3.7291  -3.6760  -3.6378  -3.5764  -3.5167  -3.4937  -3.4587
    -3.4335  -3.4023  -3.3578  -3.3108  -3.1168  -2.9834  -2.9331  -2.8727
    -2.8130  -2.7607  -2.7409  -2.7031  -2.6650  -2.6474  -2.5515  -2.3703
    -2.2747  -2.0423  -1.9491  -1.9181  -0.8931  -0.7770  -0.5524  -0.2088
    -0.1441  -0.0760  -0.0476   0.1144   0.1554   0.2105   0.2564   0.2765
     0.3388   0.3603   0.3969   0.4501   0.5385   0.5436   0.5727   0.5929
     0.6497   0.7218   0.7495   0.7545   0.8323   0.8861   0.9109   0.9661
     0.9934   1.0444   1.3063

     the Fermi energy is    -1.4043 ev

!    total energy              =   -2246.19396439 Ry
     estimated scf accuracy    <       0.00000048 Ry
     smearing contrib. (-TS)   =      -0.00000001 Ry
     internal energy E=F+TS    =   -2246.19396438 Ry

     The total energy is F=E-TS. E is the sum of the following terms:
     one-electron contribution =  -18448.73340840 Ry
     hartree contribution      =    9212.57135818 Ry
     xc contribution           =    -392.49153304 Ry
     ewald contribution        =    7392.29895352 Ry
     one-center paw contrib.   =      -9.83933463 Ry

     convergence has been achieved in  14 iterations

     negative rho (up, down):  2.316E-04 0.000E+00

     Forces acting on atoms (cartesian axes, Ry/au):

     atom    1 type  1   force =     0.01528976   -0.02484160    0.00214723
     atom    2 type  2   force =    -0.02355982    0.02836388   -0.00527278
     atom    3 type  2   force =    -0.01020222    0.01226011   -0.00271904
     atom    4 type  1   force =     0.00735647    0.00421417    0.00101027
     atom    5 type  2   force =    -0.00192797   -0.00629080   -0.00746749
     atom    6 type  2   force =     0.00088804    0.01072271    0.00082483
     atom    7 type  1   force =     0.00606299   -0.01275797   -0.00797372
     atom    8 type  2   force =    -0.00348566   -0.00725798    0.01587993
     atom    9 type  2   force =     0.01436286    0.00635193    0.00818578
     atom   10 type  1   force =    -0.01876146    0.00110404   -0.07788175
     atom   11 type  2   force =     0.00694228   -0.00295630   -0.00563133
     atom   12 type  2   force =    -0.00464533    0.00006042    0.00786906
     atom   13 type  1   force =     0.00399380    0.00328170   -0.00739778
     atom   14 type  2   force =     0.00811074   -0.00039106    0.01372151
     atom   15 type  2   force =    -0.01228169    0.00258360   -0.00858052
     atom   16 type  1   force =    -0.00057739    0.01281966    0.00548993
     atom   17 type  2   force =     0.00668121    0.00010986   -0.00044005
     atom   18 type  2   force =    -0.00345311   -0.00636368    0.01395642
     atom   19 type  1   force =     0.00370312   -0.01116296   -0.00213725
     atom   20 type  2   force =     0.00267253   -0.00374851    0.00200452
     atom   21 type  1   force =    -0.00489268    0.00389898   -0.00501945
     atom   22 type  2   force =    -0.00231911   -0.00462322   -0.00309707
     atom   23 type  2   force =     0.00400579   -0.00131772    0.00758882
     atom   24 type  1   force =    -0.01072102   -0.00549343   -0.01979689
     atom   25 type  2   force =     0.01855140    0.01948237    0.00726111
     atom   26 type  2   force =    -0.01307976    0.00044805   -0.00559638
     atom   27 type  1   force =    -0.00119815    0.00042757    0.00913631
     atom   28 type  2   force =     0.00048801   -0.00083977   -0.00504699
     atom   29 type  2   force =     0.00310477    0.00032888   -0.00317840
     atom   30 type  1   force =    -0.01024701   -0.01050432    0.01914959
     atom   31 type  2   force =     0.00645354   -0.00517953    0.01283333
     atom   32 type  2   force =    -0.00935732    0.00676038    0.00500694
     atom   33 type  1   force =     0.01242517   -0.00155717   -0.00377423
     atom   34 type  2   force =     0.17835881   -0.37939176   -0.81307003
     atom   35 type  2   force =    -0.00833466    0.00759460    0.01774711
     atom   36 type  3   force =    -0.16040695    0.36386488    0.83426844
     The non-local contrib.  to forces
     atom    1 type  1   force =    -0.00119661    0.02849995   -0.00918987
     atom    2 type  2   force =    -0.02000490    0.03373205   -0.27523247
     atom    3 type  2   force =    -0.01226448    0.00398321    0.26692334
     atom    4 type  1   force =    -0.00248083   -0.00045610    0.00564343
     atom    5 type  2   force =     0.00690452   -0.03210330   -0.25470988
     atom    6 type  2   force =    -0.00193787    0.01349640    0.26113615
     atom    7 type  1   force =    -0.01889402    0.00508759   -0.02030308
     atom    8 type  2   force =     0.00918845   -0.00098486   -0.25314724
     atom    9 type  2   force =     0.01258509   -0.00889014    0.28103783
     atom   10 type  1   force =     0.03922705   -0.02194220    0.03682942
     atom   11 type  2   force =     0.01043799    0.00537451   -0.26118039
     atom   12 type  2   force =    -0.01542411   -0.02203474    0.26037768
     atom   13 type  1   force =     0.00228654    0.01854466   -0.00684958
     atom   14 type  2   force =     0.01084936   -0.01142527   -0.26468097
     atom   15 type  2   force =    -0.01407107   -0.00899978    0.26200674
     atom   16 type  1   force =    -0.00172797    0.02451913   -0.03042174
     atom   17 type  2   force =     0.00196055   -0.02929499   -0.25185930
     atom   18 type  2   force =    -0.00313646   -0.00179382    0.27179635
     atom   19 type  1   force =     0.01810607   -0.00097108   -0.01730757
     atom   20 type  2   force =    -0.00040696   -0.02081428    0.26787984
     atom   21 type  1   force =     0.00450419    0.03305388    0.01453141
     atom   22 type  2   force =    -0.01779330    0.00763917   -0.25864930
     atom   23 type  2   force =     0.01079476   -0.01891242    0.26498546
     atom   24 type  1   force =     0.00418283    0.01252368   -0.01083344
     atom   25 type  2   force =     0.01711449    0.01084012   -0.26343338
     atom   26 type  2   force =    -0.00198450   -0.01041066    0.26079512
     atom   27 type  1   force =    -0.00144231    0.00283020    0.00977809
     atom   28 type  2   force =    -0.00378101   -0.02102434   -0.27625285
     atom   29 type  2   force =     0.00687044    0.00136052    0.26510095
     atom   30 type  1   force =     0.00721668    0.03191566    0.00007311
     atom   31 type  2   force =    -0.01032588    0.00266754   -0.25269901
     atom   32 type  2   force =    -0.00643392   -0.01099018    0.27525781
     atom   33 type  1   force =    -0.02614048   -0.01569302    0.02809930
     atom   34 type  2   force =     0.07901274   -0.19699891   -0.31280616
     atom   35 type  2   force =    -0.00104728   -0.01224854    0.27472839
     atom   36 type  3   force =     0.67958946   -1.33481557   -1.83050845
     The ionic contribution  to forces
     atom    1 type  1   force =    -0.23230614    1.09612893    4.27316352
     atom    2 type  2   force =    -1.98713148    2.56675440   38.05264469
     atom    3 type  2   force =    -0.30936079    0.28550775  -36.98461279
     atom    4 type  1   force =    -0.13291492    0.44282368   -0.47805465
     atom    5 type  2   force =    -1.13595036    1.63136342   38.52712513
     atom    6 type  2   force =     0.28356701   -0.43680466  -38.52697352
     atom    7 type  1   force =    -3.32274343   -3.62813153    0.96433267
     atom    8 type  2   force =    -1.37515221   -0.91936036   36.87693825
     atom    9 type  2   force =     0.26099064   -0.23673589  -38.65673161
     atom   10 type  1   force =    -3.20709287    0.01047383    0.55586758
     atom   11 type  2   force =    -1.92631714   -2.03896437   38.41908271
     atom   12 type  2   force =     0.24473653    0.61870919  -38.65501798
     atom   13 type  1   force =     0.95523881    1.70335055    1.54587196
     atom   14 type  2   force =    -0.04727269    0.36541168   38.19645755
     atom   15 type  2   force =     0.12449344    0.07052607  -37.40904948
     atom   16 type  1   force =    -0.06506897    3.87358461   -0.46020896
     atom   17 type  2   force =     0.94837167    1.62657665   37.71060372
     atom   18 type  2   force =    -0.11314527   -0.59217899  -39.05218725
     atom   19 type  1   force =     3.25065982   -3.14913344   -0.79828865
     atom   20 type  2   force =     0.21396395   -0.31352614  -39.00096479
     atom   21 type  1   force =    -0.18913620    0.12510798   -0.43901321
     atom   22 type  2   force =     1.33018169   -2.00732284   37.88419994
     atom   23 type  2   force =     0.06170301    0.60517847  -39.01660545
     atom   24 type  1   force =    -0.37570123    2.90940274    3.57585002
     atom   25 type  2   force =     1.94612720    1.76903683   38.35289870
     atom   26 type  2   force =    -0.12268812    0.29342819  -38.14489773
     atom   27 type  1   force =     0.28525342    0.28337756   -3.36903631
     atom   28 type  2   force =     0.08878289    1.28974870   37.91530691
     atom   29 type  2   force =    -0.25487293   -0.33535266  -37.83321409
     atom   30 type  1   force =    -0.14554793   -2.77770047   -2.79947810
     atom   31 type  2   force =     1.64546038   -0.82227117   36.87950258
     atom   32 type  2   force =    -0.38825654   -0.18680288  -39.26123112
     atom   33 type  1   force =     2.83423329   -0.57612993   -1.81170314
     atom   34 type  2   force =     3.12773210   -7.56699642   28.81125254
     atom   35 type  2   force =    -0.25346932    0.34877777  -38.97467960
     atom   36 type  3   force =    -2.01736731    3.67214272   53.13084997
     The local contribution  to forces
     atom    1 type  1   force =     0.24896256   -1.14984122   -4.26216796
     atom    2 type  2   force =     1.98289135   -2.57058899  -37.80410308
     atom    3 type  2   force =     0.31090249   -0.27693468   36.73580035
     atom    4 type  1   force =     0.14284816   -0.43815637    0.47288908
     atom    5 type  2   force =     1.12782686   -1.60745331  -38.30067725
     atom    6 type  2   force =    -0.28105053    0.43522453   38.28743602
     atom    7 type  1   force =     3.34797727    3.61076325   -0.95238572
     atom    8 type  2   force =     1.36299901    0.91305432  -36.62855456
     atom    9 type  2   force =    -0.25883125    0.25154845   38.40509415
     atom   10 type  1   force =     3.14915996    0.01267855   -0.67056581
     atom   11 type  2   force =     1.92358663    2.03124277  -38.18455175
     atom   12 type  2   force =    -0.23530591   -0.59828323   38.42332593
     atom   13 type  1   force =    -0.95368344   -1.71901270   -1.54679034
     atom   14 type  2   force =     0.04510626   -0.35463731  -37.93911460
     atom   15 type  2   force =    -0.12348478   -0.05950971   37.15915151
     atom   16 type  1   force =     0.06626507   -3.88546154    0.49551329
     atom   17 type  2   force =    -0.94369864   -1.59884946  -37.47989963
     atom   18 type  2   force =     0.11280919    0.58816353   38.81529196
     atom   19 type  1   force =    -3.26525692    3.13942809    0.81300444
     atom   20 type  2   force =    -0.21101333    0.32982977   38.75627287
     atom   21 type  1   force =     0.17977225   -0.15422470    0.41918739
     atom   22 type  2   force =    -1.31568747    1.99585028  -37.64947199
     atom   23 type  2   force =    -0.06774779   -0.58904971   38.78005069
     atom   24 type  1   force =     0.36076226   -2.92794678   -3.58495120
     atom   25 type  2   force =    -1.94438565   -1.76003943  -38.10336436
     atom   26 type  2   force =     0.11176569   -0.28319139   37.89936083
     atom   27 type  1   force =    -0.28516517   -0.28582395    3.36781319
     atom   28 type  2   force =    -0.08479088   -1.27133834  -37.66549401
     atom   29 type  2   force =     0.25168916    0.33492441   37.58560895
     atom   30 type  1   force =     0.12800725    2.73561925    2.81828649
     atom   31 type  2   force =    -1.62945105    0.81475543  -36.63476071
     atom   32 type  2   force =     0.38529272    0.20396765   39.01209645
     atom   33 type  1   force =    -2.79572340    0.59045024    1.77972685
     atom   34 type  2   force =    -3.02309048    7.37183788  -29.34036130
     atom   35 type  2   force =     0.24633693   -0.32990334   38.73915821
     atom   36 type  3   force =     1.18306252   -1.98425859  -50.47918980
     The core correction contribution to forces
     atom    1 type  1   force =     0.00000000    0.00000000    0.00000000
     atom    2 type  2   force =     0.00079799   -0.00177707    0.02119315
     atom    3 type  2   force =     0.00053286   -0.00039384   -0.02068927
     atom    4 type  1   force =     0.00000000    0.00000000    0.00000000
     atom    5 type  2   force =    -0.00063339    0.00174391    0.02046819
     atom    6 type  2   force =     0.00031652   -0.00124449   -0.02080226
     atom    7 type  1   force =     0.00000000    0.00000000    0.00000000
     atom    8 type  2   force =    -0.00047882    0.00026207    0.02028338
     atom    9 type  2   force =    -0.00039814    0.00049583   -0.02119087
     atom   10 type  1   force =     0.00000000    0.00000000    0.00000000
     atom   11 type  2   force =    -0.00057017   -0.00044515    0.02069688
     atom   12 type  2   force =     0.00138174    0.00170020   -0.02070324
     atom   13 type  1   force =     0.00000000    0.00000000    0.00000000
     atom   14 type  2   force =    -0.00054204    0.00011138    0.02073851
     atom   15 type  2   force =     0.00077830    0.00050588   -0.02061834
     atom   16 type  1   force =     0.00000000    0.00000000    0.00000000
     atom   17 type  2   force =    -0.00000465    0.00151129    0.02035438
     atom   18 type  2   force =     0.00000896   -0.00060396   -0.02097084
     atom   19 type  1   force =     0.00000000    0.00000000    0.00000000
     atom   20 type  2   force =     0.00014771    0.00083803   -0.02129532
     atom   21 type  1   force =     0.00000000    0.00000000    0.00000000
     atom   22 type  2   force =     0.00083878   -0.00060227    0.02047660
     atom   23 type  2   force =    -0.00077915    0.00151862   -0.02074450
     atom   24 type  1   force =     0.00000000    0.00000000    0.00000000
     atom   25 type  2   force =    -0.00045531   -0.00058706    0.02090035
     atom   26 type  2   force =    -0.00018499    0.00051039   -0.02072065
     atom   27 type  1   force =     0.00000000    0.00000000    0.00000000
     atom   28 type  2   force =     0.00024711    0.00159379    0.02105151
     atom   29 type  2   force =    -0.00058259   -0.00063837   -0.02065929
     atom   30 type  1   force =     0.00000000    0.00000000    0.00000000
     atom   31 type  2   force =     0.00066706   -0.00013156    0.02041620
     atom   32 type  2   force =     0.00002891    0.00063724   -0.02110976
     atom   33 type  1   force =     0.00000000    0.00000000    0.00000000
     atom   34 type  2   force =    -0.00532476    0.01294209    0.02874210
     atom   35 type  2   force =    -0.00015895    0.00104907   -0.02134508
     atom   36 type  3   force =    -0.00568800    0.01084271    0.01272385
     The Hubbard contrib.    to forces
     atom    1 type  1   force =     0.00000000    0.00000000    0.00000000
     atom    2 type  2   force =     0.00000000    0.00000000    0.00000000
     atom    3 type  2   force =     0.00000000    0.00000000    0.00000000
     atom    4 type  1   force =     0.00000000    0.00000000    0.00000000
     atom    5 type  2   force =     0.00000000    0.00000000    0.00000000
     atom    6 type  2   force =     0.00000000    0.00000000    0.00000000
     atom    7 type  1   force =     0.00000000    0.00000000    0.00000000
     atom    8 type  2   force =     0.00000000    0.00000000    0.00000000
     atom    9 type  2   force =     0.00000000    0.00000000    0.00000000
     atom   10 type  1   force =     0.00000000    0.00000000    0.00000000
     atom   11 type  2   force =     0.00000000    0.00000000    0.00000000
     atom   12 type  2   force =     0.00000000    0.00000000    0.00000000
     atom   13 type  1   force =     0.00000000    0.00000000    0.00000000
     atom   14 type  2   force =     0.00000000    0.00000000    0.00000000
     atom   15 type  2   force =     0.00000000    0.00000000    0.00000000
     atom   16 type  1   force =     0.00000000    0.00000000    0.00000000
     atom   17 type  2   force =     0.00000000    0.00000000    0.00000000
     atom   18 type  2   force =     0.00000000    0.00000000    0.00000000
     atom   19 type  1   force =     0.00000000    0.00000000    0.00000000
     atom   20 type  2   force =     0.00000000    0.00000000    0.00000000
     atom   21 type  1   force =     0.00000000    0.00000000    0.00000000
     atom   22 type  2   force =     0.00000000    0.00000000    0.00000000
     atom   23 type  2   force =     0.00000000    0.00000000    0.00000000
     atom   24 type  1   force =     0.00000000    0.00000000    0.00000000
     atom   25 type  2   force =     0.00000000    0.00000000    0.00000000
     atom   26 type  2   force =     0.00000000    0.00000000    0.00000000
     atom   27 type  1   force =     0.00000000    0.00000000    0.00000000
     atom   28 type  2   force =     0.00000000    0.00000000    0.00000000
     atom   29 type  2   force =     0.00000000    0.00000000    0.00000000
     atom   30 type  1   force =     0.00000000    0.00000000    0.00000000
     atom   31 type  2   force =     0.00000000    0.00000000    0.00000000
     atom   32 type  2   force =     0.00000000    0.00000000    0.00000000
     atom   33 type  1   force =     0.00000000    0.00000000    0.00000000
     atom   34 type  2   force =     0.00000000    0.00000000    0.00000000
     atom   35 type  2   force =     0.00000000    0.00000000    0.00000000
     atom   36 type  3   force =     0.00000000    0.00000000    0.00000000
     The SCF correction term to forces
     atom    1 type  1   force =    -0.00017193    0.00037190    0.00034022
     atom    2 type  2   force =    -0.00011466    0.00024464    0.00022360
     atom    3 type  2   force =    -0.00001417    0.00009883   -0.00014200
     atom    4 type  1   force =    -0.00009781    0.00000412    0.00053109
     atom    5 type  2   force =    -0.00007747    0.00015964    0.00032500
     atom    6 type  2   force =    -0.00000898    0.00005208    0.00002712
     atom    7 type  1   force =    -0.00027871   -0.00047612    0.00038109
     atom    8 type  2   force =    -0.00004398   -0.00022800    0.00035879
     atom    9 type  2   force =     0.00001465   -0.00006516   -0.00002505
     atom   10 type  1   force =    -0.00005748   -0.00010499   -0.00001427
     atom   11 type  2   force =    -0.00019692   -0.00016291    0.00031990
     atom   12 type  2   force =    -0.00003546   -0.00002985   -0.00011465
     atom   13 type  1   force =     0.00015002    0.00040035    0.00036885
     atom   14 type  2   force =    -0.00003203    0.00014961    0.00031969
     atom   15 type  2   force =     0.00000055    0.00006230   -0.00007228
     atom   16 type  1   force =    -0.00004739    0.00017862    0.00060602
     atom   17 type  2   force =     0.00005040    0.00016753    0.00035946
     atom   18 type  2   force =     0.00000858    0.00005071    0.00002488
     atom   19 type  1   force =     0.00019226   -0.00048537    0.00045322
     atom   20 type  2   force =    -0.00002072   -0.00007473    0.00011059
     atom   21 type  1   force =    -0.00003480   -0.00003703    0.00027365
     atom   22 type  2   force =     0.00013931   -0.00018642    0.00034635
     atom   23 type  2   force =     0.00003309   -0.00005153   -0.00009870
     atom   24 type  1   force =     0.00003324    0.00052809    0.00013640
     atom   25 type  2   force =     0.00014878    0.00023307    0.00025849
     atom   26 type  2   force =     0.00001028    0.00011267   -0.00013527
     atom   27 type  1   force =     0.00015403    0.00004492    0.00058002
     atom   28 type  2   force =     0.00002802    0.00018157    0.00034013
     atom   29 type  2   force =    -0.00000119    0.00003615   -0.00001624
     atom   30 type  1   force =     0.00007512   -0.00033760    0.00026677
     atom   31 type  2   force =     0.00010114   -0.00019860    0.00037294
     atom   32 type  2   force =     0.00000963   -0.00005030   -0.00000776
     atom   33 type  1   force =     0.00005388   -0.00018330    0.00010145
     atom   34 type  2   force =     0.00002733   -0.00017524    0.00010148
     atom   35 type  2   force =     0.00000208   -0.00007920   -0.00011613
     atom   36 type  3   force =    -0.00000550   -0.00004524    0.00039156

     Total force =     1.306091     Total SCF correction =     0.002262

     BFGS Geometry Optimization
     Energy error            =      0.0E+00 Ry
     Gradient error          =      8.3E-01 Ry/Bohr

     number of scf cycles    =   1
     number of bfgs steps    =   0

     energy             new  =   -2246.1939643906 Ry

     new trust radius        =       0.5000000000 bohr
     new conv_thr            =       0.0000010000 Ry


ATOMIC_POSITIONS (angstrom)
Mo            6.5789257403        1.7806942875        2.8242577658
S             8.1699643605        0.8178243651        4.4330288011
S             8.1903122766        0.8147517122        1.2771049867
Mo            8.0972686607        4.4962634248        2.7181076242
S             6.4993572962        3.7206104838        4.3445227700
S             6.5536040365        3.5148073771        1.1215163696
Mo            6.4917174807        7.2147847843        2.6696016755
S             8.0807298131        6.3417930932        4.2470078560
S             8.0850296147        6.3065208223        1.0862065205
Mo            8.1552477977        9.9024964909        2.8211648669
S             6.4971551118        8.9420804509        4.3814933295
S             6.6166172798        9.0487285098        1.1421601481
Mo            3.4228030555        1.7478953726        2.7743532386
S             4.9774875285        0.8168292518        4.3544614470
S             5.0543176094        0.8470017726        1.2242019294
Mo            4.9795913801        4.5168481648        2.6344562713
S             3.4297544365        3.6716311368        4.2795835983
S             3.4369319852        3.5464068285        1.0623472872
Mo            3.4549219114        7.2131286771        2.6300649858
S             4.9839993151        6.3258591180        1.0378276082
Mo            5.0108631879        9.9027162959        2.7419639348
S             3.4702941754        8.9424276793        4.3247046457
S             3.4095759889        9.0646127312        1.0982409150
Mo            0.2930211485        1.7459368079        2.8437770235
S             1.8557733242        0.7982716478        4.4002882336
S             1.8570554096        0.8545541917        1.2077986584
Mo            1.8603482890        4.4957891710        2.6628130294
S             0.2723535612        3.6541584064        4.3361391895
S             0.2321200761        3.5273433831        1.1711079349
Mo            0.2682185172        7.2136387958        2.7071787957
S             1.9040858422        6.3113159786        4.2261181960
S             1.8595592915        6.3122792524        1.0459927288
Mo            1.8479038864        9.9396933479        2.7718657209
S             0.3469755354        8.9813811362        4.1810943106
S             0.2743852567        9.0456999865        1.1554816296
O            -0.0459231685        9.8187492522        5.7167275106



     Writing config-only to output data dir ./MoS2-V-O.save/
     NEW-OLD atomic charge density approx. for the potential

     negative rho (up, down):  1.886E-04 0.000E+00

     total cpu time spent up to now is      124.4 secs

     Self-consistent Calculation

     iteration #  1     ecut=    80.00 Ry     beta= 0.70
     Davidson diagonalization with overlap
     ethr =  1.00E-06,  avg # of iterations = 20.0

     negative rho (up, down):  6.428E-03 0.000E+00

     total cpu time spent up to now is      140.6 secs

     total energy              =   -2246.27709182 Ry
     estimated scf accuracy    <       0.17492810 Ry

     iteration #  2     ecut=    80.00 Ry     beta= 0.70
     Davidson diagonalization with overlap
     ethr =  5.61E-05,  avg # of iterations =  7.0

     negative rho (up, down):  1.001E-02 0.000E+00

     total cpu time spent up to now is      159.1 secs

     total energy              =   -2246.29500065 Ry
     estimated scf accuracy    <       0.11489445 Ry

     iteration #  3     ecut=    80.00 Ry     beta= 0.70
     Davidson diagonalization with overlap
     ethr =  3.68E-05,  avg # of iterations =  4.0

     negative rho (up, down):  1.793E-02 0.000E+00

     total cpu time spent up to now is      171.5 secs

     total energy              =   -2246.29691969 Ry
     estimated scf accuracy    <       0.01751963 Ry

     iteration #  4     ecut=    80.00 Ry     beta= 0.70
     Davidson diagonalization with overlap
     ethr =  5.62E-06,  avg # of iterations =  5.0

     negative rho (up, down):  1.948E-02 0.000E+00

     total cpu time spent up to now is      184.8 secs

     total energy              =   -2246.29866378 Ry
     estimated scf accuracy    <       0.00864066 Ry

     iteration #  5     ecut=    80.00 Ry     beta= 0.70
     Davidson diagonalization with overlap
     ethr =  2.77E-06,  avg # of iterations =  2.0

     negative rho (up, down):  2.019E-02 0.000E+00

     total cpu time spent up to now is      196.9 secs

     total energy              =   -2246.29795958 Ry
     estimated scf accuracy    <       0.00347978 Ry

     iteration #  6     ecut=    80.00 Ry     beta= 0.70
     Davidson diagonalization with overlap
     ethr =  1.12E-06,  avg # of iterations =  6.0

     negative rho (up, down):  1.752E-02 0.000E+00

     total cpu time spent up to now is      210.5 secs

     total energy              =   -2246.29842493 Ry
     estimated scf accuracy    <       0.00130349 Ry

     iteration #  7     ecut=    80.00 Ry     beta= 0.70
     Davidson diagonalization with overlap
     ethr =  4.18E-07,  avg # of iterations =  4.0

     negative rho (up, down):  1.309E-02 0.000E+00

     total cpu time spent up to now is      221.5 secs

     total energy              =   -2246.29845458 Ry
     estimated scf accuracy    <       0.00012620 Ry

     iteration #  8     ecut=    80.00 Ry     beta= 0.70
     Davidson diagonalization with overlap
     ethr =  4.04E-08,  avg # of iterations =  6.0

     negative rho (up, down):  1.114E-02 0.000E+00

     total cpu time spent up to now is      233.5 secs

     total energy              =   -2246.29844424 Ry
     estimated scf accuracy    <       0.00014061 Ry

     iteration #  9     ecut=    80.00 Ry     beta= 0.70
     Davidson diagonalization with overlap
     ethr =  4.04E-08,  avg # of iterations =  2.0

     negative rho (up, down):  5.507E-03 0.000E+00

     total cpu time spent up to now is      243.0 secs

     total energy              =   -2246.29835973 Ry
     estimated scf accuracy    <       0.00006345 Ry

     iteration # 10     ecut=    80.00 Ry     beta= 0.70
     Davidson diagonalization with overlap
     ethr =  2.03E-08,  avg # of iterations =  5.0

     negative rho (up, down):  4.051E-03 0.000E+00

     total cpu time spent up to now is      252.2 secs

     total energy              =   -2246.29835020 Ry
     estimated scf accuracy    <       0.00001766 Ry

     iteration # 11     ecut=    80.00 Ry     beta= 0.70
     Davidson diagonalization with overlap
     ethr =  5.66E-09,  avg # of iterations =  3.0

     negative rho (up, down):  1.489E-03 0.000E+00

     total cpu time spent up to now is      261.1 secs

     total energy              =   -2246.29833037 Ry
     estimated scf accuracy    <       0.00000627 Ry

     iteration # 12     ecut=    80.00 Ry     beta= 0.70
     Davidson diagonalization with overlap
     ethr =  2.01E-09,  avg # of iterations =  3.0

     negative rho (up, down):  9.817E-04 0.000E+00

     total cpu time spent up to now is      269.4 secs

     total energy              =   -2246.29832758 Ry
     estimated scf accuracy    <       0.00000568 Ry

     iteration # 13     ecut=    80.00 Ry     beta= 0.70
     Davidson diagonalization with overlap
     ethr =  1.82E-09,  avg # of iterations =  2.0

     negative rho (up, down):  4.984E-04 0.000E+00

     total cpu time spent up to now is      279.4 secs

     total energy              =   -2246.29832476 Ry
     estimated scf accuracy    <       0.00000211 Ry

     iteration # 14     ecut=    80.00 Ry     beta= 0.70
     Davidson diagonalization with overlap
     ethr =  6.75E-10,  avg # of iterations =  2.0

     negative rho (up, down):  1.887E-04 0.000E+00

     total cpu time spent up to now is      283.9 secs

     End of self-consistent calculation

          k = 0.0000 0.0000 0.0000 (105382 PWs)   bands (ev):

   -63.1012 -63.0876 -63.0654 -63.0557 -63.0279 -63.0129 -63.0118 -63.0011
   -62.9793 -62.9651 -62.9472 -62.8918 -37.4525 -37.3993 -37.3803 -37.3627
   -37.3304 -37.3019 -37.2885 -37.2824 -37.2793 -37.2564 -37.2500 -37.2450
   -37.2435 -37.2241 -37.2153 -37.2010 -37.1971 -37.1898 -37.1757 -37.1742
   -37.1667 -37.1612 -37.1514 -37.1427 -37.1231 -37.1073 -37.1059 -37.0996
   -37.0815 -37.0704 -37.0606 -37.0328 -37.0100 -36.9677 -36.9558 -36.9389
   -19.3608 -16.1378 -15.4061 -15.3324 -15.1640 -15.0707 -14.9359 -14.7455
   -14.6870 -14.6705 -14.5862 -14.5789 -14.5127 -14.4734 -14.3903 -14.3594
   -14.3103 -14.2891 -14.2403 -14.2032 -14.1216 -14.0551 -14.0225 -13.9369
    -7.9942  -7.7659  -7.7451  -7.6230  -7.4852  -7.4223  -7.3830  -7.3070
    -7.2494  -7.0339  -6.9998  -6.9714  -6.9254  -6.8011  -6.7461  -6.6955
    -6.6665  -6.5616  -6.4538  -6.4210  -6.2193  -6.1650  -6.0964  -6.0221
    -5.9940  -5.9610  -5.9476  -5.8884  -5.8440  -5.8074  -5.7731  -5.7043
    -5.6369  -5.6218  -5.5755  -5.4386  -5.3787  -5.3379  -5.2982  -5.1643
    -5.1347  -5.0840  -5.0478  -4.8317  -4.7743  -4.6621  -4.5770  -4.5101
    -4.4999  -4.4066  -4.3230  -4.2330  -4.0844  -3.9971  -3.9448  -3.9341
    -3.9038  -3.8601  -3.7924  -3.7837  -3.7152  -3.6969  -3.6535  -3.6293
    -3.5702  -3.5478  -3.4729  -3.3255  -3.1032  -3.0793  -3.0438  -3.0326
    -2.9625  -2.9374  -2.9218  -2.8679  -2.8332  -2.8132  -2.4788  -2.4401
    -2.2325  -2.1965  -2.1166  -1.9483  -1.0347  -0.9486  -0.7291  -0.3918
    -0.3397  -0.2403  -0.1986  -0.0773  -0.0275   0.0713   0.0964   0.1073
     0.1616   0.2101   0.2276   0.2582   0.3572   0.3677   0.3827   0.4218
     0.4968   0.5626   0.5843   0.6125   0.6528   0.7097   0.7312   0.7971
     0.8326   0.8750   1.1402

     the Fermi energy is    -1.4916 ev

!    total energy              =   -2246.29832438 Ry
     estimated scf accuracy    <       0.00000036 Ry
     smearing contrib. (-TS)   =      -0.00000014 Ry
     internal energy E=F+TS    =   -2246.29832423 Ry

     The total energy is F=E-TS. E is the sum of the following terms:
     one-electron contribution =  -18426.71230001 Ry
     hartree contribution      =    9200.39349491 Ry
     xc contribution           =    -392.00605564 Ry
     ewald contribution        =    7381.89694512 Ry
     one-center paw contrib.   =      -9.87040861 Ry

     convergence has been achieved in  14 iterations

     negative rho (up, down):  1.887E-04 0.000E+00

     Forces acting on atoms (cartesian axes, Ry/au):

     atom    1 type  1   force =     0.00858551   -0.01189443   -0.00385712
     atom    2 type  2   force =    -0.00991907    0.00551664   -0.00162817
     atom    3 type  2   force =    -0.01120566    0.01123715   -0.00763669
     atom    4 type  1   force =     0.00525740    0.00369278    0.00016224
     atom    5 type  2   force =    -0.00030611   -0.00670289   -0.00623585
     atom    6 type  2   force =     0.00081763    0.00857672    0.00191254
     atom    7 type  1   force =     0.00234516   -0.00849317   -0.00523911
     atom    8 type  2   force =    -0.00418576   -0.00834522    0.01784472
     atom    9 type  2   force =     0.01074292    0.00470257    0.00589704
     atom   10 type  1   force =    -0.03092796    0.01402564   -0.05751562
     atom   11 type  2   force =     0.00778678   -0.00026547   -0.00822948
     atom   12 type  2   force =    -0.00400756    0.00057229    0.00406490
     atom   13 type  1   force =     0.00316731    0.00481358   -0.00754777
     atom   14 type  2   force =     0.00741534   -0.00152137    0.01280951
     atom   15 type  2   force =    -0.01032510    0.00161167   -0.00892918
     atom   16 type  1   force =    -0.00049448    0.01022890    0.00376209
     atom   17 type  2   force =     0.00610549   -0.00063295    0.00069018
     atom   18 type  2   force =    -0.00302674   -0.00483063    0.01252236
     atom   19 type  1   force =     0.00615339   -0.00788287   -0.00234142
     atom   20 type  2   force =     0.00240467   -0.00426762    0.00031245
     atom   21 type  1   force =    -0.00559509    0.00133442   -0.00149591
     atom   22 type  2   force =     0.00020656   -0.00316835   -0.00092260
     atom   23 type  2   force =     0.00231559   -0.00093894    0.00733351
     atom   24 type  1   force =    -0.00961900   -0.00552854   -0.01204437
     atom   25 type  2   force =     0.01070841    0.01167723    0.00669662
     atom   26 type  2   force =    -0.01044332    0.00170844   -0.00574345
     atom   27 type  1   force =    -0.00039540    0.00114501    0.00656670
     atom   28 type  2   force =     0.00012663   -0.00184509   -0.00396833
     atom   29 type  2   force =     0.00284130    0.00162765   -0.00369320
     atom   30 type  1   force =    -0.00542231   -0.05264839   -0.03185541
     atom   31 type  2   force =     0.00735402   -0.00775512    0.01559753
     atom   32 type  2   force =    -0.00771477    0.00487752    0.00530460
     atom   33 type  1   force =     0.05029565    0.01585075   -0.04479092
     atom   34 type  2   force =    -0.06987525    0.12932383    0.21502760
     atom   35 type  2   force =    -0.00649629    0.00670823   -0.00081161
     atom   36 type  3   force =     0.05533010   -0.11250998   -0.10201834
     The non-local contrib.  to forces
     atom    1 type  1   force =     0.00551343    0.02400138   -0.00496902
     atom    2 type  2   force =     0.00209086    0.00586033   -0.27226221
     atom    3 type  2   force =    -0.01055019   -0.00300478    0.26475963
     atom    4 type  1   force =    -0.00346047   -0.00112257    0.00462817
     atom    5 type  2   force =     0.00782497   -0.03172458   -0.25688838
     atom    6 type  2   force =    -0.00124648    0.01254564    0.26341455
     atom    7 type  1   force =    -0.02055632    0.00343372   -0.02096530
     atom    8 type  2   force =     0.00710394   -0.00282720   -0.25875746
     atom    9 type  2   force =     0.00687024   -0.00912651    0.27710014
     atom   10 type  1   force =     0.00999415   -0.00547033    0.01818360
     atom   11 type  2   force =     0.00272798    0.00151340   -0.27033040
     atom   12 type  2   force =    -0.01179821   -0.01923983    0.26040497
     atom   13 type  1   force =     0.00010174    0.02032008   -0.00327711
     atom   14 type  2   force =     0.00877094   -0.01144659   -0.26775695
     atom   15 type  2   force =    -0.01273705   -0.01079150    0.26122063
     atom   16 type  1   force =    -0.00186733    0.02366160   -0.02891817
     atom   17 type  2   force =     0.00107693   -0.02817974   -0.25383809
     atom   18 type  2   force =    -0.00335321   -0.00029972    0.27191149
     atom   19 type  1   force =     0.02130055   -0.00174857   -0.01874644
     atom   20 type  2   force =    -0.00105843   -0.01945415    0.26742472
     atom   21 type  1   force =     0.00647616    0.02993977    0.01317360
     atom   22 type  2   force =    -0.01014022    0.00478250   -0.26736233
     atom   23 type  2   force =     0.00754289   -0.01784065    0.26569466
     atom   24 type  1   force =     0.00121581    0.01460283   -0.00879058
     atom   25 type  2   force =     0.00955553    0.00763968   -0.27113717
     atom   26 type  2   force =    -0.00247833   -0.01037445    0.25937570
     atom   27 type  1   force =    -0.00080608   -0.00061729    0.00963541
     atom   28 type  2   force =    -0.00348432   -0.02137446   -0.27907060
     atom   29 type  2   force =     0.00664172    0.00278944    0.26605744
     atom   30 type  1   force =     0.00301886    0.03103744   -0.00007122
     atom   31 type  2   force =    -0.01033609    0.00027052   -0.25911004
     atom   32 type  2   force =    -0.00226535   -0.01142131    0.27418156
     atom   33 type  1   force =    -0.01112602   -0.00298808    0.01579769
     atom   34 type  2   force =    -0.10316882    0.14534701    0.38333636
     atom   35 type  2   force =     0.00047386   -0.01355498    0.27080673
     atom   36 type  3   force =     0.38875969   -0.75687887   -1.26515077
     The ionic contribution  to forces
     atom    1 type  1   force =    -0.36883185    1.20854251    4.36049530
     atom    2 type  2   force =    -1.72159081    2.12190913   37.95957952
     atom    3 type  2   force =    -0.29382866    0.35697890  -37.00852697
     atom    4 type  1   force =    -0.21734638    0.30545499   -0.40031505
     atom    5 type  2   force =    -1.13701451    1.60297670   38.48048811
     atom    6 type  2   force =     0.25344960   -0.46666461  -38.45678502
     atom    7 type  1   force =    -3.39289523   -3.50086068    1.06914198
     atom    8 type  2   force =    -1.43349078   -0.83131052   37.09503624
     atom    9 type  2   force =     0.23621515   -0.28134502  -38.67602429
     atom   10 type  1   force =    -3.18461121    0.44431246    0.72472939
     atom   11 type  2   force =    -1.67727591   -1.96791848   38.43855436
     atom   12 type  2   force =     0.12900276    0.57078217  -38.64967231
     atom   13 type  1   force =     0.91790313    1.63425858    1.57028309
     atom   14 type  2   force =    -0.08100309    0.34061103   38.23753727
     atom   15 type  2   force =     0.12479888    0.10867011  -37.40388902
     atom   16 type  1   force =    -0.02135402    3.72383715   -0.32877850
     atom   17 type  2   force =     0.94887514    1.57904775   37.72208631
     atom   18 type  2   force =    -0.09840106   -0.57996412  -38.99393691
     atom   19 type  1   force =     3.36540172   -3.10970893   -0.74168136
     atom   20 type  2   force =     0.20459594   -0.31905676  -39.01943099
     atom   21 type  1   force =    -0.16558415    0.12259447   -0.26773290
     atom   22 type  2   force =     1.28665015   -1.94204121   37.99828077
     atom   23 type  2   force =     0.08763209    0.59934257  -38.99933770
     atom   24 type  1   force =    -0.26555856    2.64893855    3.64116414
     atom   25 type  2   force =     1.71572115    1.50689910   38.37424949
     atom   26 type  2   force =    -0.09396410    0.30881714  -38.09816137
     atom   27 type  1   force =     0.31985381    0.17340494   -3.20161688
     atom   28 type  2   force =     0.09392339    1.20574582   37.91731105
     atom   29 type  2   force =    -0.23947763   -0.33108513  -37.82961150
     atom   30 type  1   force =    -0.26348389   -3.74565259   -2.92420112
     atom   31 type  2   force =     1.69032096   -0.82649068   37.05711425
     atom   32 type  2   force =    -0.36407626   -0.22448392  -39.26538491
     atom   33 type  1   force =     3.19307447    0.28191298   -1.48954715
     atom   34 type  2   force =     1.19097369   -3.64282618   32.23450207
     atom   35 type  2   force =    -0.18139107    0.34777284  -39.08952129
     atom   36 type  3   force =    -0.55721286    0.57659892   47.96360191
     The local contribution  to forces
     atom    1 type  1   force =     0.37200439   -1.24462155   -4.35994164
     atom    2 type  2   force =     1.70950502   -2.12126511  -37.71048152
     atom    3 type  2   force =     0.29273320   -0.34288959   36.75653982
     atom    4 type  1   force =     0.22613886   -0.30053881    0.39526776
     atom    5 type  2   force =     1.12960974   -1.57964038  -38.25052806
     atom    6 type  2   force =    -0.25161067    0.46391853   38.21574500
     atom    7 type  1   force =     3.41594646    3.48915066   -1.05381241
     atom    8 type  2   force =     1.42266967    0.82555162  -36.83928213
     atom    9 type  2   force =    -0.23220653    0.29473096   38.42557326
     atom   10 type  1   force =     3.14382736   -0.42488449   -0.80070267
     atom   11 type  2   force =     1.68226856    1.96631266  -38.19793947
     atom   12 type  2   force =    -0.12223844   -0.55242695   38.41386190
     atom   13 type  1   force =    -0.91499267   -1.65000652   -1.57509615
     atom   14 type  2   force =     0.08009185   -0.33091933  -37.97799011
     atom   15 type  2   force =    -0.12312997   -0.09695010   37.15397329
     atom   16 type  1   force =     0.02276369   -3.73722753    0.36082958
     atom   17 type  2   force =    -0.94394320   -1.55295433  -37.48817050
     atom   18 type  2   force =     0.09865649    0.57606953   38.75514950
     atom   19 type  1   force =    -3.38066035    3.10379433    0.75765298
     atom   20 type  2   force =    -0.20129101    0.33354014   38.77326261
     atom   21 type  1   force =     0.15352853   -0.15126449    0.25264996
     atom   22 type  2   force =    -1.27680876    1.93456586  -37.75299884
     atom   23 type  2   force =    -0.09230870   -0.58382962   38.76150453
     atom   24 type  1   force =     0.25476604   -2.66935158   -3.64485545
     atom   25 type  2   force =    -1.71418545   -1.50218986  -38.11810903
     atom   26 type  2   force =     0.08612572   -0.29734637   37.85341985
     atom   27 type  1   force =    -0.31955385   -0.17159830    3.19794101
     atom   28 type  2   force =    -0.09054214   -1.18778496  -37.66358097
     atom   29 type  2   force =     0.23623539    0.33059316   37.58021180
     atom   30 type  1   force =     0.25501881    3.66223671    2.89213735
     atom   31 type  2   force =    -1.67340026    0.81863594  -36.80333072
     atom   32 type  2   force =     0.35876168    0.24016841   39.01725115
     atom   33 type  1   force =    -3.13176486   -0.26307266    1.42862513
     atom   34 type  2   force =    -1.16364294    3.63583534  -32.39057653
     atom   35 type  2   force =     0.17455834   -0.32851616   38.83878511
     atom   36 type  3   force =     0.22838078    0.05887135  -46.81460440
     The core correction contribution to forces
     atom    1 type  1   force =     0.00000000    0.00000000    0.00000000
     atom    2 type  2   force =     0.00015842   -0.00114743    0.02148852
     atom    3 type  2   force =     0.00046296    0.00009966   -0.02071044
     atom    4 type  1   force =     0.00000000    0.00000000    0.00000000
     atom    5 type  2   force =    -0.00067981    0.00168298    0.02058593
     atom    6 type  2   force =     0.00025083   -0.00123947   -0.02084670
     atom    7 type  1   force =     0.00000000    0.00000000    0.00000000
     atom    8 type  2   force =    -0.00041973    0.00040932    0.02075756
     atom    9 type  2   force =    -0.00012345    0.00047953   -0.02106610
     atom   10 type  1   force =     0.00000000    0.00000000    0.00000000
     atom   11 type  2   force =     0.00016141   -0.00016450    0.02141666
     atom   12 type  2   force =     0.00105263    0.00147283   -0.02079917
     atom   13 type  1   force =     0.00000000    0.00000000    0.00000000
     atom   14 type  2   force =    -0.00046158    0.00012425    0.02093088
     atom   15 type  2   force =     0.00073460    0.00064711   -0.02057523
     atom   16 type  1   force =     0.00000000    0.00000000    0.00000000
     atom   17 type  2   force =     0.00004577    0.00142239    0.02049549
     atom   18 type  2   force =     0.00004115   -0.00066510   -0.02099178
     atom   19 type  1   force =     0.00000000    0.00000000    0.00000000
     atom   20 type  2   force =     0.00018245    0.00074863   -0.02130901
     atom   21 type  1   force =     0.00000000    0.00000000    0.00000000
     atom   22 type  2   force =     0.00040888   -0.00043211    0.02110706
     atom   23 type  2   force =    -0.00058253    0.00143620   -0.02081803
     atom   24 type  1   force =     0.00000000    0.00000000    0.00000000
     atom   25 type  2   force =    -0.00045735   -0.00081707    0.02163277
     atom   26 type  2   force =    -0.00014131    0.00056316   -0.02066710
     atom   27 type  1   force =     0.00000000    0.00000000    0.00000000
     atom   28 type  2   force =     0.00022629    0.00154050    0.02126143
     atom   29 type  2   force =    -0.00055708   -0.00068307   -0.02070433
     atom   30 type  1   force =     0.00000000    0.00000000    0.00000000
     atom   31 type  2   force =     0.00068393   -0.00000877    0.02083876
     atom   32 type  2   force =    -0.00017523    0.00063929   -0.02107256
     atom   33 type  1   force =     0.00000000    0.00000000    0.00000000
     atom   34 type  2   force =     0.00591980   -0.00895211   -0.01208291
     atom   35 type  2   force =    -0.00014101    0.00103320   -0.02112119
     atom   36 type  3   force =    -0.00451547    0.00871806    0.01405373
     The Hubbard contrib.    to forces
     atom    1 type  1   force =     0.00000000    0.00000000    0.00000000
     atom    2 type  2   force =     0.00000000    0.00000000    0.00000000
     atom    3 type  2   force =     0.00000000    0.00000000    0.00000000
     atom    4 type  1   force =     0.00000000    0.00000000    0.00000000
     atom    5 type  2   force =     0.00000000    0.00000000    0.00000000
     atom    6 type  2   force =     0.00000000    0.00000000    0.00000000
     atom    7 type  1   force =     0.00000000    0.00000000    0.00000000
     atom    8 type  2   force =     0.00000000    0.00000000    0.00000000
     atom    9 type  2   force =     0.00000000    0.00000000    0.00000000
     atom   10 type  1   force =     0.00000000    0.00000000    0.00000000
     atom   11 type  2   force =     0.00000000    0.00000000    0.00000000
     atom   12 type  2   force =     0.00000000    0.00000000    0.00000000
     atom   13 type  1   force =     0.00000000    0.00000000    0.00000000
     atom   14 type  2   force =     0.00000000    0.00000000    0.00000000
     atom   15 type  2   force =     0.00000000    0.00000000    0.00000000
     atom   16 type  1   force =     0.00000000    0.00000000    0.00000000
     atom   17 type  2   force =     0.00000000    0.00000000    0.00000000
     atom   18 type  2   force =     0.00000000    0.00000000    0.00000000
     atom   19 type  1   force =     0.00000000    0.00000000    0.00000000
     atom   20 type  2   force =     0.00000000    0.00000000    0.00000000
     atom   21 type  1   force =     0.00000000    0.00000000    0.00000000
     atom   22 type  2   force =     0.00000000    0.00000000    0.00000000
     atom   23 type  2   force =     0.00000000    0.00000000    0.00000000
     atom   24 type  1   force =     0.00000000    0.00000000    0.00000000
     atom   25 type  2   force =     0.00000000    0.00000000    0.00000000
     atom   26 type  2   force =     0.00000000    0.00000000    0.00000000
     atom   27 type  1   force =     0.00000000    0.00000000    0.00000000
     atom   28 type  2   force =     0.00000000    0.00000000    0.00000000
     atom   29 type  2   force =     0.00000000    0.00000000    0.00000000
     atom   30 type  1   force =     0.00000000    0.00000000    0.00000000
     atom   31 type  2   force =     0.00000000    0.00000000    0.00000000
     atom   32 type  2   force =     0.00000000    0.00000000    0.00000000
     atom   33 type  1   force =     0.00000000    0.00000000    0.00000000
     atom   34 type  2   force =     0.00000000    0.00000000    0.00000000
     atom   35 type  2   force =     0.00000000    0.00000000    0.00000000
     atom   36 type  3   force =     0.00000000    0.00000000    0.00000000
     The SCF correction term to forces
     atom    1 type  1   force =    -0.00010236    0.00018546    0.00053220
     atom    2 type  2   force =    -0.00008447    0.00016195    0.00002147
     atom    3 type  2   force =    -0.00002486    0.00005518    0.00027522
     atom    4 type  1   force =    -0.00007651   -0.00009859    0.00055533
     atom    5 type  2   force =    -0.00004841    0.00000463    0.00008050
     atom    6 type  2   force =    -0.00002755    0.00001885    0.00035867
     atom    7 type  1   force =    -0.00015165   -0.00021463    0.00037058
     atom    8 type  2   force =    -0.00005076   -0.00016620    0.00006446
     atom    9 type  2   force =    -0.00001439   -0.00003416    0.00028798
     atom   10 type  1   force =    -0.00014016    0.00007023    0.00024801
     atom   11 type  2   force =    -0.00009716   -0.00000631    0.00004332
     atom   12 type  2   force =    -0.00002820   -0.00001369    0.00024346
     atom   13 type  1   force =     0.00015321    0.00024368    0.00051635
     atom   14 type  2   force =     0.00001532    0.00011150    0.00006237
     atom   15 type  2   force =     0.00000654    0.00003829    0.00031510
     atom   16 type  1   force =    -0.00003872   -0.00004007    0.00060314
     atom   17 type  2   force =     0.00004895    0.00003321    0.00009093
     atom   18 type  2   force =     0.00002799    0.00003103    0.00036402
     atom   19 type  1   force =     0.00010956   -0.00021746    0.00040735
     atom   20 type  2   force =    -0.00002619   -0.00004325    0.00033908
     atom   21 type  1   force =    -0.00001753    0.00006690    0.00038739
     atom   22 type  2   force =     0.00009460   -0.00004115    0.00002469
     atom   23 type  2   force =     0.00002995   -0.00004522    0.00026401
     atom   24 type  1   force =    -0.00004418    0.00028390    0.00041148
     atom   25 type  2   force =     0.00007262    0.00014762    0.00003452
     atom   26 type  2   force =     0.00001279    0.00005119    0.00026341
     atom   27 type  1   force =     0.00010882   -0.00004210    0.00058113
     atom   28 type  2   force =     0.00000150    0.00003027    0.00008471
     atom   29 type  2   force =    -0.00000301    0.00001548    0.00032736
     atom   30 type  1   force =     0.00002201   -0.00026771    0.00025352
     atom   31 type  2   force =     0.00008358   -0.00015990    0.00005923
     atom   32 type  2   force =     0.00003849   -0.00002271    0.00030331
     atom   33 type  1   force =     0.00011016    0.00000074    0.00030736
     atom   34 type  2   force =     0.00004111   -0.00007800   -0.00017745
     atom   35 type  2   force =     0.00000168   -0.00002443    0.00021298
     atom   36 type  3   force =    -0.00008394    0.00018279    0.00005514

     Total force =     0.333455     Total SCF correction =     0.002066
     Energy error            =      1.0E-01 Ry
     Gradient error          =      2.2E-01 Ry/Bohr

     number of scf cycles    =   2
     number of bfgs steps    =   1

     energy             old  =   -2246.1939643906 Ry
     energy             new  =   -2246.2983243757 Ry

     CASE: energy            _new < energy            _old

     new trust radius        =       0.1301415023 bohr
     new conv_thr            =       0.0000002150 Ry


ATOMIC_POSITIONS (angstrom)
Mo            6.5834376496        1.7742613273        2.8226795359
S             8.1644581998        0.8216463010        4.4320550314
S             8.1849089025        0.8202712766        1.2736333062
Mo            8.0999316984        4.4980864981        2.7182287900
S             6.4991275959        3.7173689829        4.3414267391
S             6.5540054487        3.5190881205        1.1223929815
Mo            6.4930438256        7.2104392348        2.6669159068
S             8.0787276288        6.3377859456        4.2555943299
S             8.0904379249        6.3088914607        1.0891902813
Mo            8.1408020517        9.9086790067        2.7921607175
S             6.5009025764        8.9418173203        4.3776177099
S             6.6146352230        9.0489815417        1.1443277139
Mo            3.4243855892        1.7501616916        2.7706875207
S             4.9811308753        0.8161451259        4.3607406882
S             5.0491954298        0.8478344843        1.2198738286
Mo            4.9793466116        4.5219550962        2.6363731242
S             3.4327543775        3.6713600798        4.2798632237
S             3.4354377772        3.5439796557        1.0685127703
Mo            3.4577945440        7.2091291486        2.6289356784
S             4.9851828970        6.3238080856        1.0380638857
Mo            5.0081752573        9.9034933537        2.7410605563
S             3.4702689840        8.9408133598        4.3241474216
S             3.4107870194        9.0641369328        1.1018225336
Mo            0.2882851337        1.7432480484        2.8375296567
S             1.8613750383        0.8043429655        4.4035752923
S             1.8518418576        0.8553228805        1.2050108827
Mo            1.8601159084        4.4963106899        2.6661366694
S             0.2724331742        3.6533105206        4.3341542789
S             0.2335159300        3.5280708476        1.1693362336
Mo            0.2653395598        7.1901147649        2.6942148793
S             1.9076199139        6.3076700872        4.2335712673
S             1.8557230786        6.3147466543        1.0485594374
Mo            1.8704956574        9.9465407603        2.7521094729
S             0.3253260306        9.0189963076        4.2345656847
S             0.2711322807        9.0490087171        1.1560104110
O            -0.0297346388        9.7877069140        5.7136830962



     Writing config-only to output data dir ./MoS2-V-O.save/
     NEW-OLD atomic charge density approx. for the potential

     negative rho (up, down):  2.067E-04 0.000E+00

     total cpu time spent up to now is      292.2 secs

     Self-consistent Calculation

     iteration #  1     ecut=    80.00 Ry     beta= 0.70
     Davidson diagonalization with overlap
     ethr =  1.00E-06,  avg # of iterations = 13.0

     negative rho (up, down):  9.191E-05 0.000E+00

     total cpu time spent up to now is      305.3 secs

     total energy              =   -2246.34735279 Ry
     estimated scf accuracy    <       0.00610923 Ry

     iteration #  2     ecut=    80.00 Ry     beta= 0.70
     Davidson diagonalization with overlap
     ethr =  1.96E-06,  avg # of iterations =  2.0

     negative rho (up, down):  6.671E-05 0.000E+00

     total cpu time spent up to now is      319.6 secs

     total energy              =   -2246.34742550 Ry
     estimated scf accuracy    <       0.00195297 Ry

     iteration #  3     ecut=    80.00 Ry     beta= 0.70
     Davidson diagonalization with overlap
     ethr =  6.26E-07,  avg # of iterations =  2.0

     negative rho (up, down):  6.193E-05 0.000E+00

     total cpu time spent up to now is      334.8 secs

     total energy              =   -2246.34745441 Ry
     estimated scf accuracy    <       0.00042396 Ry

     iteration #  4     ecut=    80.00 Ry     beta= 0.70
     Davidson diagonalization with overlap
     ethr =  1.36E-07,  avg # of iterations =  5.0

     negative rho (up, down):  5.605E-05 0.000E+00

     total cpu time spent up to now is      347.3 secs

     total energy              =   -2246.34751445 Ry
     estimated scf accuracy    <       0.00005953 Ry

     iteration #  5     ecut=    80.00 Ry     beta= 0.70
     Davidson diagonalization with overlap
     ethr =  1.91E-08,  avg # of iterations =  5.0

     negative rho (up, down):  4.702E-05 0.000E+00

     total cpu time spent up to now is      360.7 secs

     total energy              =   -2246.34752163 Ry
     estimated scf accuracy    <       0.00002239 Ry

     iteration #  6     ecut=    80.00 Ry     beta= 0.70
     Davidson diagonalization with overlap
     ethr =  7.18E-09,  avg # of iterations =  2.0

     negative rho (up, down):  3.701E-05 0.000E+00

     total cpu time spent up to now is      373.5 secs

     total energy              =   -2246.34752380 Ry
     estimated scf accuracy    <       0.00000685 Ry

     iteration #  7     ecut=    80.00 Ry     beta= 0.70
     Davidson diagonalization with overlap
     ethr =  2.20E-09,  avg # of iterations =  5.0

     negative rho (up, down):  3.265E-05 0.000E+00

     total cpu time spent up to now is      384.4 secs

     total energy              =   -2246.34752621 Ry
     estimated scf accuracy    <       0.00000163 Ry

     iteration #  8     ecut=    80.00 Ry     beta= 0.70
     Davidson diagonalization with overlap
     ethr =  5.23E-10,  avg # of iterations =  5.0

     negative rho (up, down):  3.929E-05 0.000E+00

     total cpu time spent up to now is      396.3 secs

     total energy              =   -2246.34752730 Ry
     estimated scf accuracy    <       0.00000069 Ry

     iteration #  9     ecut=    80.00 Ry     beta= 0.70
     Davidson diagonalization with overlap
     ethr =  2.22E-10,  avg # of iterations =  2.0

     negative rho (up, down):  6.854E-05 0.000E+00

     total cpu time spent up to now is      409.7 secs

     total energy              =   -2246.34752789 Ry
     estimated scf accuracy    <       0.00000026 Ry

     iteration # 10     ecut=    80.00 Ry     beta= 0.70
     Davidson diagonalization with overlap
     ethr =  8.43E-11,  avg # of iterations =  4.0

     negative rho (up, down):  1.873E-04 0.000E+00

     total cpu time spent up to now is      414.3 secs

     End of self-consistent calculation

          k = 0.0000 0.0000 0.0000 (105382 PWs)   bands (ev):

   -63.0808 -63.0680 -63.0467 -63.0431 -63.0089 -63.0002 -62.9932 -62.9857
   -62.9692 -62.9498 -62.9453 -62.8697 -37.4282 -37.3675 -37.3611 -37.3464
   -37.3087 -37.2781 -37.2761 -37.2603 -37.2561 -37.2372 -37.2324 -37.2300
   -37.2164 -37.2088 -37.2003 -37.1861 -37.1776 -37.1697 -37.1591 -37.1542
   -37.1510 -37.1420 -37.1376 -37.1288 -37.1199 -37.0954 -37.0882 -37.0820
   -37.0678 -37.0539 -37.0419 -37.0137 -36.9923 -36.9528 -36.9463 -36.9248
   -20.1167 -16.1164 -15.3604 -15.3154 -15.1478 -15.0406 -14.9188 -14.6730
   -14.6529 -14.6393 -14.5729 -14.5701 -14.5018 -14.4677 -14.3775 -14.3069
   -14.2831 -14.2650 -14.2023 -14.1550 -14.1021 -14.0530 -14.0121 -13.9223
    -7.9473  -7.7207  -7.6906  -7.6070  -7.4699  -7.3965  -7.3775  -7.3038
    -7.2655  -7.0202  -6.9883  -6.9656  -6.9100  -6.8156  -6.7598  -6.6944
    -6.6661  -6.5560  -6.4548  -6.4145  -6.2001  -6.1432  -6.0800  -6.0027
    -5.9760  -5.9402  -5.9229  -5.8710  -5.8338  -5.7996  -5.7677  -5.6859
    -5.6149  -5.6099  -5.5583  -5.3972  -5.3548  -5.3348  -5.2927  -5.1529
    -5.1305  -5.0852  -5.0345  -4.8172  -4.7992  -4.6574  -4.5378  -4.5135
    -4.4841  -4.4035  -4.3227  -4.2421  -4.1130  -3.9879  -3.9338  -3.9185
    -3.8902  -3.8476  -3.7905  -3.7704  -3.7126  -3.6889  -3.6466  -3.6101
    -3.5541  -3.5331  -3.4641  -3.3430  -3.0877  -3.0842  -3.0448  -3.0035
    -2.9525  -2.9186  -2.8956  -2.8615  -2.8263  -2.8023  -2.5872  -2.4400
    -2.2992  -2.1864  -2.1242  -2.0483  -1.0099  -0.9375  -0.6642  -0.3627
    -0.3258  -0.2156  -0.1909  -0.0690  -0.0114   0.0941   0.1220   0.1418
     0.1963   0.2325   0.2554   0.2679   0.3732   0.3880   0.4148   0.4585
     0.5292   0.5698   0.5985   0.6240   0.6690   0.7338   0.7452   0.8042
     0.8388   0.8798   1.1823

     the Fermi energy is    -1.5291 ev

!    total energy              =   -2246.34752801 Ry
     estimated scf accuracy    <       0.00000009 Ry
     smearing contrib. (-TS)   =      -0.00000001 Ry
     internal energy E=F+TS    =   -2246.34752800 Ry

     The total energy is F=E-TS. E is the sum of the following terms:
     one-electron contribution =  -18419.78839034 Ry
     hartree contribution      =    9197.06989303 Ry
     xc contribution           =    -392.00887877 Ry
     ewald contribution        =    7378.24773182 Ry
     one-center paw contrib.   =      -9.86788374 Ry

     convergence has been achieved in  10 iterations

     negative rho (up, down):  1.873E-04 0.000E+00

     Forces acting on atoms (cartesian axes, Ry/au):

     atom    1 type  1   force =     0.00199083   -0.00742852   -0.00249244
     atom    2 type  2   force =    -0.00967148    0.00347436   -0.00736159
     atom    3 type  2   force =    -0.01022731    0.01245848   -0.01566166
     atom    4 type  1   force =     0.00247519    0.00217592    0.00100303
     atom    5 type  2   force =     0.00043825   -0.00644683   -0.00631915
     atom    6 type  2   force =     0.00051838    0.00734671    0.00250088
     atom    7 type  1   force =     0.00405342   -0.00713003   -0.00032214
     atom    8 type  2   force =    -0.00275245   -0.00787296    0.01290923
     atom    9 type  2   force =     0.00814892    0.00138572    0.00129269
     atom   10 type  1   force =    -0.01290178    0.01184463   -0.02306729
     atom   11 type  2   force =     0.00722138    0.00041745   -0.01261850
     atom   12 type  2   force =    -0.00957519   -0.00263111   -0.00504596
     atom   13 type  1   force =     0.00248792    0.00320615   -0.00209495
     atom   14 type  2   force =     0.00568405   -0.00079150    0.00753200
     atom   15 type  2   force =    -0.00797826    0.00187800   -0.00814532
     atom   16 type  1   force =     0.00053906    0.00615559    0.00349283
     atom   17 type  2   force =     0.00550706   -0.00040842    0.00112462
     atom   18 type  2   force =    -0.00189705   -0.00253368    0.01016570
     atom   19 type  1   force =     0.00220073   -0.00588048    0.00164129
     atom   20 type  2   force =     0.00242605   -0.00382410   -0.00289600
     atom   21 type  1   force =    -0.00243955   -0.00072533    0.00315176
     atom   22 type  2   force =    -0.00004732   -0.00232737   -0.00385389
     atom   23 type  2   force =     0.00594920   -0.00321356   -0.00049469
     atom   24 type  1   force =    -0.00523172   -0.00411330   -0.00557621
     atom   25 type  2   force =     0.01017308    0.00974334   -0.00126354
     atom   26 type  2   force =    -0.00653016    0.00395325   -0.00906758
     atom   27 type  1   force =     0.00152043   -0.00051794    0.00576456
     atom   28 type  2   force =    -0.00006652   -0.00345330   -0.00418492
     atom   29 type  2   force =     0.00261651    0.00198817   -0.00355681
     atom   30 type  1   force =    -0.00277921   -0.01363790    0.00030332
     atom   31 type  2   force =     0.00409124   -0.00522312    0.01057012
     atom   32 type  2   force =    -0.00505076    0.00157010    0.00211538
     atom   33 type  1   force =     0.01551678    0.00638983   -0.00845705
     atom   34 type  2   force =    -0.05764377    0.10967781    0.15214566
     atom   35 type  2   force =    -0.00245331    0.00161155    0.00159012
     atom   36 type  3   force =     0.05368742   -0.10711761   -0.09482350
     The non-local contrib.  to forces
     atom    1 type  1   force =     0.00520164    0.02323637   -0.00700702
     atom    2 type  2   force =    -0.00201551    0.00824109   -0.27633800
     atom    3 type  2   force =    -0.01002024   -0.00301442    0.25947568
     atom    4 type  1   force =    -0.00159259    0.00074749    0.00417123
     atom    5 type  2   force =     0.00862116   -0.03197970   -0.25742167
     atom    6 type  2   force =    -0.00162004    0.01082732    0.26479150
     atom    7 type  1   force =    -0.01910383    0.00406932   -0.02199388
[...]
     atom   28 type  2   force =     0.00085869   -0.01089069   -0.27732779
     atom   29 type  2   force =    -0.00088984   -0.01059254    0.27044657
     atom   30 type  1   force =     0.00000310    0.03010188    0.01629622
     atom   31 type  2   force =    -0.00858234    0.00296000   -0.27161650
     atom   32 type  2   force =     0.00568414   -0.01217508    0.26778331
     atom   33 type  1   force =    -0.01102808   -0.00116608    0.02112206
     atom   34 type  2   force =    -0.00023509   -0.00110058    0.29355686
     atom   35 type  2   force =    -0.00025449   -0.01143197    0.27634391
     atom   36 type  3   force =    -0.00529146   -0.02911021   -2.32032031
     The ionic contribution  to forces
     atom    1 type  1   force =    -0.54395820    1.23384607    0.61577471
     atom    2 type  2   force =    -0.74863291    1.10514870   38.10540120
     atom    3 type  2   force =     0.06773090    0.13702908  -38.50784337
     atom    4 type  1   force =    -0.36804107   -0.16782852   -0.02227126
     atom    5 type  2   force =    -0.94288077    1.04512227   38.16787126
     atom    6 type  2   force =     0.14975904   -0.22785226  -38.45418129
     atom    7 type  1   force =    -3.25436624   -2.51006950    1.58345240
     atom    8 type  2   force =    -1.81406389   -0.79071723   37.81964094
     atom    9 type  2   force =     0.24667871   -0.10979212  -38.57576282
     atom   10 type  1   force =    -1.41818563    0.18106316   -1.72612393
     atom   11 type  2   force =    -1.41334073   -1.41756408   37.77614510
     atom   12 type  2   force =     0.14982085    0.17609949  -38.82027317
     atom   13 type  1   force =     0.53625218    1.24407716    0.89630614
     atom   14 type  2   force =     0.01687085    0.28084512   38.08547864
     atom   15 type  2   force =    -0.01262931    0.03572238  -38.17855742
     atom   16 type  1   force =     0.00861421    3.31294163    1.58129817
     atom   17 type  2   force =     0.96894299    1.04560663   38.25962673
     atom   18 type  2   force =    -0.17072655   -0.22815616  -38.38172585
     atom   19 type  1   force =     3.29517041   -2.51939149    1.98224152
     atom   20 type  2   force =    -0.02246534   -0.15376711  -38.84797369
     atom   21 type  1   force =     0.02604242    0.01412016   -0.90131683
     atom   22 type  2   force =     1.44647277   -1.40214078   37.81019470
     atom   23 type  2   force =    -0.16736706    0.14818647  -38.75473319
     atom   24 type  1   force =    -0.00512278    1.39118806    0.65486256
     atom   25 type  2   force =     0.73125489    1.12338870   38.12722497
     atom   26 type  2   force =    -0.04657509    0.14661635  -38.45680510
     atom   27 type  1   force =     0.36218157   -0.18207616    0.53017165
     atom   28 type  2   force =    -0.01973929    0.39738566   37.92109644
     atom   29 type  2   force =     0.02610048   -0.01027104  -37.90124375
     atom   30 type  1   force =    -0.00923302   -1.81255380   -1.16296859
     atom   31 type  2   force =     1.78473456   -0.79682404   37.90066393
     atom   32 type  2   force =    -0.22978541   -0.11328797  -38.47932453
     atom   33 type  1   force =     1.40889247    0.19490860   -1.64749981
     atom   34 type  2   force =    -0.04497318   -0.52508577   28.67562482
     atom   35 type  2   force =     0.01130564    0.01537562  -38.14742666
     atom   36 type  3   force =    -0.00473847   -0.26129329   50.47295535
     The local contribution  to forces
     atom    1 type  1   force =     0.54739125   -1.25706719   -0.61184479
     atom    2 type  2   force =     0.74852238   -1.09465534  -37.85528476
     atom    3 type  2   force =    -0.06466591   -0.12718183   38.26445684
     atom    4 type  1   force =     0.36658738    0.16402703    0.01992239
     atom    5 type  2   force =     0.93856467   -1.02396815  -37.93189655
     atom    6 type  2   force =    -0.14986826    0.23219449   38.20922226
     atom    7 type  1   force =     3.26934382    2.50468625   -1.56115775
     atom    8 type  2   force =     1.80455938    0.78658315  -37.57029621
     atom    9 type  2   force =    -0.24072128    0.12191898   38.32812472
     atom   10 type  1   force =     1.40646116   -0.17867418    1.70532221
     atom   11 type  2   force =     1.40967454    1.41577522  -37.53329017
     atom   12 type  2   force =    -0.14192586   -0.16426187   38.57939725
     atom   13 type  1   force =    -0.53950033   -1.26799580   -0.89226988
     atom   14 type  2   force =    -0.01647862   -0.27071482  -37.83342101
     atom   15 type  2   force =     0.01255551   -0.02382766   37.93490692
     atom   16 type  1   force =    -0.00883866   -3.34692981   -1.54561395
     atom   17 type  2   force =    -0.96414485   -1.02490875  -38.02397769
     atom   18 type  2   force =     0.17037203    0.23271372   38.13680926
     atom   19 type  1   force =    -3.31018938    2.51420884   -1.95973069
     atom   20 type  2   force =     0.02196246    0.16456006   38.60385521
     atom   21 type  1   force =    -0.02610193   -0.04545156    0.88962565
     atom   22 type  2   force =    -1.44233722    1.40080304  -37.56703699
     atom   23 type  2   force =     0.15928381   -0.13655623   38.51325180
     atom   24 type  1   force =     0.00575516   -1.40422748   -0.65409777
     atom   25 type  2   force =    -0.73131812   -1.11308929  -37.87686691
     atom   26 type  2   force =     0.04384336   -0.13653814   38.21300625
     atom   27 type  1   force =    -0.36107066    0.17859015   -0.53266437
     atom   28 type  2   force =     0.01918571   -0.38717897  -37.66459950
     atom   29 type  2   force =    -0.02553453    0.02012452   37.65135937
     atom   30 type  1   force =     0.00916869    1.78345267    1.14618743
     atom   31 type  2   force =    -1.77590020    0.79285003  -37.65119919
     atom   32 type  2   force =     0.22414950    0.12541749   38.23129647
     atom   33 type  1   force =    -1.39755315   -0.19328618    1.62652667
     atom   34 type  2   force =     0.04469517    0.52612001  -28.96316739
     atom   35 type  2   force =    -0.01114294   -0.00348287   37.89123982
     atom   36 type  3   force =     0.00963588    0.28914181  -48.17551327
     The core correction contribution to forces
     atom    1 type  1   force =     0.00000000    0.00000000    0.00000000
     atom    2 type  2   force =    -0.00006094    0.00050922    0.02124656
     atom    3 type  2   force =     0.00026574    0.00050110   -0.02087417
     atom    4 type  1   force =     0.00000000    0.00000000    0.00000000
     atom    5 type  2   force =    -0.00039711    0.00084833    0.02050063
     atom    6 type  2   force =     0.00015066   -0.00014844   -0.02088166
     atom    7 type  1   force =     0.00000000    0.00000000    0.00000000
     atom    8 type  2   force =    -0.00052538    0.00010342    0.02127336
     atom    9 type  2   force =     0.00060079    0.00072347   -0.02096851
     atom   10 type  1   force =     0.00000000    0.00000000    0.00000000
     atom   11 type  2   force =    -0.00001218   -0.00023599    0.02100652
     atom   12 type  2   force =     0.00063510    0.00074514   -0.02077039
     atom   13 type  1   force =     0.00000000    0.00000000    0.00000000
     atom   14 type  2   force =     0.00002522    0.00018786    0.02112933
     atom   15 type  2   force =    -0.00005473    0.00056111   -0.02074391
     atom   16 type  1   force =     0.00000000    0.00000000    0.00000000
     atom   17 type  2   force =     0.00049494    0.00085020    0.02051950
     atom   18 type  2   force =    -0.00019672   -0.00011534   -0.02087693
     atom   19 type  1   force =     0.00000000    0.00000000    0.00000000
     atom   20 type  2   force =    -0.00006175    0.00055332   -0.02126623
     atom   21 type  1   force =     0.00000000    0.00000000    0.00000000
     atom   22 type  2   force =    -0.00001080   -0.00017804    0.02100839
     atom   23 type  2   force =    -0.00065922    0.00072082   -0.02074885
     atom   24 type  1   force =     0.00000000    0.00000000    0.00000000
     atom   25 type  2   force =     0.00003559    0.00048437    0.02123787
     atom   26 type  2   force =    -0.00026162    0.00049174   -0.02085553
     atom   27 type  1   force =     0.00000000    0.00000000    0.00000000
     atom   28 type  2   force =    -0.00006776    0.00069737    0.02127145
     atom   29 type  2   force =     0.00007346    0.00039849   -0.02088411
     atom   30 type  1   force =     0.00000000    0.00000000    0.00000000
     atom   31 type  2   force =     0.00044357    0.00016634    0.02128809
     atom   32 type  2   force =    -0.00053914    0.00065581   -0.02096802
     atom   33 type  1   force =     0.00000000    0.00000000    0.00000000
     atom   34 type  2   force =    -0.00000964    0.00001242   -0.00954220
     atom   35 type  2   force =     0.00001418    0.00056548   -0.02131309
     atom   36 type  3   force =     0.00005833    0.00029894    0.02458540
     The Hubbard contrib.    to forces
     atom    1 type  1   force =     0.00000000    0.00000000    0.00000000
     atom    2 type  2   force =     0.00000000    0.00000000    0.00000000
     atom    3 type  2   force =     0.00000000    0.00000000    0.00000000
     atom    4 type  1   force =     0.00000000    0.00000000    0.00000000
     atom    5 type  2   force =     0.00000000    0.00000000    0.00000000
     atom    6 type  2   force =     0.00000000    0.00000000    0.00000000
     atom    7 type  1   force =     0.00000000    0.00000000    0.00000000
     atom    8 type  2   force =     0.00000000    0.00000000    0.00000000
     atom    9 type  2   force =     0.00000000    0.00000000    0.00000000
     atom   10 type  1   force =     0.00000000    0.00000000    0.00000000
     atom   11 type  2   force =     0.00000000    0.00000000    0.00000000
     atom   12 type  2   force =     0.00000000    0.00000000    0.00000000
     atom   13 type  1   force =     0.00000000    0.00000000    0.00000000
     atom   14 type  2   force =     0.00000000    0.00000000    0.00000000
     atom   15 type  2   force =     0.00000000    0.00000000    0.00000000
     atom   16 type  1   force =     0.00000000    0.00000000    0.00000000
     atom   17 type  2   force =     0.00000000    0.00000000    0.00000000
     atom   18 type  2   force =     0.00000000    0.00000000    0.00000000
     atom   19 type  1   force =     0.00000000    0.00000000    0.00000000
     atom   20 type  2   force =     0.00000000    0.00000000    0.00000000
     atom   21 type  1   force =     0.00000000    0.00000000    0.00000000
     atom   22 type  2   force =     0.00000000    0.00000000    0.00000000
     atom   23 type  2   force =     0.00000000    0.00000000    0.00000000
     atom   24 type  1   force =     0.00000000    0.00000000    0.00000000
     atom   25 type  2   force =     0.00000000    0.00000000    0.00000000
     atom   26 type  2   force =     0.00000000    0.00000000    0.00000000
     atom   27 type  1   force =     0.00000000    0.00000000    0.00000000
     atom   28 type  2   force =     0.00000000    0.00000000    0.00000000
     atom   29 type  2   force =     0.00000000    0.00000000    0.00000000
     atom   30 type  1   force =     0.00000000    0.00000000    0.00000000
     atom   31 type  2   force =     0.00000000    0.00000000    0.00000000
     atom   32 type  2   force =     0.00000000    0.00000000    0.00000000
     atom   33 type  1   force =     0.00000000    0.00000000    0.00000000
     atom   34 type  2   force =     0.00000000    0.00000000    0.00000000
     atom   35 type  2   force =     0.00000000    0.00000000    0.00000000
     atom   36 type  3   force =     0.00000000    0.00000000    0.00000000
     The SCF correction term to forces
     atom    1 type  1   force =     0.00000446    0.00000606   -0.00006158
     atom    2 type  2   force =     0.00000806    0.00000154   -0.00001368
     atom    3 type  2   force =    -0.00000574   -0.00000147   -0.00002009
     atom    4 type  1   force =    -0.00001725   -0.00003511   -0.00004558
     atom    5 type  2   force =    -0.00000606    0.00000043   -0.00001559
     atom    6 type  2   force =     0.00000132   -0.00000570   -0.00001373
     atom    7 type  1   force =    -0.00002884   -0.00000632   -0.00004723
     atom    8 type  2   force =    -0.00001169   -0.00001767   -0.00001429
     atom    9 type  2   force =    -0.00002022   -0.00001263   -0.00002032
     atom   10 type  1   force =     0.00001623    0.00002516   -0.00005841
     atom   11 type  2   force =    -0.00000682    0.00000350   -0.00002446
     atom   12 type  2   force =    -0.00000192    0.00000853   -0.00001883
     atom   13 type  1   force =    -0.00000338    0.00000691   -0.00005202
     atom   14 type  2   force =    -0.00001448    0.00000700   -0.00001552
     atom   15 type  2   force =    -0.00000895    0.00000461   -0.00002382
     atom   16 type  1   force =    -0.00001565   -0.00002203   -0.00002551
     atom   17 type  2   force =    -0.00000272   -0.00000361   -0.00001368
     atom   18 type  2   force =     0.00000071   -0.00001065   -0.00000495
     atom   19 type  1   force =     0.00001953   -0.00000602   -0.00003210
     atom   20 type  2   force =    -0.00000025   -0.00000381   -0.00000805
     atom   21 type  1   force =    -0.00000449    0.00002271   -0.00006039
     atom   22 type  2   force =    -0.00000105   -0.00000037   -0.00001683
     atom   23 type  2   force =     0.00000528    0.00000372   -0.00001575
     atom   24 type  1   force =     0.00001766    0.00000133   -0.00003433
     atom   25 type  2   force =     0.00000292    0.00000604   -0.00001141
     atom   26 type  2   force =     0.00000766    0.00000729   -0.00001083
     atom   27 type  1   force =     0.00002135   -0.00003677   -0.00002477
     atom   28 type  2   force =     0.00001024   -0.00000595   -0.00001495
     atom   29 type  2   force =     0.00000197   -0.00000910   -0.00000796
     atom   30 type  1   force =     0.00000620    0.00000904   -0.00001727
     atom   31 type  2   force =     0.00002285   -0.00001974   -0.00001003
     atom   32 type  2   force =     0.00002177   -0.00001378   -0.00001328
     atom   33 type  1   force =    -0.00000603    0.00002732   -0.00003034
     atom   34 type  2   force =     0.00001008    0.00002877   -0.00003102
     atom   35 type  2   force =     0.00000034    0.00002444   -0.00001771
     atom   36 type  3   force =     0.00001507    0.00005401   -0.00001939

     Total force =     0.006952     Total SCF correction =     0.000214
     Energy error            =      9.4E-05 Ry
     Gradient error          =      3.6E-03 Ry/Bohr

     bfgs converged in  21 scf cycles and  20 bfgs steps
     (criteria: energy <  1.0E-04 Ry, force <  1.0E-02 Ry/Bohr)

     End of BFGS Geometry Optimization

     Final energy             =   -2246.4497000126 Ry

     File ./MoS2-V-O.bfgs deleted, as requested
Begin final coordinates

ATOMIC_POSITIONS (angstrom)
Mo            6.5573746421        1.7749613882        2.7439334153
S             8.1187043012        0.8699347764        4.3622551556
S             8.1368246559        0.8785276844        1.1504465155
Mo            8.1106495521        4.5182833401        2.7259457846
S             6.5165873631        3.6690972923        4.3129352316
S             6.5466412261        3.5908262141        1.1162040467
Mo            6.5144869942        7.2064350037        2.6803772149
S             8.0732375712        6.3237026838        4.3249447375
S             8.1244130602        6.3357023676        1.1180366753
Mo            8.1091653700        9.9738539700        2.7464275662
S             6.5183040809        8.9825573267        4.3177888513
S             6.5731186697        9.0347858856        1.1115405941
Mo            3.4170810612        1.7772935788        2.7493027724
S             4.9884814594        0.8314227894        4.3304144780
S             4.9833159914        0.8593163626        1.1545248793
Mo            4.9897586769        4.5541078245        2.6715981321
S             3.4673954538        3.6723962366        4.3207912216
S             3.4286375213        3.5925554389        1.1224750804
Mo            3.4628459712        7.2055510806        2.6881533356
S             4.9860050355        6.3336763597        1.0667641846
Mo            4.9873902514        9.9204784533        2.7184979554
S             3.4555533668        8.9866881496        4.3209875983
S             3.4012439734        9.0328563497        1.1181902728
Mo            0.2578593626        1.7622602551        2.7646731008
S             1.8533530375        0.8714227111        4.3643396099
S             1.8376269662        0.8786806917        1.1551721076
Mo            1.8676269453        4.5176568333        2.7360361476
S             0.2563560495        3.6212986823        4.3260823925
S             0.2638766813        3.5925015563        1.1632519767
Mo            0.2601715227        7.2019434819        2.7446910687
S             1.8998962671        6.3265841564        4.3323576384
S             1.8564141562        6.3311310076        1.1264091752
Mo            1.8665843248        9.9753118495        2.7489554854
S             0.2606048357        9.0567750503        4.2675571347
S             0.2612202007        9.0554104310        1.1876795886
O             0.2635404133        9.0795369252        5.7650204117
End final coordinates



     Writing all to output data dir ./MoS2-V-O.save/
 
     init_run     :      7.63s CPU      9.29s WALL (       1 calls)
     electrons    :   1937.97s CPU   2283.82s WALL (      21 calls)
     update_pot   :     62.32s CPU     67.99s WALL (      20 calls)
     forces       :     62.34s CPU     79.46s WALL (      21 calls)

     Called by init_run:
     wfcinit      :      0.98s CPU      1.09s WALL (       1 calls)
     potinit      :      3.97s CPU      4.81s WALL (       1 calls)
     hinit0       :      0.51s CPU      0.55s WALL (       1 calls)

     Called by electrons:
     c_bands      :    284.48s CPU    291.19s WALL (     199 calls)
     sum_band     :    130.66s CPU    217.11s WALL (     199 calls)
     v_of_rho     :    219.49s CPU    294.89s WALL (     212 calls)
     newd         :    101.17s CPU    153.06s WALL (     212 calls)
     PAW_pot      :      8.41s CPU      8.44s WALL (     232 calls)
     mix_rho      :   1220.34s CPU   1352.82s WALL (     199 calls)

     Called by c_bands:
     init_us_2    :      4.57s CPU      4.91s WALL (     419 calls)
     init_us_2:cp :      4.57s CPU      4.91s WALL (     419 calls)
     regterg      :    269.42s CPU    275.77s WALL (     199 calls)

     Called by *egterg:
     rdiaghg      :     18.57s CPU     18.76s WALL (    1066 calls)
     h_psi        :    175.28s CPU    176.78s WALL (    1095 calls)
     s_psi        :     16.68s CPU     16.73s WALL (    1095 calls)
     g_psi        :      0.83s CPU      0.84s WALL (     895 calls)

     Called by h_psi:
     h_psi:calbec :     20.00s CPU     20.12s WALL (    1095 calls)
     vloc_psi     :    136.57s CPU    137.81s WALL (    1095 calls)
     add_vuspsi   :     16.53s CPU     16.65s WALL (    1095 calls)

     General routines
     calbec       :     29.13s CPU     29.31s WALL (    1398 calls)
     fft          :    155.21s CPU    175.69s WALL (   14157 calls)
     ffts         :    549.73s CPU    677.33s WALL (  297789 calls)
     fftw         :     86.52s CPU     87.25s WALL (  119420 calls)
     interpolate  :      2.71s CPU      3.08s WALL (     212 calls)
 
     Parallel routines
 
     PWSCF        :  34m42.23s CPU  40m59.38s WALL

 
   This run was terminated on:  11:19:22   2Nov2023            

=------------------------------------------------------------------------------=
   JOB DONE.
=------------------------------------------------------------------------------=
