
     Program PWSCF v.7.2 starts on  1Nov2023 at 21: 4:46 

     This program is part of the open-source Quantum ESPRESSO suite
     for quantum simulation of materials; please cite
         "P. Giannozzi et al., J. Phys.:Condens. Matter 21 395502 (2009);
         "P. Giannozzi et al., J. Phys.:Condens. Matter 29 465901 (2017);
         "P. Giannozzi et al., J. Chem. Phys. 152 154105 (2020);
          URL http://www.quantum-espresso.org", 
     in publications or presentations arising from this work. More details at
     http://www.quantum-espresso.org/quote

     Parallel version (MPI & OpenMP), running on      48 processor cores
     Number of MPI processes:                48
     Threads/MPI process:                     1

     MPI processes distributed on     1 nodes
     19411 MiB available memory on the printing compute node when the environment starts
 
     Waiting for input...
     Reading input from standard input
Warning: card &CELL ignored
Warning: card CELL_DYNAMICS = 'BFGS', ignored
Warning: card CELL_DOFREE = '2DXY' ignored
Warning: card / ignored

     Current dimensions of program PWSCF are:
     Max number of different atomic species (ntypx) = 10
     Max number of k-points (npk) =  40000
     Max angular momentum in pseudopotentials (lmaxx) =  4
     file O.pbe-n-kjpaw_psl.0.1.UPF: wavefunction(s)  2P renormalized

     IMPORTANT: XC functional enforced from input :
     Exchange-correlation= RVV10
                           (   1   4  13   4  26   0   0)
     Any further DFT definition will be discarded
     Please, verify this is what you really want


     gamma-point specific algorithms are used
     signal trapping enabled: kill the code with -SIGUSR1 to stop cleanly the simulation 
 
     R & G space division:  proc/nbgrp/npool/nimage =      48
     Subspace diagonalization in iterative solution of the eigenvalue problem:
     one sub-group per band group will be used
     scalapack distributed-memory algorithm (size of sub-group:  2*  2 procs)

 
     Parallelization info
     --------------------
     sticks:   dense  smooth     PW     G-vecs:    dense   smooth      PW
     Min         396     194     47               101632    35090    4376
     Max         398     196     50               101674    35128    4410
     Sum       19091    9389   2349              4879585  1685513  210763
 
     Using Slab Decomposition
 


     bravais-lattice index     =            0
     lattice parameter (alat)  =      17.8707  a.u.
     unit-cell volume          =   17436.2743 (a.u.)^3
     number of atoms/cell      =           36
     number of atomic types    =            3
     number of electrons       =       312.00
     number of Kohn-Sham states=          187
     kinetic-energy cutoff     =      80.0000  Ry
     charge density cutoff     =     650.0000  Ry
     scf convergence threshold =      1.0E-06
     mixing beta               =       0.7000
     number of iterations used =            8  local-TF  mixing
     energy convergence thresh.=      1.0E-04
     force convergence thresh. =      1.0E-02
     Exchange-correlation= RVV10
                           (   1   4  13   4  26   0   0)
     nstep                     =          200


     celldm(1)=  17.870686  celldm(2)=   0.000000  celldm(3)=   0.000000
     celldm(4)=   0.000000  celldm(5)=   0.000000  celldm(6)=   0.000000

     crystal axes: (cart. coord. in units of alat)
               a(1) = (   1.000000   0.000000   0.000000 )  
               a(2) = (   0.000000   1.155671   0.000000 )  
               a(3) = (   0.000000   0.000000   2.643601 )  

     reciprocal axes: (cart. coord. in units 2 pi/alat)
               b(1) = (  1.000000  0.000000  0.000000 )  
               b(2) = (  0.000000  0.865298  0.000000 )  
               b(3) = (  0.000000  0.000000  0.378272 )  


     PseudoPot. # 1 for Mo read from file:
     ../pseudo/Mo_ONCV_PBE-1.0.oncvpsp.upf
     MD5 check sum: 1b5d28e075c9ccadda658a603575cd1f
     Pseudo is Norm-conserving, Zval = 14.0
     Generated using ONCVPSP code by D. R. Hamann
     Using radial grid of 1526 points,  6 beta functions with: 
                l(1) =   0
                l(2) =   0
                l(3) =   1
                l(4) =   1
                l(5) =   2
                l(6) =   2

     PseudoPot. # 2 for S  read from file:
     ../pseudo/s_pbe_v1.4.uspp.F.UPF
     MD5 check sum: 88d86576ff6df21479756cfb9bdac1df
     Pseudo is Ultrasoft + core correction, Zval =  6.0
     Generated by new atomic code, or converted to UPF format
     Using radial grid of  907 points,  6 beta functions with: 
                l(1) =   0
                l(2) =   0
                l(3) =   1
                l(4) =   1
                l(5) =   2
                l(6) =   2
     Q(r) pseudized with  8 coefficients,  rinner =    1.300   1.300   1.300
                                                       1.300   1.300

     PseudoPot. # 3 for O  read from file:
     ../pseudo/O.pbe-n-kjpaw_psl.0.1.UPF
     MD5 check sum: 0234752ac141de4415c5fc33072bef88
     Pseudo is Projector augmented-wave + core cor, Zval =  6.0
     Generated using "atomic" code by A. Dal Corso  v.5.0.99 svn rev. 10869
     Shape of augmentation charge: BESSEL
     Using radial grid of 1095 points,  4 beta functions with: 
                l(1) =   0
                l(2) =   0
                l(3) =   1
                l(4) =   1
     Q(r) pseudized with 0 coefficients 


     atomic species   valence    mass     pseudopotential
        Mo            14.00    95.94000     Mo( 1.00)
        S              6.00    32.06500     S ( 1.00)
        O              6.00    15.99940     O ( 1.00)

     No symmetry found



   Cartesian axes

     site n.     atom                  positions (alat units)
         1           Mo  tau(   1) = (   0.6952221   0.1890506   0.2985846  )
         2           S   tau(   2) = (   0.8646417   0.0856217   0.4689279  )
         3           S   tau(   3) = (   0.8663890   0.0857843   0.1351291  )
         4           Mo  tau(   4) = (   0.8560186   0.4753274   0.2873942  )
         5           S   tau(   5) = (   0.6873294   0.3936244   0.4596353  )
         6           S   tau(   6) = (   0.6929804   0.3713468   0.1185692  )
         7           Mo  tau(   7) = (   0.6862796   0.7633098   0.2825370  )
         8           S   tau(   8) = (   0.8545980   0.6708292   0.4486168  )
         9           S   tau(   9) = (   0.8545123   0.6666874   0.1146125  )
        10           Mo  tau(  10) = (   0.8629403   1.0471007   0.3006803  )
        11           S   tau(  11) = (   0.6868280   0.9456650   0.4634891  )
        12           S   tau(  12) = (   0.6998113   0.9568511   0.1205389  )
        13           Mo  tau(  13) = (   0.3618216   0.1847309   0.2935964  )
        14           S   tau(  14) = (   0.5260962   0.0863870   0.4600448  )
        15           S   tau(  15) = (   0.5348379   0.0894875   0.1297123  )
        16           Mo  tau(  16) = (   0.5265817   0.4772436   0.2784130  )
        17           S   tau(  17) = (   0.3624753   0.3882513   0.4525556  )
        18           S   tau(  18) = (   0.3635411   0.3752055   0.1119148  )
        19           Mo  tau(  19) = (   0.3652268   0.7630864   0.2781795  )
        20           S   tau(  20) = (   0.5269494   0.6690381   0.1096838  )
        21           Mo  tau(  21) = (   0.5300192   1.0470394   0.2900995  )
        22           S   tau(  22) = (   0.3670346   0.9457522   0.4574073  )
        23           S   tau(  23) = (   0.3604225   0.9585725   0.1159032  )
        24           Mo  tau(  24) = (   0.0313099   0.1847895   0.3013130  )
        25           S   tau(  25) = (   0.1956761   0.0838230   0.4650863  )
        26           S   tau(  26) = (   0.1967693   0.0903508   0.1278874  )
        27           Mo  tau(  27) = (   0.1967578   0.4753919   0.2813011  )
        28           S   tau(  28) = (   0.0287851   0.3864324   0.4586755  )
        29           S   tau(  29) = (   0.0244514   0.3729871   0.1239344  )
        30           Mo  tau(  30) = (   0.0286728   0.7631204   0.2856894  )
        31           S   tau(  31) = (   0.2011512   0.6675435   0.4465001  )
        32           S   tau(  32) = (   0.1969214   0.6672839   0.1104564  )
        33           Mo  tau(  33) = (   0.1950294   1.0511147   0.2932237  )
        34           S   tau(  34) = (   0.0312912   0.9612169   0.4667423  )
        35           S   tau(  35) = (   0.0292670   0.9563028   0.1216485  )
        36           O   tau(  36) = (   0.7777778   0.8988550   0.5656742  )

     number of k points=     1  Gaussian smearing, width (Ry)=  0.0100
                       cart. coord. in units 2pi/alat
        k(    1) = (   0.0000000   0.0000000   0.0000000), wk =   2.0000000

     Dense  grid:  2439793 G-vectors     FFT dimensions: ( 150, 180, 384)

     Smooth grid:   842757 G-vectors     FFT dimensions: ( 108, 120, 270)

     Estimated max dynamical RAM per process >     269.22 MB

     Estimated total dynamical RAM >      12.62 GB

     Initial potential from superposition of free atoms

     starting charge     311.9873, renormalised to     312.0000

     negative rho (up, down):  2.759E-04 0.000E+00


---------------------------------------------------------------------------------
Carrying out rVV10 run using the following parameters:
Nqs =      20    Nr_points =    1024   r_max =   100.000
b_value =  6.30000    beta =  0.00901
     q_mesh =  0.00010000  0.00030000  0.00058939  0.00100810
               0.00161396  0.00249058  0.00375900  0.00559430
               0.00824984  0.01209221  0.01765183  0.02569619
               0.03733578  0.05417739  0.07854596  0.11380545
               0.16482331  0.23864234  0.34545298  0.50000000

Gradients computed in Reciprocal space

---------------------------------------------------------------------------------


     Starting wfcs are  216 randomized atomic wfcs
     Checking if some PAW data can be deallocated... 

     total cpu time spent up to now is        5.3 secs

     Self-consistent Calculation

     iteration #  1     ecut=    80.00 Ry     beta= 0.70
     Davidson diagonalization with overlap
     ethr =  1.00E-02,  avg # of iterations =  2.0

     Threshold (ethr) on eigenvalues was too large:
     Diagonalizing with lowered threshold

     Davidson diagonalization with overlap
     ethr =  4.60E-04,  avg # of iterations =  4.0

     negative rho (up, down):  3.867E-08 0.000E+00

     total cpu time spent up to now is       20.3 secs

     total energy              =   -2246.21568351 Ry
     estimated scf accuracy    <       1.67893801 Ry

     iteration #  2     ecut=    80.00 Ry     beta= 0.70
     Davidson diagonalization with overlap
     ethr =  5.38E-04,  avg # of iterations =  3.0

     total cpu time spent up to now is       25.4 secs

     total energy              =   -2246.20968688 Ry
     estimated scf accuracy    <       0.57372113 Ry

     iteration #  3     ecut=    80.00 Ry     beta= 0.70
     Davidson diagonalization with overlap
     ethr =  1.84E-04,  avg # of iterations =  2.0

     total cpu time spent up to now is       29.9 secs

     total energy              =   -2246.21791177 Ry
     estimated scf accuracy    <       0.12823127 Ry

     iteration #  4     ecut=    80.00 Ry     beta= 0.70
     Davidson diagonalization with overlap
     c_bands:  1 eigenvalues not converged
     ethr =  4.11E-05,  avg # of iterations = 20.0

     total cpu time spent up to now is       35.4 secs

     total energy              =   -2246.23951266 Ry
     estimated scf accuracy    <       0.02494318 Ry

     iteration #  5     ecut=    80.00 Ry     beta= 0.70
     Davidson diagonalization with overlap
     ethr =  7.99E-06,  avg # of iterations = 17.0

     total cpu time spent up to now is       40.2 secs

     total energy              =   -2246.23884195 Ry
     estimated scf accuracy    <       0.01554586 Ry

     iteration #  6     ecut=    80.00 Ry     beta= 0.70
     Davidson diagonalization with overlap
     ethr =  4.98E-06,  avg # of iterations =  1.0

     total cpu time spent up to now is       44.3 secs

     total energy              =   -2246.23788250 Ry
     estimated scf accuracy    <       0.00998804 Ry

     iteration #  7     ecut=    80.00 Ry     beta= 0.70
     Davidson diagonalization with overlap
     ethr =  3.20E-06,  avg # of iterations =  2.0

     negative rho (up, down):  9.590E-06 0.000E+00

     total cpu time spent up to now is       50.4 secs

     total energy              =   -2246.23678697 Ry
     estimated scf accuracy    <       0.00594708 Ry

     iteration #  8     ecut=    80.00 Ry     beta= 0.70
     Davidson diagonalization with overlap
     ethr =  1.91E-06,  avg # of iterations =  2.0

     negative rho (up, down):  1.307E-02 0.000E+00

     total cpu time spent up to now is       56.9 secs

     total energy              =   -2246.23616120 Ry
     estimated scf accuracy    <       0.00331694 Ry

     iteration #  9     ecut=    80.00 Ry     beta= 0.70
     Davidson diagonalization with overlap
     ethr =  1.06E-06,  avg # of iterations =  2.0

     negative rho (up, down):  2.685E-02 0.000E+00

     total cpu time spent up to now is       62.7 secs

     total energy              =   -2246.23599592 Ry
     estimated scf accuracy    <       0.00178696 Ry

     iteration # 10     ecut=    80.00 Ry     beta= 0.70
     Davidson diagonalization with overlap
     ethr =  5.73E-07,  avg # of iterations =  2.0

     negative rho (up, down):  2.379E-02 0.000E+00

     total cpu time spent up to now is       68.7 secs

     total energy              =   -2246.23601914 Ry
     estimated scf accuracy    <       0.00070638 Ry

     iteration # 11     ecut=    80.00 Ry     beta= 0.70
     Davidson diagonalization with overlap
     ethr =  2.26E-07,  avg # of iterations =  2.0

     negative rho (up, down):  1.251E-02 0.000E+00

     total cpu time spent up to now is       77.1 secs

     total energy              =   -2246.23600086 Ry
     estimated scf accuracy    <       0.00011150 Ry

     iteration # 12     ecut=    80.00 Ry     beta= 0.70
     Davidson diagonalization with overlap
     ethr =  3.57E-08,  avg # of iterations =  8.0

     negative rho (up, down):  4.597E-03 0.000E+00

     total cpu time spent up to now is       88.8 secs

     total energy              =   -2246.23605185 Ry
     estimated scf accuracy    <       0.00004421 Ry

     iteration # 13     ecut=    80.00 Ry     beta= 0.70
     Davidson diagonalization with overlap
     ethr =  1.42E-08,  avg # of iterations =  2.0

     negative rho (up, down):  5.597E-04 0.000E+00

     total cpu time spent up to now is       99.8 secs

     total energy              =   -2246.23606736 Ry
     estimated scf accuracy    <       0.00000859 Ry

     iteration # 14     ecut=    80.00 Ry     beta= 0.70
     Davidson diagonalization with overlap
     ethr =  2.75E-09,  avg # of iterations =  2.0

     negative rho (up, down):  2.172E-04 0.000E+00

     total cpu time spent up to now is      104.3 secs

     End of self-consistent calculation

          k = 0.0000 0.0000 0.0000 (105382 PWs)   bands (ev):

   -63.0560 -62.9150 -62.8961 -62.8839 -62.8806 -62.8727 -62.8689 -62.8659
   -62.8177 -62.8137 -62.7018 -62.6747 -37.3380 -37.2997 -37.2370 -37.1979
   -37.1824 -37.1727 -37.1657 -37.1310 -37.1093 -37.0969 -37.0883 -37.0813
   -37.0729 -37.0658 -37.0645 -37.0513 -37.0485 -37.0405 -37.0362 -37.0223
   -36.9980 -36.9866 -36.9811 -36.9701 -36.9602 -36.9443 -36.9272 -36.9112
   -36.9041 -36.8987 -36.8604 -36.8301 -36.8192 -36.8009 -36.7772 -36.6900
   -24.7044 -15.9751 -15.2056 -15.1546 -14.9789 -14.9513 -14.7785 -14.5349
   -14.5145 -14.4786 -14.4522 -14.4038 -14.3667 -14.3363 -14.2664 -14.1603
   -14.1444 -14.1253 -14.0836 -13.9445 -13.8934 -13.8802 -13.8317 -13.4573
    -8.7631  -8.4579  -8.0777  -7.5755  -7.4767  -7.3114  -7.2830  -7.2577
    -7.1602  -7.1262  -7.0707  -6.8388  -6.8190  -6.7383  -6.6664  -6.6290
    -6.5261  -6.4574  -6.3911  -6.3090  -6.1174  -6.0972  -5.9886  -5.9037
    -5.8346  -5.8257  -5.7965  -5.7489  -5.6895  -5.6835  -5.6375  -5.5943
    -5.5598  -5.5339  -5.4604  -5.3452  -5.2841  -5.1695  -5.0609  -5.0452
    -5.0077  -4.9521  -4.9319  -4.8802  -4.7516  -4.6319  -4.4918  -4.3591
    -4.2678  -4.2145  -4.1680  -4.1227  -4.0711  -4.0273  -3.8626  -3.7978
    -3.7903  -3.7214  -3.6550  -3.6347  -3.5761  -3.5268  -3.5015  -3.4742
    -3.4341  -3.3967  -3.3182  -3.2719  -3.1512  -3.0900  -2.9808  -2.8627
    -2.7927  -2.7566  -2.7125  -2.6991  -2.6713  -2.6363  -2.4483  -2.3472
    -2.2170  -2.0373  -1.9621  -1.8926  -1.1191  -0.8439  -0.5105  -0.2314
    -0.1600  -0.1147  -0.0379   0.0130   0.1138   0.1585   0.2061   0.2487
     0.2699   0.3168   0.4132   0.4679   0.5057   0.5352   0.5566   0.6140
     0.6848   0.6929   0.7245   0.7603   0.7756   0.8367   0.9088   0.9322
     0.9413   1.0413   1.2269

     the Fermi energy is    -1.5054 ev

!    total energy              =   -2246.23606895 Ry
     estimated scf accuracy    <       0.00000084 Ry
     smearing contrib. (-TS)   =      -0.00000357 Ry
     internal energy E=F+TS    =   -2246.23606538 Ry

     The total energy is F=E-TS. E is the sum of the following terms:
     one-electron contribution =  -18460.35143987 Ry
     hartree contribution      =    9218.45398326 Ry
     xc contribution           =    -392.32714939 Ry
     ewald contribution        =    7397.83627223 Ry
     one-center paw contrib.   =      -9.84773162 Ry

     convergence has been achieved in  14 iterations

     negative rho (up, down):  2.172E-04 0.000E+00

     Forces acting on atoms (cartesian axes, Ry/au):

     atom    1 type  1   force =     0.01644693   -0.02804646    0.00647540
     atom    2 type  2   force =    -0.01610813    0.01510160    0.00520755
     atom    3 type  2   force =    -0.01141433    0.01087658   -0.00042287
     atom    4 type  1   force =     0.00310386    0.00466982   -0.00293947
     atom    5 type  2   force =    -0.00072141   -0.00594603   -0.00597864
     atom    6 type  2   force =    -0.00025773    0.01042208   -0.00193065
     atom    7 type  1   force =    -0.00589587   -0.02441736   -0.04016052
     atom    8 type  2   force =     0.00157086   -0.01326878    0.01215109
     atom    9 type  2   force =     0.01415745    0.00599492    0.01176736
     atom   10 type  1   force =    -0.01613123    0.03139463   -0.07451702
     atom   11 type  2   force =    -0.14192754    0.05776396   -0.34950891
     atom   12 type  2   force =    -0.00241553    0.00249276    0.00615558
     atom   13 type  1   force =     0.00391276    0.00439952   -0.00523263
     atom   14 type  2   force =     0.00424618    0.00605272    0.01125076
     atom   15 type  2   force =    -0.01353984   -0.00097753   -0.01413357
     atom   16 type  1   force =    -0.00036801    0.01004074    0.00476096
     atom   17 type  2   force =     0.00656584    0.00130231    0.00049425
     atom   18 type  2   force =    -0.00249415   -0.00579852    0.01421001
     atom   19 type  1   force =     0.00697921   -0.01727900   -0.00300604
     atom   20 type  2   force =    -0.00278368   -0.00529676   -0.00118247
     atom   21 type  1   force =    -0.01027461    0.03339326    0.03405965
     atom   22 type  2   force =    -0.01383017   -0.00198542   -0.00880696
     atom   23 type  2   force =    -0.00337048   -0.00027249    0.00612815
     atom   24 type  1   force =    -0.00857984   -0.00311581   -0.02370996
     atom   25 type  2   force =     0.01586921    0.01907654    0.00898706
     atom   26 type  2   force =    -0.01084216   -0.00035825   -0.00446768
     atom   27 type  1   force =    -0.00068779   -0.00020921    0.00800449
     atom   28 type  2   force =     0.00035054   -0.00064656   -0.00426189
     atom   29 type  2   force =     0.00271095    0.00044468   -0.00186529
     atom   30 type  1   force =    -0.00565342    0.01303983   -0.00048088
     atom   31 type  2   force =    -0.00021921    0.00028986    0.01516001
     atom   32 type  2   force =    -0.00607900    0.00758356    0.00621660
     atom   33 type  1   force =     0.01310103   -0.00763695   -0.00992928
     atom   34 type  2   force =     0.01690214   -0.03865698   -0.01754628
     atom   35 type  2   force =    -0.00593626    0.00666391    0.01622753
     atom   36 type  3   force =     0.17361341   -0.08709115    0.40282455
     The non-local contrib.  to forces
     atom    1 type  1   force =     0.00313697    0.02948530   -0.01120013
     atom    2 type  2   force =    -0.01521616   -0.00484332   -0.27217363
     atom    3 type  2   force =    -0.01495333   -0.00053312    0.26923673
     atom    4 type  1   force =     0.00726802    0.00863343    0.00364459
     atom    5 type  2   force =     0.00307912   -0.03453129   -0.25301906
     atom    6 type  2   force =    -0.00406904    0.01006711    0.26295776
     atom    7 type  1   force =    -0.02259518    0.03529455    0.01579359
     atom    8 type  2   force =     0.01843614   -0.00906519   -0.25503858
     atom    9 type  2   force =     0.01046270   -0.01032097    0.27709114
     atom   10 type  1   force =    -0.02762459   -0.00212851    0.01958630
     atom   11 type  2   force =     0.03674503    0.00353061    0.02341107
     atom   12 type  2   force =    -0.01478982   -0.01426474    0.26432710
     atom   13 type  1   force =    -0.00504379    0.02729389   -0.00953726
     atom   14 type  2   force =     0.00956696   -0.01342709   -0.25973425
     atom   15 type  2   force =    -0.01631361   -0.01016081    0.26381278
     atom   16 type  1   force =     0.00013460    0.02588397   -0.03228240
     atom   17 type  2   force =     0.00282622   -0.02835042   -0.24979024
     atom   18 type  2   force =    -0.00424105   -0.00373647    0.27286625
     atom   19 type  1   force =     0.00799752    0.00056561   -0.01390680
     atom   20 type  2   force =    -0.00509324   -0.02313931    0.26529356
     atom   21 type  1   force =     0.00060525   -0.00187278    0.00167596
     atom   22 type  2   force =    -0.00909517    0.00630590   -0.25679537
     atom   23 type  2   force =     0.00571875   -0.01608052    0.26838602
     atom   24 type  1   force =     0.00614015    0.01140767   -0.00490600
     atom   25 type  2   force =     0.00865411    0.00579555   -0.26090846
     atom   26 type  2   force =    -0.00245489   -0.01302936    0.26475857
     atom   27 type  1   force =    -0.00497022    0.00971707    0.00897774
     atom   28 type  2   force =    -0.00511237   -0.02322444   -0.27453384
     atom   29 type  2   force =     0.00644750    0.00150255    0.26480941
     atom   30 type  1   force =    -0.00013591    0.01453689    0.00945347
     atom   31 type  2   force =    -0.00206539    0.00090829   -0.25649595
     atom   32 type  2   force =    -0.00095168   -0.00715741    0.27542335
     atom   33 type  1   force =    -0.01254285    0.00987540    0.00312094
     atom   34 type  2   force =     0.04019724   -0.03151232   -0.27322154
     atom   35 type  2   force =     0.00161102   -0.01346650    0.26637510
     atom   36 type  3   force =    -1.61670671    0.86473674   -1.41999267
     The ionic contribution  to forces
     atom    1 type  1   force =     0.17097024    1.09138375    4.35232407
     atom    2 type  2   force =    -0.32504308    1.72483009   38.79142365
     atom    3 type  2   force =    -0.09229685    0.29186366  -36.81316725
     atom    4 type  1   force =     0.31264292   -0.39259858   -0.78609657
     atom    5 type  2   force =    -1.08519808    1.17776939   38.49412077
     atom    6 type  2   force =     0.31003328   -0.56268222  -38.57713481
     atom    7 type  1   force =    -3.81446871   -4.64969916   -1.93119337
     atom    8 type  2   force =    -0.14841855   -2.50800181   35.96570605
     atom    9 type  2   force =     0.42566402   -0.31831586  -38.90159732
     atom   10 type  1   force =     0.16167269    1.98805390    0.99854640
     atom   11 type  2   force =    -7.25195851    1.86065699   31.48437899
     atom   12 type  2   force =     0.30854098    0.80740290  -39.04272862
     atom   13 type  1   force =     0.29438945    1.39132827    1.87925731
     atom   14 type  2   force =    -0.42032557    0.71550653   38.17485135
     atom   15 type  2   force =     0.03720933    0.14009233  -37.43312094
     atom   16 type  1   force =    -0.43511667    3.28838034   -0.74627802
     atom   17 type  2   force =     0.71904898    1.37439255   37.74432038
     atom   18 type  2   force =    -0.19403452   -0.68520776  -39.03823441
     atom   19 type  1   force =     2.14616730   -2.93336084   -0.95026868
     atom   20 type  2   force =     0.07043870   -0.39560230  -39.21365610
     atom   21 type  1   force =    -1.49516132    1.14525297   -1.42110323
     atom   22 type  2   force =    -0.15137760   -1.57167082   38.01015853
     atom   23 type  2   force =    -0.18821929    0.71800831  -38.98254343
     atom   24 type  1   force =    -0.14006645    1.76369778    4.70590772
     atom   25 type  2   force =     0.84988349    0.67115116   39.04655009
     atom   26 type  2   force =    -0.23478876    0.20769971  -37.87187588
     atom   27 type  1   force =     0.20928515   -0.02977701   -3.27353506
     atom   28 type  2   force =     0.24847572    0.81129180   37.99445199
     atom   29 type  2   force =    -0.19600426   -0.48017294  -37.77738778
     atom   30 type  1   force =     1.19998415   -1.89559126   -2.65520782
     atom   31 type  2   force =     1.52122843   -0.47587671   36.99640970
     atom   32 type  2   force =    -0.41062101   -0.14565340  -39.24330376
     atom   33 type  1   force =     1.35387597   -0.29582815    0.53421804
     atom   34 type  2   force =     2.57324477   -0.81669342   38.27993476
     atom   35 type  2   force =    -0.05587017    0.55596570  -38.72081129
     atom   36 type  3   force =     3.72621382   -3.56799589   49.92668453
     The local contribution  to forces
     atom    1 type  1   force =    -0.15757755   -1.14886361   -4.33539731
     atom    2 type  2   force =     0.32352361   -1.70529924  -38.53538046
     atom    3 type  2   force =     0.09511219   -0.28029276   36.56445645
     atom    4 type  1   force =    -0.31682184    0.38904241    0.77885357
     atom    5 type  2   force =     1.08194922   -1.15101752  -38.26807765
     atom    6 type  2   force =    -0.30663790    0.56414339   38.33319982
     atom    7 type  1   force =     3.83162545    4.58998388    1.87477849
     atom    8 type  2   force =     0.13244670    2.50285466  -35.71977114
     atom    9 type  2   force =    -0.42161221    0.33407463   38.65742688
     atom   10 type  1   force =    -0.15014456   -1.95494404   -1.09293563
     atom   11 type  2   force =     7.07427836   -1.80561238  -31.86518105
     atom   12 type  2   force =    -0.29741464   -0.79200411   38.80563905
     atom   13 type  1   force =    -0.28524022   -1.41416764   -1.87579259
     atom   14 type  2   force =     0.41568943   -0.69651334  -37.92493220
     atom   15 type  2   force =    -0.03526161   -0.13149566   37.17596739
     atom   16 type  1   force =     0.43480838   -3.30412150    0.78253113
     atom   17 type  2   force =    -0.71522747   -1.34618703  -37.51488961
     atom   18 type  2   force =     0.19575889    0.68371749   38.80060421
     atom   19 type  1   force =    -2.14737090    2.91562678    0.96049404
     atom   20 type  2   force =    -0.06856095    0.41250551   38.96833639
     atom   21 type  1   force =     1.48438530   -1.11023078    1.45296686
     atom   22 type  2   force =     0.14664374    1.56389184  -37.78316664
     atom   23 type  2   force =     0.17960427   -0.70368392   38.74133015
     atom   24 type  1   force =     0.12507675   -1.77819133   -4.72539767
     atom   25 type  2   force =    -0.84267830   -0.65748074  -38.79796972
     atom   26 type  2   force =     0.22659600   -0.19572462   37.62366040
     atom   27 type  1   force =    -0.20519561    0.02021261    3.27176008
     atom   28 type  2   force =    -0.24344030   -0.79034500  -37.74572406
     atom   29 type  2   force =     0.19278565    0.47983273   37.53138259
     atom   30 type  1   force =    -1.20576102    1.89413316    2.64480249
     atom   31 type  2   force =    -1.51968934    0.47533914  -36.74603260
     atom   32 type  2   force =     0.40569564    0.16000468   38.99533691
     atom   33 type  1   force =    -1.32834919    0.27778672   -0.54783387
     atom   34 type  2   force =    -2.59479132    0.80856860  -38.04615583
     atom   35 type  2   force =     0.04863337   -0.53711494   38.49170417
     atom   36 type  3   force =    -1.95136766    2.62456224  -48.11657660
     The core correction contribution to forces
     atom    1 type  1   force =     0.00000000    0.00000000    0.00000000
     atom    2 type  2   force =     0.00059263    0.00025818    0.02078633
     atom    3 type  2   force =     0.00069061   -0.00014460   -0.02081322
     atom    4 type  1   force =     0.00000000    0.00000000    0.00000000
     atom    5 type  2   force =    -0.00044018    0.00194253    0.02038805
     atom    6 type  2   force =     0.00042955   -0.00101421   -0.02086778
     atom    7 type  1   force =     0.00000000    0.00000000    0.00000000
     atom    8 type  2   force =    -0.00086731    0.00113355    0.02074132
     atom    9 type  2   force =    -0.00034569    0.00059559   -0.02098233
     atom   10 type  1   force =     0.00000000    0.00000000    0.00000000
     atom   11 type  2   force =    -0.00083333   -0.00094459    0.00755584
     atom   12 type  2   force =     0.00130372    0.00118972   -0.02096465
     atom   13 type  1   force =     0.00000000    0.00000000    0.00000000
     atom   14 type  2   force =    -0.00053791    0.00039657    0.02043944
     atom   15 type  2   force =     0.00088741    0.00062725   -0.02069401
     atom   16 type  1   force =     0.00000000    0.00000000    0.00000000
     atom   17 type  2   force =    -0.00006326    0.00153424    0.02025481
     atom   18 type  2   force =     0.00006816   -0.00046113   -0.02101483
     atom   19 type  1   force =     0.00000000    0.00000000    0.00000000
     atom   20 type  2   force =     0.00047165    0.00095365   -0.02113758
     atom   21 type  1   force =     0.00000000    0.00000000    0.00000000
     atom   22 type  2   force =    -0.00000032   -0.00063930    0.02041263
     atom   23 type  2   force =    -0.00050466    0.00132035   -0.02092585
     atom   24 type  1   force =     0.00000000    0.00000000    0.00000000
     atom   25 type  2   force =    -0.00011116   -0.00049005    0.02073294
     atom   26 type  2   force =    -0.00021608    0.00069113   -0.02094035
     atom   27 type  1   force =     0.00000000    0.00000000    0.00000000
     atom   28 type  2   force =     0.00030322    0.00175813    0.02097350
     atom   29 type  2   force =    -0.00057660   -0.00058788   -0.02062668
     atom   30 type  1   force =     0.00000000    0.00000000    0.00000000
     atom   31 type  2   force =     0.00013635    0.00007192    0.02066811
     atom   32 type  2   force =    -0.00025676    0.00045852   -0.02112391
     atom   33 type  1   force =     0.00000000    0.00000000    0.00000000
     atom   34 type  2   force =    -0.00194399    0.00079929    0.02139533
     atom   35 type  2   force =    -0.00033588    0.00108371   -0.02087109
     atom   36 type  3   force =     0.01558253   -0.00845495    0.01223624
     The Hubbard contrib.    to forces
     atom    1 type  1   force =     0.00000000    0.00000000    0.00000000
     atom    2 type  2   force =     0.00000000    0.00000000    0.00000000
     atom    3 type  2   force =     0.00000000    0.00000000    0.00000000
     atom    4 type  1   force =     0.00000000    0.00000000    0.00000000
     atom    5 type  2   force =     0.00000000    0.00000000    0.00000000
     atom    6 type  2   force =     0.00000000    0.00000000    0.00000000
     atom    7 type  1   force =     0.00000000    0.00000000    0.00000000
     atom    8 type  2   force =     0.00000000    0.00000000    0.00000000
     atom    9 type  2   force =     0.00000000    0.00000000    0.00000000
     atom   10 type  1   force =     0.00000000    0.00000000    0.00000000
     atom   11 type  2   force =     0.00000000    0.00000000    0.00000000
     atom   12 type  2   force =     0.00000000    0.00000000    0.00000000
     atom   13 type  1   force =     0.00000000    0.00000000    0.00000000
     atom   14 type  2   force =     0.00000000    0.00000000    0.00000000
     atom   15 type  2   force =     0.00000000    0.00000000    0.00000000
     atom   16 type  1   force =     0.00000000    0.00000000    0.00000000
     atom   17 type  2   force =     0.00000000    0.00000000    0.00000000
     atom   18 type  2   force =     0.00000000    0.00000000    0.00000000
     atom   19 type  1   force =     0.00000000    0.00000000    0.00000000
     atom   20 type  2   force =     0.00000000    0.00000000    0.00000000
     atom   21 type  1   force =     0.00000000    0.00000000    0.00000000
     atom   22 type  2   force =     0.00000000    0.00000000    0.00000000
     atom   23 type  2   force =     0.00000000    0.00000000    0.00000000
     atom   24 type  1   force =     0.00000000    0.00000000    0.00000000
     atom   25 type  2   force =     0.00000000    0.00000000    0.00000000
     atom   26 type  2   force =     0.00000000    0.00000000    0.00000000
     atom   27 type  1   force =     0.00000000    0.00000000    0.00000000
     atom   28 type  2   force =     0.00000000    0.00000000    0.00000000
     atom   29 type  2   force =     0.00000000    0.00000000    0.00000000
     atom   30 type  1   force =     0.00000000    0.00000000    0.00000000
     atom   31 type  2   force =     0.00000000    0.00000000    0.00000000
     atom   32 type  2   force =     0.00000000    0.00000000    0.00000000
     atom   33 type  1   force =     0.00000000    0.00000000    0.00000000
     atom   34 type  2   force =     0.00000000    0.00000000    0.00000000
     atom   35 type  2   force =     0.00000000    0.00000000    0.00000000
     atom   36 type  3   force =     0.00000000    0.00000000    0.00000000
     The SCF correction term to forces
     atom    1 type  1   force =    -0.00008353   -0.00005265    0.00074042
     atom    2 type  2   force =     0.00003407    0.00015516    0.00054331
     atom    3 type  2   force =     0.00003226   -0.00001734   -0.00014393
     atom    4 type  1   force =     0.00001398   -0.00040818    0.00065059
     atom    5 type  2   force =    -0.00011228   -0.00010989    0.00060089
     atom    6 type  2   force =    -0.00001442   -0.00009272   -0.00009399
     atom    7 type  1   force =    -0.00045823    0.00000262    0.00045241
     atom    8 type  2   force =    -0.00002690   -0.00019073    0.00050509
     atom    9 type  2   force =    -0.00001217   -0.00003922   -0.00017936
     atom   10 type  1   force =    -0.00003557    0.00041253    0.00027755
     atom   11 type  2   force =    -0.00015988    0.00013259    0.00031788
     atom   12 type  2   force =    -0.00005656    0.00016825   -0.00012566
     atom   13 type  1   force =    -0.00019347   -0.00005574    0.00083156
     atom   14 type  2   force =    -0.00014752    0.00008932    0.00061807
     atom   15 type  2   force =    -0.00006215   -0.00004138   -0.00010715
     atom   16 type  1   force =    -0.00019511   -0.00010281    0.00078190
     atom   17 type  2   force =    -0.00001942   -0.00008777    0.00059056
     atom   18 type  2   force =    -0.00004642   -0.00011139   -0.00001957
     atom   19 type  1   force =     0.00018450   -0.00011129    0.00066704
     atom   20 type  2   force =    -0.00004063   -0.00001505   -0.00002709
     atom   21 type  1   force =    -0.00010464    0.00024310    0.00051171
     atom   22 type  2   force =    -0.00000161    0.00012622    0.00057553
     atom   23 type  2   force =     0.00002965    0.00016255   -0.00012709
     atom   24 type  1   force =     0.00026892   -0.00003068    0.00067764
     atom   25 type  2   force =     0.00012027    0.00009989    0.00057387
     atom   26 type  2   force =     0.00002079    0.00000415   -0.00007877
     atom   27 type  1   force =     0.00019210   -0.00036261    0.00079338
     atom   28 type  2   force =     0.00012346   -0.00012778    0.00056217
     atom   29 type  2   force =     0.00005787   -0.00013051   -0.00005119
     atom   30 type  1   force =     0.00025857   -0.00003970    0.00046263
     atom   31 type  2   force =     0.00016995   -0.00015352    0.00060239
     atom   32 type  2   force =     0.00005401   -0.00006956   -0.00012435
     atom   33 type  1   force =     0.00011631    0.00052834    0.00055726
     atom   34 type  2   force =     0.00019466    0.00018014    0.00049264
     atom   35 type  2   force =     0.00002462    0.00019521   -0.00017771
     atom   36 type  3   force =    -0.00010936    0.00005998    0.00046470

     Total force =     0.605428     Total SCF correction =     0.003238

     BFGS Geometry Optimization
     Energy error            =      0.0E+00 Ry
     Gradient error          =      4.0E-01 Ry/Bohr

     number of scf cycles    =   1
     number of bfgs steps    =   0

     energy             new  =   -2246.2360689454 Ry

     new trust radius        =       0.4472069996 bohr
     new conv_thr            =       0.0000010000 Ry


ATOMIC_POSITIONS (angstrom)
Mo            6.5832517516        1.7729646804        2.8270696672
S             8.1681852828        0.8176954449        4.4372940695
S             8.1871928832        0.8169973830        1.2776596533
Mo            8.0968050584        4.4975281050        2.7162628950
S             6.4995275005        3.7192649853        4.3434968888
S             6.5532134121        3.5172526829        1.1202585731
Mo            6.4868617374        7.2055161715        2.6506324514
S             8.0825589924        6.3368494564        4.2488916434
S             8.0884094452        6.3078746902        1.0900900182
Mo            8.1520827677        9.9187937343        2.8040290499
S             6.4200627779        8.9734941844        4.1981533825
S             6.6166689572        9.0500303228        1.1431646952
Mo            3.4237302058        1.7492839741        2.7737021760
S             4.9774124719        0.8201441705        4.3564867399
S             5.0506687813        0.8457448236        1.2191792958
Mo            4.9795619400        4.5184913326        2.6354039405
S             3.4313161558        3.6722888399        4.2799711230
S             3.4366007358        3.5451602553        1.0658712976
Mo            3.4575549779        7.2071808844        2.6290861319
S             4.9817611346        6.3241293603        1.0366279933
Mo            5.0068268300        9.9192710026        2.7614245502
S             3.4636395055        8.9427006303        4.3209308704
S             3.4066455865        9.0648457877        1.0993111767
Mo            0.2915502339        1.7458607130        2.8368979401
S             1.8588598345        0.8027888778        4.4029651871
S             1.8550626121        0.8542363381        1.2070366583
Mo            1.8603273491        4.4955560543        2.6644331725
S             0.2723993455        3.6540566837        4.3353288062
S             0.2326657812        3.5274845393        1.1710308147
Mo            0.2681604905        7.2235464738        2.7014419575
S             1.9021222451        6.3129522232        4.2304664540
S             1.8590213439        6.3143568584        1.0478489656
Mo            1.8512794308        9.9360978558        2.7676919040
S             0.3048571278        9.0695414369        4.4045843759
S             0.2736300682        9.0470521055        1.1589880205
O             7.4471300358        8.4541689039        5.5626102803



     Writing config-only to output data dir ./MoS2-V-O.save/
     NEW-OLD atomic charge density approx. for the potential

     negative rho (up, down):  1.815E-04 0.000E+00

     total cpu time spent up to now is      112.5 secs

     Self-consistent Calculation

     iteration #  1     ecut=    80.00 Ry     beta= 0.70
     Davidson diagonalization with overlap
     c_bands:  1 eigenvalues not converged
     ethr =  1.00E-06,  avg # of iterations = 20.0

     negative rho (up, down):  4.404E-03 0.000E+00

     total cpu time spent up to now is      134.2 secs

     total energy              =   -2246.24651572 Ry
     estimated scf accuracy    <       0.10426704 Ry

     iteration #  2     ecut=    80.00 Ry     beta= 0.70
     Davidson diagonalization with overlap
     ethr =  3.34E-05,  avg # of iterations =  6.0

     negative rho (up, down):  6.676E-03 0.000E+00

     total cpu time spent up to now is      152.3 secs

     total energy              =   -2246.26021436 Ry
     estimated scf accuracy    <       0.07997536 Ry

     iteration #  3     ecut=    80.00 Ry     beta= 0.70
     Davidson diagonalization with overlap
     ethr =  2.56E-05,  avg # of iterations =  3.0

     negative rho (up, down):  1.200E-02 0.000E+00

     total cpu time spent up to now is      164.0 secs

     total energy              =   -2246.26047060 Ry
     estimated scf accuracy    <       0.01113535 Ry

     iteration #  4     ecut=    80.00 Ry     beta= 0.70
     Davidson diagonalization with overlap
     ethr =  3.57E-06,  avg # of iterations =  5.0

     negative rho (up, down):  1.338E-02 0.000E+00

     total cpu time spent up to now is      180.4 secs

     total energy              =   -2246.26197397 Ry
     estimated scf accuracy    <       0.00451501 Ry

     iteration #  5     ecut=    80.00 Ry     beta= 0.70
     Davidson diagonalization with overlap
     ethr =  1.45E-06,  avg # of iterations =  2.0

     negative rho (up, down):  1.395E-02 0.000E+00

     total cpu time spent up to now is      191.1 secs

     total energy              =   -2246.26156935 Ry
     estimated scf accuracy    <       0.00209484 Ry

     iteration #  6     ecut=    80.00 Ry     beta= 0.70
     Davidson diagonalization with overlap
     ethr =  6.71E-07,  avg # of iterations =  5.0

     negative rho (up, down):  1.227E-02 0.000E+00

     total cpu time spent up to now is      203.3 secs

     total energy              =   -2246.26187410 Ry
     estimated scf accuracy    <       0.00057423 Ry

     iteration #  7     ecut=    80.00 Ry     beta= 0.70
     Davidson diagonalization with overlap
     ethr =  1.84E-07,  avg # of iterations =  3.0

     negative rho (up, down):  8.733E-03 0.000E+00

     total cpu time spent up to now is      214.6 secs

     total energy              =   -2246.26183432 Ry
     estimated scf accuracy    <       0.00010907 Ry

     iteration #  8     ecut=    80.00 Ry     beta= 0.70
     Davidson diagonalization with overlap
     ethr =  3.50E-08,  avg # of iterations =  5.0

     negative rho (up, down):  7.582E-03 0.000E+00

     total cpu time spent up to now is      225.6 secs

     total energy              =   -2246.26184210 Ry
     estimated scf accuracy    <       0.00009358 Ry

     iteration #  9     ecut=    80.00 Ry     beta= 0.70
     Davidson diagonalization with overlap
     ethr =  3.00E-08,  avg # of iterations =  2.0

     negative rho (up, down):  3.680E-03 0.000E+00

     total cpu time spent up to now is      233.3 secs

     total energy              =   -2246.26179665 Ry
     estimated scf accuracy    <       0.00003035 Ry

     iteration # 10     ecut=    80.00 Ry     beta= 0.70
     Davidson diagonalization with overlap
     ethr =  9.73E-09,  avg # of iterations =  5.0

     negative rho (up, down):  2.451E-03 0.000E+00

     total cpu time spent up to now is      245.7 secs

     total energy              =   -2246.26178930 Ry
     estimated scf accuracy    <       0.00000956 Ry

     iteration # 11     ecut=    80.00 Ry     beta= 0.70
     Davidson diagonalization with overlap
     ethr =  3.07E-09,  avg # of iterations =  4.0

     negative rho (up, down):  9.830E-04 0.000E+00

     total cpu time spent up to now is      256.8 secs

     total energy              =   -2246.26178046 Ry
     estimated scf accuracy    <       0.00000260 Ry

     iteration # 12     ecut=    80.00 Ry     beta= 0.70
     Davidson diagonalization with overlap
     ethr =  8.33E-10,  avg # of iterations =  5.0

     negative rho (up, down):  6.161E-04 0.000E+00

     total cpu time spent up to now is      266.5 secs

     total energy              =   -2246.26177873 Ry
     estimated scf accuracy    <       0.00000153 Ry

     iteration # 13     ecut=    80.00 Ry     beta= 0.70
     Davidson diagonalization with overlap
     ethr =  4.90E-10,  avg # of iterations =  2.0

     negative rho (up, down):  1.985E-04 0.000E+00

     total cpu time spent up to now is      271.0 secs

     End of self-consistent calculation

          k = 0.0000 0.0000 0.0000 (105382 PWs)   bands (ev):

   -63.1359 -63.0359 -63.0173 -62.9972 -62.9937 -62.9852 -62.9717 -62.9691
   -62.9458 -62.9290 -62.9056 -62.8906 -37.4921 -37.4127 -37.3457 -37.3125
   -37.2992 -37.2903 -37.2793 -37.2471 -37.2296 -37.2263 -37.2188 -37.2020
   -37.1963 -37.1800 -37.1735 -37.1667 -37.1612 -37.1579 -37.1440 -37.1393
   -37.1294 -37.1178 -37.1076 -37.1041 -37.0925 -37.0758 -37.0644 -37.0610
   -37.0424 -37.0361 -37.0184 -37.0097 -36.9785 -36.9706 -36.9284 -36.8784
   -19.6197 -16.1126 -15.3890 -15.2761 -15.1312 -15.0942 -14.9005 -14.7081
   -14.6633 -14.6197 -14.5621 -14.5281 -14.5056 -14.4603 -14.3935 -14.3592
   -14.2823 -14.2398 -14.2160 -14.1608 -14.0255 -14.0110 -13.9952 -13.9341
    -7.8995  -7.8134  -7.6341  -7.5441  -7.4805  -7.4349  -7.3976  -7.3515
    -7.2358  -7.0674  -7.0007  -6.9366  -6.8883  -6.8499  -6.7139  -6.6676
    -6.5922  -6.5289  -6.4898  -6.4166  -6.1724  -6.1507  -6.0775  -5.9927
    -5.9512  -5.9365  -5.9112  -5.8383  -5.8273  -5.8096  -5.7461  -5.6870
    -5.6613  -5.6009  -5.5555  -5.3976  -5.3411  -5.2495  -5.1648  -5.1572
    -5.1104  -5.0933  -5.0408  -4.8619  -4.8353  -4.6691  -4.5009  -4.4760
    -4.3874  -4.3290  -4.2612  -4.1603  -4.0567  -4.0173  -3.9691  -3.9108
    -3.8644  -3.7910  -3.7446  -3.7106  -3.7020  -3.6729  -3.6221  -3.5837
    -3.5776  -3.5248  -3.3839  -3.3186  -3.1440  -3.1017  -3.0370  -2.9793
    -2.9244  -2.8776  -2.8382  -2.8171  -2.8073  -2.7482  -2.4542  -2.3837
    -2.2300  -2.1235  -2.0927  -2.0310  -1.1829  -0.9578  -0.7128  -0.3575
    -0.2954  -0.2595  -0.1546  -0.0746  -0.0091   0.0365   0.0969   0.1374
     0.1734   0.2120   0.2863   0.3429   0.3634   0.4212   0.4321   0.4618
     0.5459   0.5819   0.5887   0.6386   0.6467   0.7105   0.7971   0.8223
     0.8252   0.9164   1.0922

     the Fermi energy is    -1.6064 ev

!    total energy              =   -2246.26177709 Ry
     estimated scf accuracy    <       0.00000087 Ry
     smearing contrib. (-TS)   =      -0.00000070 Ry
     internal energy E=F+TS    =   -2246.26177639 Ry

     The total energy is F=E-TS. E is the sum of the following terms:
     one-electron contribution =  -18441.15301145 Ry
     hartree contribution      =    9207.91206956 Ry
     xc contribution           =    -392.00842302 Ry
     ewald contribution        =    7388.85786959 Ry
     one-center paw contrib.   =      -9.87028107 Ry

     convergence has been achieved in  13 iterations

     negative rho (up, down):  1.985E-04 0.000E+00

     Forces acting on atoms (cartesian axes, Ry/au):

     atom    1 type  1   force =     0.00469271   -0.01323371   -0.00230640
     atom    2 type  2   force =    -0.00835822    0.00710267   -0.00060546
     atom    3 type  2   force =    -0.01004278    0.01446057   -0.01407268
     atom    4 type  1   force =     0.00544399   -0.00022025   -0.00478198
     atom    5 type  2   force =     0.00081751   -0.00636429   -0.00517214
     atom    6 type  2   force =    -0.00061028    0.00639584    0.00130996
     atom    7 type  1   force =     0.00535028   -0.03275648   -0.02651193
     atom    8 type  2   force =    -0.00543787    0.00527109    0.01241568
     atom    9 type  2   force =     0.01337700    0.00349276    0.00443472
     atom   10 type  1   force =     0.00853300    0.01541282   -0.02346628
     atom   11 type  2   force =     0.20440545   -0.11292090    0.16250317
     atom   12 type  2   force =    -0.00869345    0.00375064   -0.01004966
     atom   13 type  1   force =     0.00511738    0.00442273   -0.00401222
     atom   14 type  2   force =     0.00285245    0.01006287    0.01486981
     atom   15 type  2   force =    -0.00829845    0.00452561   -0.00993714
     atom   16 type  1   force =     0.00039513    0.00671223    0.00270094
     atom   17 type  2   force =     0.00526123    0.00108763    0.00196756
     atom   18 type  2   force =    -0.00181537   -0.00369131    0.01132365
     atom   19 type  1   force =     0.00341333   -0.01122907   -0.00114978
     atom   20 type  2   force =    -0.00374530   -0.00787134   -0.00823541
     atom   21 type  1   force =    -0.05882822    0.04585262   -0.03789782
     atom   22 type  2   force =    -0.01293134   -0.00483250   -0.00107421
     atom   23 type  2   force =    -0.00034270   -0.00266189    0.00588261
     atom   24 type  1   force =    -0.00738192   -0.00211150   -0.00777931
     atom   25 type  2   force =     0.00993393    0.01323950    0.00257744
     atom   26 type  2   force =    -0.00640901   -0.00107946   -0.00574054
     atom   27 type  1   force =    -0.00086729    0.00059524    0.00653843
     atom   28 type  2   force =    -0.00070609   -0.00137574   -0.00473510
     atom   29 type  2   force =     0.00262553    0.00176601   -0.00372469
     atom   30 type  1   force =    -0.00333655    0.00458596    0.00457595
     atom   31 type  2   force =    -0.00073873   -0.00012387    0.01159034
     atom   32 type  2   force =    -0.00512762    0.00512074    0.00541733
     atom   33 type  1   force =     0.01003729   -0.00073301   -0.00620154
     atom   34 type  2   force =    -0.00554660   -0.02723140   -0.02360160
     atom   35 type  2   force =    -0.00333334    0.00770125    0.00693361
     atom   36 type  3   force =    -0.12970507    0.06687793   -0.05398533
     The non-local contrib.  to forces
     atom    1 type  1   force =     0.00549400    0.02704444   -0.01130333
     atom    2 type  2   force =    -0.00887071   -0.00293248   -0.27901173
     atom    3 type  2   force =    -0.01262905   -0.00239945    0.26072663
     atom    4 type  1   force =     0.00683576    0.01563300    0.00671468
     atom    5 type  2   force =     0.00371768   -0.03742582   -0.25582440
     atom    6 type  2   force =    -0.00496500    0.00683961    0.26605694
     atom    7 type  1   force =    -0.02070923    0.01051292   -0.00178498
     atom    8 type  2   force =     0.00829373    0.01993089   -0.26007193
     atom    9 type  2   force =     0.00652649   -0.00928783    0.27213111
     atom   10 type  1   force =    -0.00615757    0.00664939    0.01391798
     atom   11 type  2   force =     0.24895863   -0.09480545    0.36753233
     atom   12 type  2   force =    -0.01785458   -0.01577421    0.26057441
     atom   13 type  1   force =    -0.00418212    0.02901928   -0.00811810
     atom   14 type  2   force =     0.00702228   -0.01051766   -0.26189069
     atom   15 type  2   force =    -0.01158657   -0.00519798    0.26313648
     atom   16 type  1   force =    -0.00072124    0.02551616   -0.03353245
     atom   17 type  2   force =     0.00205185   -0.02722638   -0.25133184
     atom   18 type  2   force =    -0.00283396   -0.00199037    0.27251293
     atom   19 type  1   force =     0.00818865    0.00037633   -0.01423513
     atom   20 type  2   force =    -0.00356187   -0.02289945    0.26094776
     atom   21 type  1   force =     0.00904614    0.00169741    0.00813693
     atom   22 type  2   force =    -0.00593994    0.00810366   -0.25950377
     atom   23 type  2   force =     0.00801834   -0.01959228    0.26814530
     atom   24 type  1   force =     0.00375374    0.01297954   -0.00671339
     atom   25 type  2   force =     0.00549490    0.00270645   -0.26728215
     atom   26 type  2   force =     0.00026153   -0.01309186    0.26439637
     atom   27 type  1   force =    -0.00584317    0.00892258    0.00887640
     atom   28 type  2   force =    -0.00477286   -0.02354846   -0.27795274
     atom   29 type  2   force =     0.00635354    0.00173075    0.26470966
     atom   30 type  1   force =    -0.00018379    0.01545391    0.01048776
     atom   31 type  2   force =    -0.00324409    0.00115228   -0.26124116
     atom   32 type  2   force =     0.00143499   -0.00886328    0.27555341
     atom   33 type  1   force =    -0.01630559    0.00210699    0.00930695
     atom   34 type  2   force =     0.01236192   -0.02609639   -0.28140311
     atom   35 type  2   force =    -0.00140948   -0.01083707    0.26275845
     atom   36 type  3   force =    -0.89637186    0.49409424   -1.08267598
     The ionic contribution  to forces
     atom    1 type  1   force =    -0.05984839    1.61271917    4.58653173
     atom    2 type  2   force =    -0.14533562    1.35902644   38.97371885
     atom    3 type  2   force =    -0.04732455    0.46236275  -36.99092950
     atom    4 type  1   force =     0.28366208   -0.40577882   -0.69733893
     atom    5 type  2   force =    -1.06724736    1.18437118   38.42531450
     atom    6 type  2   force =     0.26554701   -0.61565764  -38.47250886
     atom    7 type  1   force =    -3.26778203   -4.56860776   -2.17096385
     atom    8 type  2   force =    -0.39155550   -2.09109998   35.98835044
     atom    9 type  2   force =     0.51334579   -0.35210784  -38.83882783
     atom   10 type  1   force =     0.69493374    1.34791879    0.44977655
     atom   11 type  2   force =    -3.22532754   -0.18570397   32.99600806
     atom   12 type  2   force =     0.11903062    0.71878021  -39.06612064
     atom   13 type  1   force =     0.18734924    1.44438555    1.83980267
     atom   14 type  2   force =    -0.43670375    0.82732578   38.44747527
     atom   15 type  2   force =     0.02768942    0.20797749  -37.55264707
     atom   16 type  1   force =    -0.33964429    3.06402713   -0.46842625
     atom   17 type  2   force =     0.71581265    1.35423786   37.77761131
     atom   18 type  2   force =    -0.18539379   -0.64345963  -38.94966237
     atom   19 type  1   force =     2.05834649   -2.79162735   -0.84039464
     atom   20 type  2   force =    -0.01264084   -0.42929947  -39.33440408
     atom   21 type  1   force =    -2.20387301    1.23235361   -0.92097197
     atom   22 type  2   force =    -0.14874442   -1.67769254   38.08989847
     atom   23 type  2   force =    -0.10496005    0.66855348  -38.91471104
     atom   24 type  1   force =     0.08464127    1.65530458    4.49397952
     atom   25 type  2   force =     0.66358402    0.59841771   39.04352165
     atom   26 type  2   force =    -0.18016204    0.20406200  -37.83930027
     atom   27 type  1   force =     0.14070108    0.02640217   -2.98127934
     atom   28 type  2   force =     0.23181439    0.73395005   37.97552687
     atom   29 type  2   force =    -0.16792377   -0.39778325  -37.77263567
     atom   30 type  1   force =     1.01465165   -1.87212496   -2.31884744
     atom   31 type  2   force =     1.48611399   -0.43713110   37.06075010
     atom   32 type  2   force =    -0.43698635   -0.17098011  -39.16913623
     atom   33 type  1   force =     1.04040039   -0.13272297    0.62450751
     atom   34 type  2   force =     2.06886148   -0.58521589   37.99695907
     atom   35 type  2   force =     0.05369896    0.47625243  -38.60788048
     atom   36 type  3   force =     0.77126904   -1.82143508   47.13725390
     The local contribution  to forces
     atom    1 type  1   force =     0.05903196   -1.65288187   -4.57879254
     atom    2 type  2   force =     0.14549483   -1.34878853  -38.71696980
     atom    3 type  2   force =     0.04935063   -0.44565565   36.73630351
     atom    4 type  1   force =    -0.28504305    0.38984068    0.68463132
     atom    5 type  2   force =     1.06480259   -1.15538460  -38.19546889
     atom    6 type  2   force =    -0.26164487    0.61611186   38.22819051
     atom    7 type  1   force =     3.29393191    4.52519521    2.14485300
     atom    8 type  2   force =     0.37852544    2.07625135  -35.73734851
     atom    9 type  2   force =    -0.50646754    0.36439806   38.59148723
     atom   10 type  1   force =    -0.67999815   -1.33908522   -0.48848795
     atom   11 type  2   force =     3.19452535    0.16246943  -33.19003227
     atom   12 type  2   force =    -0.11104965   -0.70049486   38.81571540
     atom   13 type  1   force =    -0.17804347   -1.46900542   -1.83689309
     atom   14 type  2   force =     0.43296349   -0.80709844  -38.19176991
     atom   15 type  2   force =    -0.02508481   -0.19863130   37.29979109
     atom   16 type  1   force =     0.34080489   -3.08294805    0.50348017
     atom   17 type  2   force =    -0.71258412   -1.32738974  -37.54497125
     atom   18 type  2   force =     0.18641491    0.64225080   38.70902183
     atom   19 type  1   force =    -2.06316358    2.78004014    0.85228253
     atom   20 type  2   force =     0.01219526    0.44344820   39.08577973
     atom   21 type  1   force =     2.13577545   -1.18800684    0.87341455
     atom   22 type  2   force =     0.14183691    1.66557377  -37.85247031
     atom   23 type  2   force =     0.09709360   -0.65307496   38.67286048
     atom   24 type  1   force =    -0.09577426   -1.67040696   -4.49621291
     atom   25 type  2   force =    -0.65911777   -0.58751481  -38.79495236
     atom   26 type  2   force =     0.17375447   -0.19271291   37.58960555
     atom   27 type  1   force =    -0.13578417   -0.03475211    2.97776645
     atom   28 type  2   force =    -0.22801626   -0.71350093  -37.72376343
     atom   29 type  2   force =     0.16475049    0.39832723   37.52433720
     atom   30 type  1   force =    -1.01780975    1.86124797    2.31173933
     atom   31 type  2   force =    -1.48379353    0.43574544  -36.80909884
     atom   32 type  2   force =     0.43080938    0.18445197   38.91963269
     atom   33 type  1   force =    -1.01411524    0.12995466   -0.64123655
     atom   34 type  2   force =    -2.08552288    0.58337012  -37.76135729
     atom   35 type  2   force =    -0.05556877   -0.45858248   38.37237672
     atom   36 type  3   force =    -0.01458342    1.39976751  -46.12006479
     The core correction contribution to forces
     atom    1 type  1   force =     0.00000000    0.00000000    0.00000000
     atom    2 type  2   force =     0.00039853   -0.00013303    0.02135072
     atom    3 type  2   force =     0.00057968    0.00019588   -0.02068643
     atom    4 type  1   force =     0.00000000    0.00000000    0.00000000
     atom    5 type  2   force =    -0.00045386    0.00205301    0.02051643
     atom    6 type  2   force =     0.00045241   -0.00094440   -0.02090694
     atom    7 type  1   force =     0.00000000    0.00000000    0.00000000
     atom    8 type  2   force =    -0.00064725    0.00024071    0.02127554
     atom    9 type  2   force =    -0.00000426    0.00047429   -0.02087427
     atom   10 type  1   force =     0.00000000    0.00000000    0.00000000
     atom   11 type  2   force =    -0.01359061    0.00505859   -0.01108198
     atom   12 type  2   force =     0.00116170    0.00126214   -0.02075627
     atom   13 type  1   force =     0.00000000    0.00000000    0.00000000
     atom   14 type  2   force =    -0.00044216    0.00041691    0.02073243
     atom   15 type  2   force =     0.00069142    0.00039153   -0.02068737
     atom   16 type  1   force =     0.00000000    0.00000000    0.00000000
     atom   17 type  2   force =    -0.00002132    0.00145443    0.02037192
     atom   18 type  2   force =     0.00000352   -0.00051391   -0.02104480
     atom   19 type  1   force =     0.00000000    0.00000000    0.00000000
     atom   20 type  2   force =     0.00025790    0.00087025   -0.02110402
     atom   21 type  1   force =     0.00000000    0.00000000    0.00000000
     atom   22 type  2   force =    -0.00015280   -0.00082331    0.02067560
     atom   23 type  2   force =    -0.00047658    0.00147769   -0.02088576
     atom   24 type  1   force =     0.00000000    0.00000000    0.00000000
     atom   25 type  2   force =    -0.00005547   -0.00034785    0.02096379
     atom   26 type  2   force =    -0.00028742    0.00068102   -0.02091069
     atom   27 type  1   force =     0.00000000    0.00000000    0.00000000
     atom   28 type  2   force =     0.00026309    0.00169649    0.02117061
     atom   29 type  2   force =    -0.00055671   -0.00054088   -0.02063203
     atom   30 type  1   force =     0.00000000    0.00000000    0.00000000
     atom   31 type  2   force =     0.00015601    0.00010194    0.02088452
     atom   32 type  2   force =    -0.00041104    0.00051351   -0.02112130
     atom   33 type  1   force =     0.00000000    0.00000000    0.00000000
     atom   34 type  2   force =    -0.00127937    0.00067438    0.02196852
     atom   35 type  2   force =    -0.00004141    0.00087473   -0.02082084
     atom   36 type  3   force =     0.01029054   -0.00572532    0.01188338
     The Hubbard contrib.    to forces
     atom    1 type  1   force =     0.00000000    0.00000000    0.00000000
     atom    2 type  2   force =     0.00000000    0.00000000    0.00000000
     atom    3 type  2   force =     0.00000000    0.00000000    0.00000000
     atom    4 type  1   force =     0.00000000    0.00000000    0.00000000
     atom    5 type  2   force =     0.00000000    0.00000000    0.00000000
     atom    6 type  2   force =     0.00000000    0.00000000    0.00000000
     atom    7 type  1   force =     0.00000000    0.00000000    0.00000000
     atom    8 type  2   force =     0.00000000    0.00000000    0.00000000
     atom    9 type  2   force =     0.00000000    0.00000000    0.00000000
     atom   10 type  1   force =     0.00000000    0.00000000    0.00000000
     atom   11 type  2   force =     0.00000000    0.00000000    0.00000000
     atom   12 type  2   force =     0.00000000    0.00000000    0.00000000
     atom   13 type  1   force =     0.00000000    0.00000000    0.00000000
     atom   14 type  2   force =     0.00000000    0.00000000    0.00000000
     atom   15 type  2   force =     0.00000000    0.00000000    0.00000000
     atom   16 type  1   force =     0.00000000    0.00000000    0.00000000
     atom   17 type  2   force =     0.00000000    0.00000000    0.00000000
     atom   18 type  2   force =     0.00000000    0.00000000    0.00000000
     atom   19 type  1   force =     0.00000000    0.00000000    0.00000000
     atom   20 type  2   force =     0.00000000    0.00000000    0.00000000
     atom   21 type  1   force =     0.00000000    0.00000000    0.00000000
     atom   22 type  2   force =     0.00000000    0.00000000    0.00000000
     atom   23 type  2   force =     0.00000000    0.00000000    0.00000000
     atom   24 type  1   force =     0.00000000    0.00000000    0.00000000
     atom   25 type  2   force =     0.00000000    0.00000000    0.00000000
     atom   26 type  2   force =     0.00000000    0.00000000    0.00000000
     atom   27 type  1   force =     0.00000000    0.00000000    0.00000000
     atom   28 type  2   force =     0.00000000    0.00000000    0.00000000
     atom   29 type  2   force =     0.00000000    0.00000000    0.00000000
     atom   30 type  1   force =     0.00000000    0.00000000    0.00000000
     atom   31 type  2   force =     0.00000000    0.00000000    0.00000000
     atom   32 type  2   force =     0.00000000    0.00000000    0.00000000
     atom   33 type  1   force =     0.00000000    0.00000000    0.00000000
     atom   34 type  2   force =     0.00000000    0.00000000    0.00000000
     atom   35 type  2   force =     0.00000000    0.00000000    0.00000000
     atom   36 type  3   force =     0.00000000    0.00000000    0.00000000
     The SCF correction term to forces
     atom    1 type  1   force =     0.00001504   -0.00011592    0.00123653
     atom    2 type  2   force =    -0.00004535   -0.00007020    0.00028528
     atom    3 type  2   force =    -0.00001958   -0.00004344    0.00049190
     atom    4 type  1   force =    -0.00001088    0.00008441    0.00118975
     atom    5 type  2   force =    -0.00000164    0.00002148    0.00026902
     atom    6 type  2   force =     0.00000007    0.00004593    0.00045711
     atom    7 type  1   force =    -0.00009047    0.00014267    0.00136270
     atom    8 type  2   force =    -0.00005439   -0.00005235    0.00018893
     atom    9 type  2   force =    -0.00002358    0.00001560    0.00049728
     atom   10 type  1   force =    -0.00024512   -0.00007062    0.00130594
     atom   11 type  2   force =    -0.00016047    0.00006002    0.00005583
     atom   12 type  2   force =     0.00001836   -0.00002312    0.00051623
     atom   13 type  1   force =    -0.00000636    0.00002283    0.00117508
     atom   14 type  2   force =     0.00001249   -0.00006419    0.00030150
     atom   15 type  2   force =    -0.00000800   -0.00001461    0.00044853
     atom   16 type  1   force =    -0.00004433    0.00011651    0.00115826
     atom   17 type  2   force =     0.00000207    0.00001098    0.00026620
     atom   18 type  2   force =    -0.00000615    0.00002131    0.00047486
     atom   19 type  1   force =     0.00004167   -0.00001866    0.00117625
     atom   20 type  2   force =     0.00000416    0.00000866    0.00052399
     atom   21 type  1   force =     0.00022310   -0.00019203    0.00150145
     atom   22 type  2   force =     0.00006882    0.00000544    0.00030461
     atom   23 type  2   force =    -0.00001810   -0.00002629    0.00045243
     atom   24 type  1   force =    -0.00000276    0.00001087    0.00114626
     atom   25 type  2   force =     0.00002815   -0.00002247    0.00030531
     atom   26 type  2   force =     0.00002435   -0.00001819    0.00044730
     atom   27 type  1   force =     0.00005888    0.00002212    0.00115372
     atom   28 type  2   force =     0.00000546    0.00002664    0.00026238
     atom   29 type  2   force =     0.00000188    0.00003167    0.00047494
     atom   30 type  1   force =     0.00000524    0.00000857    0.00117508
     atom   31 type  2   force =     0.00002880    0.00000710    0.00027451
     atom   32 type  2   force =     0.00002530   -0.00000183    0.00046756
     atom   33 type  1   force =     0.00005764   -0.00007217    0.00119934
     atom   34 type  2   force =     0.00003215    0.00003590    0.00021000
     atom   35 type  2   force =    -0.00001273   -0.00000684    0.00047855
     atom   36 type  3   force =    -0.00030946    0.00017611   -0.00040304

     Total force =     0.346663     Total SCF correction =     0.004732
     Energy error            =      2.6E-02 Ry
     Gradient error          =      2.0E-01 Ry/Bohr

     number of scf cycles    =   2
     number of bfgs steps    =   1

     energy             old  =   -2246.2360689454 Ry
     energy             new  =   -2246.2617770896 Ry

     CASE: energy            _new < energy            _old

     new trust radius        =       0.1757242391 bohr
     new conv_thr            =       0.0000002044 Ry


ATOMIC_POSITIONS (angstrom)
Mo            6.5860119423        1.7662219502        2.8265398175
S             8.1640178503        0.8213171077        4.4373541633
S             8.1826364266        0.8232425433        1.2721590717
Mo            8.0990999162        4.4977075739        2.7142350041
S             6.4998046803        3.7164505870        4.3411445782
S             6.5529612761        3.5203335405        1.1206587286
Mo            6.4886090633        7.1913819860        2.6380344169
S             8.0805319759        6.3381472859        4.2544133851
S             8.0944192302        6.3095743729        1.0924840733
Mo            8.1544874618        9.9265746232        2.7906652871
S             6.4915502831        8.9328297452        4.2415462731
S             6.6131486173        9.0516314895        1.1396032913
Mo            3.4259438931        1.7512549687        2.7718436261
S             4.9787636670        0.8244039808        4.3629124121
S             5.0466704523        0.8474505134        1.2145095327
Mo            4.9796948137        4.5216736609        2.6367254040
S             3.4337364832        3.6727860585        4.2807648894
S             3.4357526267        3.5433944562        1.0710849790
Mo            3.4592796422        7.2018297332        2.6284679764
S             4.9801455255        6.3207653423        1.0333559281
Mo            4.9833495991        9.9390114306        2.7486102414
S             3.4578217392        8.9407072546        4.3200127136
S             3.4063208222        9.0637944063        1.1019484678
Mo            0.2881902446        1.7448620576        2.8325241182
S             1.8636269099        0.8090244910        4.4044785752
S             1.8519527759        0.8537959088        1.2045489493
Mo            1.8599507742        4.4957758212        2.6674322335
S             0.2721444683        3.6534845820        4.3332440647
S             0.2338414845        3.5281970563        1.1694753792
Mo            0.2665409902        7.2260716461        2.7031954401
S             1.9018223116        6.3129204776        4.2358378700
S             1.8566806576        6.3167803027        1.0503102092
Mo            1.8559295327        9.9353789223        2.7647146467
S             0.3036584089        9.0567487899        4.3944031130
S             0.2719957555        9.0504275669        1.1626078287
O             7.4065124881        8.4752497329        5.5644761311



     Writing config-only to output data dir ./MoS2-V-O.save/
     NEW-OLD atomic charge density approx. for the potential

     negative rho (up, down):  2.121E-04 0.000E+00

     total cpu time spent up to now is      279.3 secs

     Self-consistent Calculation

     iteration #  1     ecut=    80.00 Ry     beta= 0.70
     Davidson diagonalization with overlap
     ethr =  1.00E-06,  avg # of iterations = 10.0

     negative rho (up, down):  8.601E-05 0.000E+00

     total cpu time spent up to now is      294.1 secs

     total energy              =   -2246.32338984 Ry
     estimated scf accuracy    <       0.00880808 Ry

     iteration #  2     ecut=    80.00 Ry     beta= 0.70
     Davidson diagonalization with overlap
     ethr =  2.82E-06,  avg # of iterations =  3.0

     negative rho (up, down):  6.177E-05 0.000E+00

     total cpu time spent up to now is      309.0 secs

     total energy              =   -2246.32419633 Ry
     estimated scf accuracy    <       0.00273281 Ry

     iteration #  3     ecut=    80.00 Ry     beta= 0.70
     Davidson diagonalization with overlap
     ethr =  8.76E-07,  avg # of iterations =  2.0

     negative rho (up, down):  3.529E-05 0.000E+00

     total cpu time spent up to now is      322.4 secs

     total energy              =   -2246.32427274 Ry
     estimated scf accuracy    <       0.00051386 Ry

     iteration #  4     ecut=    80.00 Ry     beta= 0.70
     Davidson diagonalization with overlap
     ethr =  1.65E-07,  avg # of iterations =  5.0

     negative rho (up, down):  2.910E-05 0.000E+00

     total cpu time spent up to now is      337.2 secs

     total energy              =   -2246.32433156 Ry
     estimated scf accuracy    <       0.00004726 Ry

     iteration #  5     ecut=    80.00 Ry     beta= 0.70
     Davidson diagonalization with overlap
     ethr =  1.51E-08,  avg # of iterations =  5.0

     negative rho (up, down):  2.719E-05 0.000E+00

     total cpu time spent up to now is      350.0 secs

     total energy              =   -2246.32434230 Ry
     estimated scf accuracy    <       0.00003648 Ry

     iteration #  6     ecut=    80.00 Ry     beta= 0.70
     Davidson diagonalization with overlap
     ethr =  1.17E-08,  avg # of iterations =  2.0

     negative rho (up, down):  2.695E-05 0.000E+00

     total cpu time spent up to now is      361.3 secs

     total energy              =   -2246.32434195 Ry
     estimated scf accuracy    <       0.00001105 Ry

     iteration #  7     ecut=    80.00 Ry     beta= 0.70
     Davidson diagonalization with overlap
     ethr =  3.54E-09,  avg # of iterations =  5.0

     negative rho (up, down):  3.194E-05 0.000E+00

     total cpu time spent up to now is      374.9 secs

     total energy              =   -2246.32434417 Ry
     estimated scf accuracy    <       0.00000137 Ry

     iteration #  8     ecut=    80.00 Ry     beta= 0.70
     Davidson diagonalization with overlap
     ethr =  4.38E-10,  avg # of iterations =  4.0

     negative rho (up, down):  4.769E-05 0.000E+00

     total cpu time spent up to now is      388.2 secs

     total energy              =   -2246.32434496 Ry
     estimated scf accuracy    <       0.00000065 Ry

     iteration #  9     ecut=    80.00 Ry     beta= 0.70
     Davidson diagonalization with overlap
     ethr =  2.08E-10,  avg # of iterations =  2.0

     negative rho (up, down):  8.848E-05 0.000E+00

     total cpu time spent up to now is      399.1 secs

     total energy              =   -2246.32434536 Ry
     estimated scf accuracy    <       0.00000022 Ry

     iteration # 10     ecut=    80.00 Ry     beta= 0.70
     Davidson diagonalization with overlap
     ethr =  7.05E-11,  avg # of iterations =  5.0

     negative rho (up, down):  1.949E-04 0.000E+00

     total cpu time spent up to now is      404.5 secs

     End of self-consistent calculation

          k = 0.0000 0.0000 0.0000 (105382 PWs)   bands (ev):

   -63.1173 -63.0249 -62.9946 -62.9845 -62.9823 -62.9736 -62.9695 -62.9629
   -62.9368 -62.9193 -62.8817 -62.8728 -37.4274 -37.3820 -37.3211 -37.2967
   -37.2821 -37.2785 -37.2689 -37.2346 -37.2182 -37.2113 -37.2054 -37.1891
   -37.1801 -37.1658 -37.1616 -37.1526 -37.1493 -37.1463 -37.1374 -37.1314
   -37.1205 -37.1026 -37.0975 -37.0836 -37.0805 -37.0589 -37.0568 -37.0484
   -37.0298 -37.0241 -37.0025 -36.9989 -36.9672 -36.9542 -36.9153 -36.8711
   -20.5711 -16.0900 -15.3296 -15.2674 -15.1034 -15.0585 -14.8769 -14.6418
   -14.6257 -14.5933 -14.5523 -14.5167 -14.4874 -14.4404 -14.3697 -14.2991
   -14.2550 -14.2301 -14.1995 -14.1179 -14.0127 -13.9948 -13.9882 -13.9224
    -7.8829  -7.8028  -7.5826  -7.5420  -7.4673  -7.4182  -7.3806  -7.3622
    -7.2453  -7.0470  -7.0051  -6.9374  -6.8846  -6.8515  -6.7318  -6.6586
    -6.6001  -6.5376  -6.4781  -6.4122  -6.1561  -6.1489  -6.0847  -5.9767
    -5.9425  -5.9122  -5.8942  -5.8249  -5.8150  -5.8098  -5.7481  -5.6820
    -5.6498  -5.5843  -5.5181  -5.3957  -5.3348  -5.2443  -5.1485  -5.1442
    -5.1003  -5.0782  -5.0380  -4.8738  -4.8208  -4.6676  -4.5057  -4.4688
    -4.3843  -4.3272  -4.2604  -4.1597  -4.0924  -4.0106  -3.9737  -3.9004
    -3.8710  -3.7915  -3.7338  -3.7088  -3.6842  -3.6539  -3.6185  -3.5757
    -3.5487  -3.5077  -3.3775  -3.3145  -3.1435  -3.1259  -3.0307  -2.9765
    -2.9339  -2.8666  -2.8415  -2.8069  -2.7927  -2.7405  -2.5333  -2.4363
    -2.3188  -2.1244  -2.1101  -2.0614  -1.1208  -0.9331  -0.5988  -0.3315
    -0.2938  -0.2290  -0.1383  -0.0462  -0.0006   0.0479   0.1181   0.1471
     0.1848   0.2418   0.3034   0.3685   0.3864   0.4334   0.4498   0.4925
     0.5673   0.5936   0.6129   0.6648   0.6714   0.7225   0.8028   0.8398
     0.8569   0.9236   1.1055

     the Fermi energy is    -1.5902 ev

!    total energy              =   -2246.32434540 Ry
     estimated scf accuracy    <       0.00000006 Ry
     smearing contrib. (-TS)   =      -0.00000008 Ry
     internal energy E=F+TS    =   -2246.32434533 Ry

     The total energy is F=E-TS. E is the sum of the following terms:
     one-electron contribution =  -18435.34456753 Ry
     hartree contribution      =    9205.11280930 Ry
     xc contribution           =    -392.03429714 Ry
     ewald contribution        =    7385.80819910 Ry
     one-center paw contrib.   =      -9.86648906 Ry

     convergence has been achieved in  10 iterations

     negative rho (up, down):  1.949E-04 0.000E+00

     Forces acting on atoms (cartesian axes, Ry/au):

     atom    1 type  1   force =    -0.00212711   -0.00867073   -0.00205017
     atom    2 type  2   force =    -0.00594308    0.00452790   -0.00253837
     atom    3 type  2   force =    -0.00849215    0.01510139   -0.01721275
     atom    4 type  1   force =     0.00438303    0.00143796   -0.00021512
     atom    5 type  2   force =     0.00174699   -0.00562450   -0.00564520
     atom    6 type  2   force =    -0.00064204    0.00494898    0.00169234
     atom    7 type  1   force =     0.00776516   -0.02170734   -0.01334159
     atom    8 type  2   force =    -0.00483468   -0.00177803    0.00683039
     atom    9 type  2   force =     0.01384779    0.00208338   -0.00059496
     atom   10 type  1   force =     0.00922901    0.00819586   -0.01281867
     atom   11 type  2   force =     0.14570166   -0.07442103    0.10319343
     atom   12 type  2   force =    -0.01218532    0.00470901   -0.00489632
     atom   13 type  1   force =     0.00343083    0.00452953   -0.00253673
     atom   14 type  2   force =     0.00206612    0.00682903    0.01122496
     atom   15 type  2   force =    -0.00926755    0.00704623   -0.01121499
     atom   16 type  1   force =     0.00101549    0.00461314    0.00206972
     atom   17 type  2   force =     0.00484290    0.00127780    0.00232731
     atom   18 type  2   force =    -0.00173172   -0.00204974    0.00969004
     atom   19 type  1   force =     0.00247332   -0.00641990    0.00216203
     atom   20 type  2   force =    -0.00511929   -0.00887465   -0.01204355
     atom   21 type  1   force =    -0.00715908    0.00625214    0.00551352
     atom   22 type  2   force =    -0.00602336   -0.00179470   -0.00339573
     atom   23 type  2   force =    -0.00131560   -0.00275282    0.00179875
     atom   24 type  1   force =    -0.00562500   -0.00078255   -0.00484998
     atom   25 type  2   force =     0.00742577    0.01093820   -0.00088395
     atom   26 type  2   force =    -0.00472502   -0.00021226   -0.00529041
     atom   27 type  1   force =    -0.00094832    0.00092303    0.00521819
     atom   28 type  2   force =    -0.00090504   -0.00242228   -0.00450937
     atom   29 type  2   force =     0.00307160    0.00214948   -0.00351719
     atom   30 type  1   force =    -0.00294792    0.00169061    0.00455234
     atom   31 type  2   force =    -0.00068138   -0.00013293    0.00929785
     atom   32 type  2   force =    -0.00496384    0.00429825    0.00523519
     atom   33 type  1   force =     0.00287759   -0.00052336    0.00019651
     atom   34 type  2   force =    -0.00382126   -0.01921427   -0.02347766
     atom   35 type  2   force =    -0.00178984    0.00654099    0.00159836
     atom   36 type  3   force =    -0.11862868    0.05928818   -0.04156823
     The non-local contrib.  to forces
     atom    1 type  1   force =     0.00548024    0.02390190   -0.01200575
     atom    2 type  2   force =    -0.00668062   -0.00453255   -0.27763836
     atom    3 type  2   force =    -0.01088242   -0.00119451    0.25649102
     atom    4 type  1   force =     0.00823518    0.01416392    0.00456509
     atom    5 type  2   force =     0.00485722   -0.03669683   -0.25660104
     atom    6 type  2   force =    -0.00442267    0.00549210    0.26712314
     atom    7 type  1   force =    -0.02068950    0.01038370   -0.00158177
     atom    8 type  2   force =     0.00946924    0.00913131   -0.26591262
     atom    9 type  2   force =     0.00512789   -0.01090500    0.27017798
     atom   10 type  1   force =    -0.00921802    0.00580067    0.01656413
     atom   11 type  2   force =     0.21283158   -0.07793001    0.35052247
[...]
     atom   28 type  2   force =    -0.00056106   -0.01338726   -0.27670530
     atom   29 type  2   force =    -0.00062560   -0.00689199    0.26862402
     atom   30 type  1   force =     0.00104011    0.02082567    0.00437918
     atom   31 type  2   force =    -0.00819046    0.00367435   -0.26816440
     atom   32 type  2   force =     0.00642080   -0.01214179    0.27087583
     atom   33 type  1   force =    -0.00317829    0.00647065    0.00881820
     atom   34 type  2   force =     0.00211655   -0.00474978   -0.27868528
     atom   35 type  2   force =    -0.00064130   -0.01387279    0.26245625
     atom   36 type  3   force =     0.02906091    0.00862368   -2.31713037
     The ionic contribution  to forces
     atom    1 type  1   force =    -0.14071367    1.58701923    1.21588890
     atom    2 type  2   force =     0.33154633    1.10499018   38.29543439
     atom    3 type  2   force =     0.11042264    0.11574121  -38.31658617
     atom    4 type  1   force =     0.23142458   -0.23852793   -0.69715305
     atom    5 type  2   force =    -0.81415414    1.07915552   38.04702170
     atom    6 type  2   force =     0.21953734   -0.39338541  -38.52551420
     atom    7 type  1   force =    -2.80773292   -2.78165026   -1.80921229
     atom    8 type  2   force =    -0.54259900   -0.93844800   37.59377268
     atom    9 type  2   force =     0.49211024   -0.09486850  -38.82113275
     atom   10 type  1   force =     0.61046676    0.27492345   -1.27333398
     atom   11 type  2   force =    -0.41113034   -1.50952854   28.37305846
     atom   12 type  2   force =     0.18382118    0.28974467  -38.60437744
     atom   13 type  1   force =    -0.33246367    1.20002529    1.73573392
     atom   14 type  2   force =    -0.53544049    1.03007969   38.02318562
     atom   15 type  2   force =    -0.05784443    0.07710639  -38.30256002
     atom   16 type  1   force =    -0.37732154    2.91974732    0.70672488
     atom   17 type  2   force =     0.67831327    1.15769680   38.16104740
     atom   18 type  2   force =    -0.29523250   -0.34501692  -38.41600338
     atom   19 type  1   force =     2.08414931   -2.45218677    1.28290885
     atom   20 type  2   force =    -0.16733013   -0.09022161  -39.42784444
     atom   21 type  1   force =    -1.03476988    0.25738311   -2.97737953
     atom   22 type  2   force =    -0.60327727   -1.49093755   37.80310807
     atom   23 type  2   force =    -0.27026445    0.26964567  -38.58733695
     atom   24 type  1   force =     0.49564731    0.99065793    1.35394633
     atom   25 type  2   force =     0.16838888    0.40292753   38.59379808
     atom   26 type  2   force =    -0.05226573    0.03694955  -37.83845502
     atom   27 type  1   force =     0.15069018    0.14105592   -0.09341339
     atom   28 type  2   force =     0.11674559    0.49756698   37.96178941
     atom   29 type  2   force =     0.07871935   -0.11145560  -38.03999762
     atom   30 type  1   force =     0.69211104   -1.28466319    0.71289622
     atom   31 type  2   force =     1.12739242   -0.17905476   37.94877906
     atom   32 type  2   force =    -0.33010764   -0.08727088  -38.29803784
     atom   33 type  1   force =     0.46912388   -0.03097106    2.13476118
     atom   34 type  2   force =     1.00619008   -0.48723194   38.23291141
     atom   35 type  2   force =     0.11605398    0.12404701  -38.24847002
     atom   36 type  3   force =    -0.59020656   -1.04104452   50.10004155
     The local contribution  to forces
     atom    1 type  1   force =     0.14336448   -1.60564152   -1.20902536
     atom    2 type  2   force =    -0.32986923   -1.09458541  -38.04440047
     atom    3 type  2   force =    -0.10862159   -0.10626366   38.07343837
     atom    4 type  1   force =    -0.23945668    0.23373191    0.69559905
     atom    5 type  2   force =     0.80970686   -1.05572156  -37.81102141
     atom    6 type  2   force =    -0.22018194    0.39654294   38.27910632
     atom    7 type  1   force =     2.82334736    2.76461931    1.81690464
     atom    8 type  2   force =     0.54066654    0.93171178  -37.34344054
     atom    9 type  2   force =    -0.48487302    0.10858782   38.57415848
     atom   10 type  1   force =    -0.60164847   -0.28027859    1.25456969
     atom   11 type  2   force =     0.42626672    1.49937802  -28.66280015
     atom   12 type  2   force =    -0.17645853   -0.27578442   38.35066779
     atom   13 type  1   force =     0.32943878   -1.22588533   -1.72977651
     atom   14 type  2   force =     0.53553731   -1.02357764  -37.77132920
     atom   15 type  2   force =     0.05669336   -0.06794082   38.06100429
     atom   16 type  1   force =     0.38239972   -2.94652017   -0.67326104
     atom   17 type  2   force =    -0.67444394   -1.13647659  -37.92500792
     atom   18 type  2   force =     0.29540632    0.34683277   38.17139360
     atom   19 type  1   force =    -2.10012034    2.44756986   -1.26001294
     atom   20 type  2   force =     0.16496856    0.10338759   39.18528239
     atom   21 type  1   force =     1.02883792   -0.27221250    2.95447721
     atom   22 type  2   force =     0.60806147    1.48452774  -37.55906596
     atom   23 type  2   force =     0.26242881   -0.25395628   38.34372806
     atom   24 type  1   force =    -0.49609022   -1.00718746   -1.35662357
     atom   25 type  2   force =    -0.16913296   -0.39126519  -38.34434793
     atom   26 type  2   force =     0.05015112   -0.02472569   37.58997471
     atom   27 type  1   force =    -0.14505106   -0.14570583    0.09152401
     atom   28 type  2   force =    -0.11597716   -0.48469328  -37.70589957
     atom   29 type  2   force =    -0.07794280    0.11887079   37.79290289
     atom   30 type  1   force =    -0.69291590    1.26314049   -0.71738641
     atom   31 type  2   force =    -1.12023667    0.17558055  -37.70144695
     atom   32 type  2   force =     0.32461384    0.09878788   38.04866169
     atom   33 type  1   force =    -0.46564504    0.02497543   -2.14408212
     atom   34 type  2   force =    -1.00817393    0.49253155  -37.97564153
     atom   35 type  2   force =    -0.11553229   -0.11050770   38.00667940
     atom   36 type  3   force =     0.56170941    1.03256926  -47.80668427
     The core correction contribution to forces
     atom    1 type  1   force =     0.00000000    0.00000000    0.00000000
     atom    2 type  2   force =     0.00002826    0.00044842    0.02126407
     atom    3 type  2   force =     0.00006964    0.00049144   -0.02079643
     atom    4 type  1   force =     0.00000000    0.00000000    0.00000000
     atom    5 type  2   force =    -0.00035976    0.00112625    0.02052710
     atom    6 type  2   force =     0.00015710   -0.00032192   -0.02091403
     atom    7 type  1   force =     0.00000000    0.00000000    0.00000000
     atom    8 type  2   force =    -0.00014286   -0.00004379    0.02127689
     atom    9 type  2   force =     0.00083182    0.00083269   -0.02101523
     atom   10 type  1   force =     0.00000000    0.00000000    0.00000000
     atom   11 type  2   force =     0.00096091   -0.00084020   -0.00986145
     atom   12 type  2   force =     0.00068036    0.00097717   -0.02126085
     atom   13 type  1   force =     0.00000000    0.00000000    0.00000000
     atom   14 type  2   force =     0.00007865    0.00002662    0.02128914
     atom   15 type  2   force =    -0.00001018    0.00047567   -0.02066256
     atom   16 type  1   force =     0.00000000    0.00000000    0.00000000
     atom   17 type  2   force =     0.00036658    0.00104149    0.02052582
     atom   18 type  2   force =    -0.00017200   -0.00035595   -0.02085107
     atom   19 type  1   force =     0.00000000    0.00000000    0.00000000
     atom   20 type  2   force =    -0.00024078    0.00058908   -0.02119197
     atom   21 type  1   force =     0.00000000    0.00000000    0.00000000
     atom   22 type  2   force =     0.00016716   -0.00058207    0.02107245
     atom   23 type  2   force =    -0.00066390    0.00105965   -0.02080999
     atom   24 type  1   force =     0.00000000    0.00000000    0.00000000
     atom   25 type  2   force =    -0.00002004    0.00052740    0.02102217
     atom   26 type  2   force =    -0.00012378    0.00049404   -0.02094685
     atom   27 type  1   force =     0.00000000    0.00000000    0.00000000
     atom   28 type  2   force =    -0.00001071    0.00085904    0.02128631
     atom   29 type  2   force =     0.00003123    0.00015116   -0.02086157
     atom   30 type  1   force =     0.00000000    0.00000000    0.00000000
     atom   31 type  2   force =     0.00040132    0.00010262    0.02099472
     atom   32 type  2   force =    -0.00062569    0.00068818   -0.02101727
     atom   33 type  1   force =     0.00000000    0.00000000    0.00000000
     atom   34 type  2   force =    -0.00016583    0.00013943    0.02163874
     atom   35 type  2   force =     0.00009006    0.00074642   -0.02078477
     atom   36 type  3   force =    -0.00030009   -0.00012206    0.02456045
     The Hubbard contrib.    to forces
     atom    1 type  1   force =     0.00000000    0.00000000    0.00000000
     atom    2 type  2   force =     0.00000000    0.00000000    0.00000000
     atom    3 type  2   force =     0.00000000    0.00000000    0.00000000
     atom    4 type  1   force =     0.00000000    0.00000000    0.00000000
     atom    5 type  2   force =     0.00000000    0.00000000    0.00000000
     atom    6 type  2   force =     0.00000000    0.00000000    0.00000000
     atom    7 type  1   force =     0.00000000    0.00000000    0.00000000
     atom    8 type  2   force =     0.00000000    0.00000000    0.00000000
     atom    9 type  2   force =     0.00000000    0.00000000    0.00000000
     atom   10 type  1   force =     0.00000000    0.00000000    0.00000000
     atom   11 type  2   force =     0.00000000    0.00000000    0.00000000
     atom   12 type  2   force =     0.00000000    0.00000000    0.00000000
     atom   13 type  1   force =     0.00000000    0.00000000    0.00000000
     atom   14 type  2   force =     0.00000000    0.00000000    0.00000000
     atom   15 type  2   force =     0.00000000    0.00000000    0.00000000
     atom   16 type  1   force =     0.00000000    0.00000000    0.00000000
     atom   17 type  2   force =     0.00000000    0.00000000    0.00000000
     atom   18 type  2   force =     0.00000000    0.00000000    0.00000000
     atom   19 type  1   force =     0.00000000    0.00000000    0.00000000
     atom   20 type  2   force =     0.00000000    0.00000000    0.00000000
     atom   21 type  1   force =     0.00000000    0.00000000    0.00000000
     atom   22 type  2   force =     0.00000000    0.00000000    0.00000000
     atom   23 type  2   force =     0.00000000    0.00000000    0.00000000
     atom   24 type  1   force =     0.00000000    0.00000000    0.00000000
     atom   25 type  2   force =     0.00000000    0.00000000    0.00000000
     atom   26 type  2   force =     0.00000000    0.00000000    0.00000000
     atom   27 type  1   force =     0.00000000    0.00000000    0.00000000
     atom   28 type  2   force =     0.00000000    0.00000000    0.00000000
     atom   29 type  2   force =     0.00000000    0.00000000    0.00000000
     atom   30 type  1   force =     0.00000000    0.00000000    0.00000000
     atom   31 type  2   force =     0.00000000    0.00000000    0.00000000
     atom   32 type  2   force =     0.00000000    0.00000000    0.00000000
     atom   33 type  1   force =     0.00000000    0.00000000    0.00000000
     atom   34 type  2   force =     0.00000000    0.00000000    0.00000000
     atom   35 type  2   force =     0.00000000    0.00000000    0.00000000
     atom   36 type  3   force =     0.00000000    0.00000000    0.00000000
     The SCF correction term to forces
     atom    1 type  1   force =    -0.00000368    0.00002830   -0.00004167
     atom    2 type  2   force =     0.00000483    0.00000191   -0.00002025
     atom    3 type  2   force =     0.00000364    0.00000426   -0.00001222
     atom    4 type  1   force =     0.00001759    0.00002352   -0.00005897
     atom    5 type  2   force =    -0.00001590    0.00001857   -0.00001850
     atom    6 type  2   force =     0.00000448    0.00001681   -0.00000570
     atom    7 type  1   force =    -0.00000451   -0.00003154   -0.00004503
     atom    8 type  2   force =     0.00000960   -0.00000255   -0.00001314
     atom    9 type  2   force =     0.00001107   -0.00000505   -0.00001314
     atom   10 type  1   force =     0.00001134   -0.00002689   -0.00004519
     atom   11 type  2   force =    -0.00000787   -0.00001441   -0.00001464
     atom   12 type  2   force =     0.00000261   -0.00000777   -0.00000858
     atom   13 type  1   force =    -0.00000377    0.00001334   -0.00001059
     atom   14 type  2   force =    -0.00001809   -0.00000090   -0.00002105
     atom   15 type  2   force =    -0.00000379    0.00000275    0.00000741
     atom   16 type  1   force =    -0.00001209    0.00002427   -0.00001715
     atom   17 type  2   force =     0.00000197    0.00001566   -0.00001372
     atom   18 type  2   force =    -0.00000457    0.00001747    0.00000440
     atom   19 type  1   force =    -0.00001410   -0.00002721   -0.00000967
     atom   20 type  2   force =    -0.00000736   -0.00001123    0.00000471
     atom   21 type  1   force =    -0.00002356   -0.00002704   -0.00000375
     atom   22 type  2   force =    -0.00000034   -0.00001031   -0.00001931
     atom   23 type  2   force =    -0.00000310   -0.00001759    0.00001455
     atom   24 type  1   force =     0.00001357    0.00002611   -0.00003838
     atom   25 type  2   force =     0.00001283   -0.00000396   -0.00001180
     atom   26 type  2   force =    -0.00000178    0.00000246    0.00000333
     atom   27 type  1   force =     0.00001700    0.00003143   -0.00003409
     atom   28 type  2   force =     0.00000624    0.00001479   -0.00002324
     atom   29 type  2   force =    -0.00000614    0.00001790   -0.00001416
     atom   30 type  1   force =     0.00001086   -0.00002606   -0.00003632
     atom   31 type  2   force =     0.00000899    0.00000360   -0.00002122
     atom   32 type  2   force =    -0.00000160   -0.00000287    0.00000571
     atom   33 type  1   force =    -0.00000465   -0.00002586   -0.00000808
     atom   34 type  2   force =     0.00001843   -0.00001456   -0.00001486
     atom   35 type  2   force =     0.00000258   -0.00001586   -0.00000354
     atom   36 type  3   force =     0.00000571   -0.00005241   -0.00000263

     Total force =     0.006750     Total SCF correction =     0.000190
     Energy error            =      9.7E-05 Ry
     Gradient error          =      2.8E-03 Ry/Bohr

     bfgs converged in  23 scf cycles and  22 bfgs steps
     (criteria: energy <  1.0E-04 Ry, force <  1.0E-02 Ry/Bohr)

     End of BFGS Geometry Optimization

     Final energy             =   -2246.4458072706 Ry

     File ./MoS2-V-O.bfgs deleted, as requested
Begin final coordinates

ATOMIC_POSITIONS (angstrom)
Mo            6.5885576765        1.7420232684        2.7602818698
S             8.1638374626        0.8402741787        4.3704520912
S             8.1683133832        0.8510326506        1.1651003265
Mo            8.1450182162        4.4912201257        2.7082121153
S             6.5484788568        3.6534866954        4.3066597215
S             6.5768445630        3.5509948263        1.1087356528
Mo            6.5393988880        7.1418431343        2.6458920722
S             8.0869320857        6.2961960644        4.3073424477
S             8.1753617083        6.3122454522        1.0952305554
Mo            8.1864754290        9.9458327303        2.7539467417
S             6.5655120659        8.9444437530        4.2328270839
S             6.6144769047        9.0262321323        1.1343341736
Mo            3.4534684722        1.7459573494        2.7623057353
S             5.0205247664        0.8023616037        4.3513516838
S             5.0154710702        0.8438612724        1.1592901394
Mo            5.0192984717        4.5192235573        2.6541373038
S             3.4918127904        3.6549782712        4.3103898990
S             3.4527381099        3.5470156089        1.1144587417
Mo            3.4978558830        7.1669570177        2.6720455122
S             5.0018735860        6.2881767184        1.0326434507
Mo            4.9996754207        9.9153981390        2.7165020266
S             3.5053173824        8.9328062073        4.3290876044
S             3.4096543256        9.0086011570        1.1267314567
Mo            0.2895642067        1.7367504235        2.7673108116
S             1.8797793609        0.8385607903        4.3733542771
S             1.8735218293        0.8244513646        1.1837313364
Mo            1.8887012917        4.4831413084        2.7153969889
S             0.2852232342        3.6010185064        4.3161594846
S             0.2913776835        3.5490746196        1.1476690657
Mo            0.2815391549        7.2056426671        2.7416492747
S             1.9272801504        6.2949812543        4.3041566329
S             1.8701113792        6.3128721193        1.1180204323
Mo            1.8784196651        9.9139820526        2.7777388729
S             0.2839654239        9.0136450746        4.3638119225
S             0.3051309148        9.0344285793        1.1683314357
O             6.5460929766        8.9514912922        5.7310338789
End final coordinates



     Writing all to output data dir ./MoS2-V-O.save/
 
     init_run     :      4.61s CPU      5.12s WALL (       1 calls)
     electrons    :   2238.94s CPU   2606.39s WALL (      23 calls)
     update_pot   :     72.01s CPU     78.22s WALL (      22 calls)
     forces       :     72.02s CPU     85.96s WALL (      23 calls)

     Called by init_run:
     wfcinit      :      0.48s CPU      0.53s WALL (       1 calls)
     potinit      :      2.36s CPU      2.62s WALL (       1 calls)
     hinit0       :      0.44s CPU      0.47s WALL (       1 calls)

     Called by electrons:
     c_bands      :    327.34s CPU    336.80s WALL (     213 calls)
     sum_band     :    135.90s CPU    210.43s WALL (     213 calls)
     v_of_rho     :    285.12s CPU    356.81s WALL (     228 calls)
     newd         :     81.48s CPU    140.54s WALL (     228 calls)
     PAW_pot      :      9.05s CPU      9.10s WALL (     250 calls)
     mix_rho      :   1429.10s CPU   1588.17s WALL (     213 calls)

     Called by c_bands:
     init_us_2    :      4.89s CPU      5.23s WALL (     449 calls)
     init_us_2:cp :      4.88s CPU      5.23s WALL (     449 calls)
     regterg      :    311.34s CPU    320.43s WALL (     213 calls)

     Called by *egterg:
     rdiaghg      :     19.98s CPU     20.17s WALL (    1136 calls)
     h_psi        :    193.35s CPU    195.04s WALL (    1167 calls)
     s_psi        :     17.48s CPU     17.55s WALL (    1167 calls)
     g_psi        :      2.41s CPU      2.44s WALL (     953 calls)

     Called by h_psi:
     h_psi:calbec :     20.98s CPU     21.12s WALL (    1167 calls)
     vloc_psi     :    151.67s CPU    153.12s WALL (    1167 calls)
     add_vuspsi   :     17.80s CPU     17.88s WALL (    1167 calls)

     General routines
     calbec       :     30.34s CPU     30.52s WALL (    1494 calls)
     fft          :    196.92s CPU    219.14s WALL (   15249 calls)
     ffts         :    638.25s CPU    791.44s WALL (  349689 calls)
     fftw         :     99.10s CPU     99.98s WALL (  130394 calls)
     interpolate  :      2.88s CPU      3.31s WALL (     228 calls)
 
     Parallel routines
 
     PWSCF        :  39m58.72s CPU  46m34.08s WALL

 
   This run was terminated on:  21:51:20   1Nov2023            

=------------------------------------------------------------------------------=
   JOB DONE.
=------------------------------------------------------------------------------=
