
     Program PWSCF v.7.2 starts on  1Nov2023 at 23: 3: 2 

     This program is part of the open-source Quantum ESPRESSO suite
     for quantum simulation of materials; please cite
         "P. Giannozzi et al., J. Phys.:Condens. Matter 21 395502 (2009);
         "P. Giannozzi et al., J. Phys.:Condens. Matter 29 465901 (2017);
         "P. Giannozzi et al., J. Chem. Phys. 152 154105 (2020);
          URL http://www.quantum-espresso.org", 
     in publications or presentations arising from this work. More details at
     http://www.quantum-espresso.org/quote

     Parallel version (MPI & OpenMP), running on      48 processor cores
     Number of MPI processes:                48
     Threads/MPI process:                     1

     MPI processes distributed on     1 nodes
     74058 MiB available memory on the printing compute node when the environment starts
 
     Waiting for input...
     Reading input from standard input
Warning: card &CELL ignored
Warning: card CELL_DYNAMICS = 'BFGS', ignored
Warning: card CELL_DOFREE = '2DXY' ignored
Warning: card / ignored

     Current dimensions of program PWSCF are:
     Max number of different atomic species (ntypx) = 10
     Max number of k-points (npk) =  40000
     Max angular momentum in pseudopotentials (lmaxx) =  4
     file O.pbe-n-kjpaw_psl.0.1.UPF: wavefunction(s)  2P renormalized

     IMPORTANT: XC functional enforced from input :
     Exchange-correlation= RVV10
                           (   1   4  13   4  26   0   0)
     Any further DFT definition will be discarded
     Please, verify this is what you really want


     gamma-point specific algorithms are used
     signal trapping enabled: kill the code with -SIGUSR1 to stop cleanly the simulation 
 
     R & G space division:  proc/nbgrp/npool/nimage =      48
     Subspace diagonalization in iterative solution of the eigenvalue problem:
     one sub-group per band group will be used
     scalapack distributed-memory algorithm (size of sub-group:  2*  2 procs)

 
     Parallelization info
     --------------------
     sticks:   dense  smooth     PW     G-vecs:    dense   smooth      PW
     Min         396     194     47               101632    35090    4376
     Max         398     196     50               101674    35128    4410
     Sum       19091    9389   2349              4879585  1685513  210763
 
     Using Slab Decomposition
 


     bravais-lattice index     =            0
     lattice parameter (alat)  =      17.8707  a.u.
     unit-cell volume          =   17436.2743 (a.u.)^3
     number of atoms/cell      =           36
     number of atomic types    =            3
     number of electrons       =       312.00
     number of Kohn-Sham states=          187
     kinetic-energy cutoff     =      80.0000  Ry
     charge density cutoff     =     650.0000  Ry
     scf convergence threshold =      1.0E-06
     mixing beta               =       0.7000
     number of iterations used =            8  local-TF  mixing
     energy convergence thresh.=      1.0E-04
     force convergence thresh. =      1.0E-02
     Exchange-correlation= RVV10
                           (   1   4  13   4  26   0   0)
     nstep                     =          200


     celldm(1)=  17.870686  celldm(2)=   0.000000  celldm(3)=   0.000000
     celldm(4)=   0.000000  celldm(5)=   0.000000  celldm(6)=   0.000000

     crystal axes: (cart. coord. in units of alat)
               a(1) = (   1.000000   0.000000   0.000000 )  
               a(2) = (   0.000000   1.155671   0.000000 )  
               a(3) = (   0.000000   0.000000   2.643601 )  

     reciprocal axes: (cart. coord. in units 2 pi/alat)
               b(1) = (  1.000000  0.000000  0.000000 )  
               b(2) = (  0.000000  0.865298  0.000000 )  
               b(3) = (  0.000000  0.000000  0.378272 )  


     PseudoPot. # 1 for Mo read from file:
     ../pseudo/Mo_ONCV_PBE-1.0.oncvpsp.upf
     MD5 check sum: 1b5d28e075c9ccadda658a603575cd1f
     Pseudo is Norm-conserving, Zval = 14.0
     Generated using ONCVPSP code by D. R. Hamann
     Using radial grid of 1526 points,  6 beta functions with: 
                l(1) =   0
                l(2) =   0
                l(3) =   1
                l(4) =   1
                l(5) =   2
                l(6) =   2

     PseudoPot. # 2 for S  read from file:
     ../pseudo/s_pbe_v1.4.uspp.F.UPF
     MD5 check sum: 88d86576ff6df21479756cfb9bdac1df
     Pseudo is Ultrasoft + core correction, Zval =  6.0
     Generated by new atomic code, or converted to UPF format
     Using radial grid of  907 points,  6 beta functions with: 
                l(1) =   0
                l(2) =   0
                l(3) =   1
                l(4) =   1
                l(5) =   2
                l(6) =   2
     Q(r) pseudized with  8 coefficients,  rinner =    1.300   1.300   1.300
                                                       1.300   1.300

     PseudoPot. # 3 for O  read from file:
     ../pseudo/O.pbe-n-kjpaw_psl.0.1.UPF
     MD5 check sum: 0234752ac141de4415c5fc33072bef88
     Pseudo is Projector augmented-wave + core cor, Zval =  6.0
     Generated using "atomic" code by A. Dal Corso  v.5.0.99 svn rev. 10869
     Shape of augmentation charge: BESSEL
     Using radial grid of 1095 points,  4 beta functions with: 
                l(1) =   0
                l(2) =   0
                l(3) =   1
                l(4) =   1
     Q(r) pseudized with 0 coefficients 


     atomic species   valence    mass     pseudopotential
        Mo            14.00    95.94000     Mo( 1.00)
        S              6.00    32.06500     S ( 1.00)
        O              6.00    15.99940     O ( 1.00)

     No symmetry found



   Cartesian axes

     site n.     atom                  positions (alat units)
         1           Mo  tau(   1) = (   0.6952221   0.1890506   0.2985846  )
         2           S   tau(   2) = (   0.8646417   0.0856217   0.4689279  )
         3           S   tau(   3) = (   0.8663890   0.0857843   0.1351291  )
         4           Mo  tau(   4) = (   0.8560186   0.4753274   0.2873942  )
         5           S   tau(   5) = (   0.6873294   0.3936244   0.4596353  )
         6           S   tau(   6) = (   0.6929804   0.3713468   0.1185692  )
         7           Mo  tau(   7) = (   0.6862796   0.7633098   0.2825370  )
         8           S   tau(   8) = (   0.8545980   0.6708292   0.4486168  )
         9           S   tau(   9) = (   0.8545123   0.6666874   0.1146125  )
        10           Mo  tau(  10) = (   0.8629403   1.0471007   0.3006803  )
        11           S   tau(  11) = (   0.6868280   0.9456650   0.4634891  )
        12           S   tau(  12) = (   0.6998113   0.9568511   0.1205389  )
        13           Mo  tau(  13) = (   0.3618216   0.1847309   0.2935964  )
        14           S   tau(  14) = (   0.5260962   0.0863870   0.4600448  )
        15           S   tau(  15) = (   0.5348379   0.0894875   0.1297123  )
        16           Mo  tau(  16) = (   0.5265817   0.4772436   0.2784130  )
        17           S   tau(  17) = (   0.3624753   0.3882513   0.4525556  )
        18           S   tau(  18) = (   0.3635411   0.3752055   0.1119148  )
        19           Mo  tau(  19) = (   0.3652268   0.7630864   0.2781795  )
        20           S   tau(  20) = (   0.5269494   0.6690381   0.1096838  )
        21           Mo  tau(  21) = (   0.5300192   1.0470394   0.2900995  )
        22           S   tau(  22) = (   0.3670346   0.9457522   0.4574073  )
        23           S   tau(  23) = (   0.3604225   0.9585725   0.1159032  )
        24           Mo  tau(  24) = (   0.0313099   0.1847895   0.3013130  )
        25           S   tau(  25) = (   0.1956761   0.0838230   0.4650863  )
        26           S   tau(  26) = (   0.1967693   0.0903508   0.1278874  )
        27           Mo  tau(  27) = (   0.1967578   0.4753919   0.2813011  )
        28           S   tau(  28) = (   0.0287851   0.3864324   0.4586755  )
        29           S   tau(  29) = (   0.0244514   0.3729871   0.1239344  )
        30           Mo  tau(  30) = (   0.0286728   0.7631204   0.2856894  )
        31           S   tau(  31) = (   0.2011512   0.6675435   0.4465001  )
        32           S   tau(  32) = (   0.1969214   0.6672839   0.1104564  )
        33           Mo  tau(  33) = (   0.1950294   1.0511147   0.2932237  )
        34           S   tau(  34) = (   0.0312912   0.9612169   0.4667423  )
        35           S   tau(  35) = (   0.0292670   0.9563028   0.1216485  )
        36           O   tau(  36) = (   0.3333333   1.1556707   0.5792558  )

     number of k points=     1  Gaussian smearing, width (Ry)=  0.0100
                       cart. coord. in units 2pi/alat
        k(    1) = (   0.0000000   0.0000000   0.0000000), wk =   2.0000000

     Dense  grid:  2439793 G-vectors     FFT dimensions: ( 150, 180, 384)

     Smooth grid:   842757 G-vectors     FFT dimensions: ( 108, 120, 270)

     Estimated max dynamical RAM per process >     269.22 MB

     Estimated total dynamical RAM >      12.62 GB

     Initial potential from superposition of free atoms

     starting charge     311.9873, renormalised to     312.0000

     negative rho (up, down):  2.751E-04 0.000E+00


---------------------------------------------------------------------------------
Carrying out rVV10 run using the following parameters:
Nqs =      20    Nr_points =    1024   r_max =   100.000
b_value =  6.30000    beta =  0.00901
     q_mesh =  0.00010000  0.00030000  0.00058939  0.00100810
               0.00161396  0.00249058  0.00375900  0.00559430
               0.00824984  0.01209221  0.01765183  0.02569619
               0.03733578  0.05417739  0.07854596  0.11380545
               0.16482331  0.23864234  0.34545298  0.50000000

Gradients computed in Reciprocal space

---------------------------------------------------------------------------------


     Starting wfcs are  216 randomized atomic wfcs
     Checking if some PAW data can be deallocated... 

     total cpu time spent up to now is        5.4 secs

     Self-consistent Calculation

     iteration #  1     ecut=    80.00 Ry     beta= 0.70
     Davidson diagonalization with overlap
     ethr =  1.00E-02,  avg # of iterations =  2.0

     Threshold (ethr) on eigenvalues was too large:
     Diagonalizing with lowered threshold

     Davidson diagonalization with overlap
     ethr =  4.49E-04,  avg # of iterations =  4.0

     negative rho (up, down):  3.416E-08 0.000E+00

     total cpu time spent up to now is       20.2 secs

     total energy              =   -2246.16518660 Ry
     estimated scf accuracy    <       1.64928298 Ry

     iteration #  2     ecut=    80.00 Ry     beta= 0.70
     Davidson diagonalization with overlap
     ethr =  5.29E-04,  avg # of iterations =  4.0

     total cpu time spent up to now is       25.6 secs

     total energy              =   -2246.17609224 Ry
     estimated scf accuracy    <       0.75831744 Ry

     iteration #  3     ecut=    80.00 Ry     beta= 0.70
     Davidson diagonalization with overlap
     ethr =  2.43E-04,  avg # of iterations =  4.0

     total cpu time spent up to now is       29.5 secs

     total energy              =   -2246.15493449 Ry
     estimated scf accuracy    <       0.25460094 Ry

     iteration #  4     ecut=    80.00 Ry     beta= 0.70
     Davidson diagonalization with overlap
     ethr =  8.16E-05,  avg # of iterations =  9.0

     total cpu time spent up to now is       33.9 secs

     total energy              =   -2246.20283903 Ry
     estimated scf accuracy    <       0.02897204 Ry

     iteration #  5     ecut=    80.00 Ry     beta= 0.70
     Davidson diagonalization with overlap
     c_bands:  1 eigenvalues not converged
     ethr =  9.29E-06,  avg # of iterations = 20.0

     total cpu time spent up to now is       38.8 secs

     total energy              =   -2246.20436148 Ry
     estimated scf accuracy    <       0.01588328 Ry

     iteration #  6     ecut=    80.00 Ry     beta= 0.70
     Davidson diagonalization with overlap
     ethr =  5.09E-06,  avg # of iterations =  2.0

     total cpu time spent up to now is       42.5 secs

     total energy              =   -2246.20352457 Ry
     estimated scf accuracy    <       0.01095524 Ry

     iteration #  7     ecut=    80.00 Ry     beta= 0.70
     Davidson diagonalization with overlap
     ethr =  3.51E-06,  avg # of iterations =  2.0

     total cpu time spent up to now is       46.3 secs

     total energy              =   -2246.20244753 Ry
     estimated scf accuracy    <       0.00697945 Ry

     iteration #  8     ecut=    80.00 Ry     beta= 0.70
     Davidson diagonalization with overlap
     ethr =  2.24E-06,  avg # of iterations =  2.0

     negative rho (up, down):  8.090E-03 0.000E+00

     total cpu time spent up to now is       52.4 secs

     total energy              =   -2246.20165607 Ry
     estimated scf accuracy    <       0.00373327 Ry

     iteration #  9     ecut=    80.00 Ry     beta= 0.70
     Davidson diagonalization with overlap
     ethr =  1.20E-06,  avg # of iterations =  2.0

     negative rho (up, down):  1.978E-02 0.000E+00

     total cpu time spent up to now is       59.0 secs

     total energy              =   -2246.20148682 Ry
     estimated scf accuracy    <       0.00214620 Ry

     iteration # 10     ecut=    80.00 Ry     beta= 0.70
     Davidson diagonalization with overlap
     ethr =  6.88E-07,  avg # of iterations =  1.0

     negative rho (up, down):  2.159E-02 0.000E+00

     total cpu time spent up to now is       65.6 secs

     total energy              =   -2246.20154516 Ry
     estimated scf accuracy    <       0.00086697 Ry

     iteration # 11     ecut=    80.00 Ry     beta= 0.70
     Davidson diagonalization with overlap
     ethr =  2.78E-07,  avg # of iterations =  2.0

     negative rho (up, down):  1.233E-02 0.000E+00

     total cpu time spent up to now is       73.6 secs

     total energy              =   -2246.20155175 Ry
     estimated scf accuracy    <       0.00022732 Ry

     iteration # 12     ecut=    80.00 Ry     beta= 0.70
     Davidson diagonalization with overlap
     ethr =  7.29E-08,  avg # of iterations =  5.0

     negative rho (up, down):  3.652E-03 0.000E+00

     total cpu time spent up to now is       82.4 secs

     total energy              =   -2246.20161015 Ry
     estimated scf accuracy    <       0.00003926 Ry

     iteration # 13     ecut=    80.00 Ry     beta= 0.70
     Davidson diagonalization with overlap
     ethr =  1.26E-08,  avg # of iterations =  8.0

     negative rho (up, down):  1.310E-03 0.000E+00

     total cpu time spent up to now is       93.8 secs

     total energy              =   -2246.20163310 Ry
     estimated scf accuracy    <       0.00001099 Ry

     iteration # 14     ecut=    80.00 Ry     beta= 0.70
     Davidson diagonalization with overlap
     ethr =  3.52E-09,  avg # of iterations =  2.0

     negative rho (up, down):  5.366E-04 0.000E+00

     total cpu time spent up to now is      104.1 secs

     total energy              =   -2246.20163416 Ry
     estimated scf accuracy    <       0.00000388 Ry

     iteration # 15     ecut=    80.00 Ry     beta= 0.70
     Davidson diagonalization with overlap
     ethr =  1.24E-09,  avg # of iterations =  2.0

     negative rho (up, down):  3.449E-04 0.000E+00

     total cpu time spent up to now is      111.3 secs

     total energy              =   -2246.20163919 Ry
     estimated scf accuracy    <       0.00000159 Ry

     iteration # 16     ecut=    80.00 Ry     beta= 0.70
     Davidson diagonalization with overlap
     ethr =  5.09E-10,  avg # of iterations =  3.0

     negative rho (up, down):  2.098E-04 0.000E+00

     total cpu time spent up to now is      114.9 secs

     End of self-consistent calculation

          k = 0.0000 0.0000 0.0000 (105382 PWs)   bands (ev):

   -63.1104 -63.0196 -62.9950 -62.9521 -62.9377 -62.9169 -62.9048 -62.9034
   -62.8938 -62.8831 -62.8390 -62.8178 -37.4038 -37.3581 -37.2962 -37.2759
   -37.2662 -37.2512 -37.2298 -37.1940 -37.1897 -37.1758 -37.1714 -37.1656
   -37.1548 -37.1402 -37.1247 -37.1173 -37.1041 -37.0892 -37.0788 -37.0743
   -37.0698 -37.0536 -37.0480 -37.0449 -37.0274 -37.0232 -37.0128 -37.0064
   -37.0014 -36.9774 -36.9607 -36.9571 -36.9367 -36.8864 -36.8666 -36.7953
   -19.5873 -16.0300 -15.3065 -15.2212 -15.1235 -15.0281 -14.8398 -14.7270
   -14.6024 -14.5725 -14.5170 -14.4922 -14.4758 -14.3955 -14.3343 -14.2727
   -14.2544 -14.2279 -14.1661 -14.0649 -14.0034 -13.9648 -13.9309 -13.9154
    -7.7895  -7.6445  -7.5711  -7.4543  -7.3997  -7.3732  -7.3536  -7.2872
    -7.2357  -7.0175  -6.9092  -6.8912  -6.8347  -6.8084  -6.6783  -6.6347
    -6.5511  -6.4943  -6.3717  -6.3687  -6.1813  -6.1091  -6.0256  -5.9397
    -5.9318  -5.9075  -5.8170  -5.8034  -5.7501  -5.7125  -5.6811  -5.6238
    -5.6184  -5.5582  -5.5016  -5.4375  -5.2645  -5.2180  -5.1642  -5.1217
    -5.0891  -5.0322  -4.9295  -4.8032  -4.7319  -4.5775  -4.4599  -4.4270
    -4.3684  -4.3437  -4.1768  -4.1382  -4.0087  -3.9978  -3.9089  -3.8893
    -3.8442  -3.8160  -3.7226  -3.6761  -3.6488  -3.6054  -3.5875  -3.5615
    -3.5134  -3.4862  -3.3440  -3.2681  -3.1136  -3.0138  -2.9266  -2.9141
    -2.8739  -2.8432  -2.7821  -2.7642  -2.7482  -2.6739  -2.3947  -2.3616
    -2.1317  -2.0312  -1.9689  -1.8865  -1.4985  -0.9117  -0.8101  -0.2861
    -0.2544  -0.2004  -0.1092  -0.0849   0.0155   0.0342   0.1448   0.1625
     0.2164   0.2585   0.3098   0.3467   0.4287   0.4569   0.4816   0.5234
     0.5480   0.6075   0.6631   0.6766   0.7305   0.7453   0.8278   0.8368
     0.8557   0.9310   1.1477

     the Fermi energy is    -1.6906 ev

!    total energy              =   -2246.20163862 Ry
     estimated scf accuracy    <       0.00000056 Ry
     smearing contrib. (-TS)   =      -0.00157489 Ry
     internal energy E=F+TS    =   -2246.20006372 Ry

     The total energy is F=E-TS. E is the sum of the following terms:
     one-electron contribution =  -18436.17372037 Ry
     hartree contribution      =    9205.97963153 Ry
     xc contribution           =    -391.90227875 Ry
     ewald contribution        =    7385.76900800 Ry
     one-center paw contrib.   =      -9.87270414 Ry

     convergence has been achieved in  16 iterations

     negative rho (up, down):  2.098E-04 0.000E+00

     Forces acting on atoms (cartesian axes, Ry/au):

     atom    1 type  1   force =     0.01981931   -0.02475245   -0.00317409
     atom    2 type  2   force =    -0.02235065    0.01555226   -0.00126800
     atom    3 type  2   force =    -0.00881786    0.00778207   -0.00600508
     atom    4 type  1   force =     0.00412529    0.00647705   -0.00112770
     atom    5 type  2   force =    -0.00233194   -0.00670010   -0.00434541
     atom    6 type  2   force =     0.00142222    0.01200787   -0.00143334
     atom    7 type  1   force =     0.00783621   -0.01582172   -0.00763376
     atom    8 type  2   force =     0.00106574   -0.00300907    0.01679423
     atom    9 type  2   force =     0.01233952    0.00612197    0.01182435
     atom   10 type  1   force =    -0.00777450    0.00732104   -0.02637750
     atom   11 type  2   force =     0.00500971   -0.00179658   -0.00589622
     atom   12 type  2   force =     0.00177204    0.00067597    0.00391735
     atom   13 type  1   force =     0.01205734    0.01656562   -0.02322935
     atom   14 type  2   force =     0.02131791    0.00682587   -0.00815822
     atom   15 type  2   force =    -0.01151724    0.00341959   -0.00698069
     atom   16 type  1   force =    -0.00110802    0.01046624    0.00445256
     atom   17 type  2   force =     0.00646863    0.00091221    0.00284054
     atom   18 type  2   force =    -0.00161184   -0.00261095    0.01307966
     atom   19 type  1   force =     0.00733154   -0.01951573   -0.00802650
     atom   20 type  2   force =     0.00359457   -0.00283385    0.00084761
     atom   21 type  1   force =    -0.00807253    0.00706589   -0.00214722
     atom   22 type  2   force =    -0.00056089   -0.00340297   -0.01961635
     atom   23 type  2   force =    -0.00080093    0.00222670    0.01062426
     atom   24 type  1   force =    -0.01939274    0.02837920   -0.02481148
     atom   25 type  2   force =     0.13795174   -0.07054728    0.07932358
     atom   26 type  2   force =    -0.01185158   -0.00082722   -0.00357616
     atom   27 type  1   force =     0.00054361   -0.00843242    0.00552022
     atom   28 type  2   force =    -0.00221082    0.00257368   -0.00703482
     atom   29 type  2   force =     0.00042803   -0.00557471   -0.00355269
     atom   30 type  1   force =    -0.00474443    0.01280197   -0.00388052
     atom   31 type  2   force =     0.00126575   -0.00086076    0.01701986
     atom   32 type  2   force =    -0.01040476    0.00755925    0.00702960
     atom   33 type  1   force =     0.00436942   -0.01469477   -0.02882780
     atom   34 type  2   force =     0.00372601   -0.04258874   -0.00649918
     atom   35 type  2   force =    -0.01049278    0.00653930    0.01495418
     atom   36 type  3   force =    -0.12840108    0.06269553    0.01537409
     The non-local contrib.  to forces
     atom    1 type  1   force =    -0.02310834    0.02716421   -0.00221348
     atom    2 type  2   force =    -0.01537829    0.00253786   -0.27046181
     atom    3 type  2   force =    -0.01130442   -0.00231164    0.27126659
     atom    4 type  1   force =    -0.00310506    0.00788168    0.00460693
     atom    5 type  2   force =     0.00498343   -0.03139781   -0.25624306
     atom    6 type  2   force =    -0.00313910    0.01362739    0.26103106
     atom    7 type  1   force =    -0.01931263    0.00500548   -0.01940910
     atom    8 type  2   force =     0.00433205   -0.00272489   -0.25642526
     atom    9 type  2   force =     0.00652784   -0.00763191    0.27877870
     atom   10 type  1   force =     0.00167867   -0.00093075    0.00034400
     atom   11 type  2   force =     0.01717211    0.00414553   -0.26188759
     atom   12 type  2   force =    -0.01089189   -0.01701152    0.26342569
     atom   13 type  1   force =    -0.00038271    0.01897669    0.00791519
     atom   14 type  2   force =    -0.01809630   -0.02238570   -0.25974086
     atom   15 type  2   force =    -0.01423999   -0.00423274    0.25598841
     atom   16 type  1   force =     0.00472840    0.02474690   -0.02465910
     atom   17 type  2   force =     0.00293687   -0.03307480   -0.25075017
     atom   18 type  2   force =    -0.00424644   -0.00301827    0.27328719
     atom   19 type  1   force =     0.01348407    0.02676670   -0.00230831
     atom   20 type  2   force =    -0.00215321   -0.02286172    0.26872923
     atom   21 type  1   force =     0.00630892    0.02230767    0.01387218
     atom   22 type  2   force =     0.00307828    0.04599876   -0.22102548
     atom   23 type  2   force =     0.00625575   -0.01382281    0.26655355
     atom   24 type  1   force =    -0.00955888    0.00058180   -0.00964134
     atom   25 type  2   force =     0.34518824   -0.16634469    0.10962466
     atom   26 type  2   force =    -0.00375498   -0.01148121    0.26474445
     atom   27 type  1   force =    -0.00174698    0.01418415    0.00964800
     atom   28 type  2   force =    -0.00593173   -0.01967358   -0.27060303
     atom   29 type  2   force =     0.00594203   -0.00336811    0.26820302
     atom   30 type  1   force =    -0.00006039    0.01810092    0.01000524
     atom   31 type  2   force =    -0.01034429   -0.00289547   -0.24934021
     atom   32 type  2   force =    -0.00608753   -0.00980854    0.27465919
     atom   33 type  1   force =    -0.00806020    0.00705181    0.01273066
     atom   34 type  2   force =     0.00384533   -0.03583159   -0.27714110
     atom   35 type  2   force =    -0.00257243   -0.01190433    0.27125937
     atom   36 type  3   force =    -0.71508074    0.48877649   -0.71877706
     The ionic contribution  to forces
     atom    1 type  1   force =     1.18002243    0.95234255    4.04491575
     atom    2 type  2   force =    -0.85644334    0.60955007   38.91830163
     atom    3 type  2   force =    -0.20568025    0.08495617  -36.75237068
     atom    4 type  1   force =     0.04840770    0.86140121   -0.29477105
     atom    5 type  2   force =    -0.72588264    1.87404868   38.48684351
     atom    6 type  2   force =     0.41702034   -0.36686393  -38.56849259
     atom    7 type  1   force =    -2.27782708   -3.33484827    1.40664740
     atom    8 type  2   force =    -1.01049167   -0.12408473   37.16946250
     atom    9 type  2   force =     0.33315758   -0.09250820  -38.47809073
     atom   10 type  1   force =    -1.31492816   -0.69583307    4.14883996
     atom   11 type  2   force =     0.07351735   -2.16721702   38.71725351
     atom   12 type  2   force =     0.55974628    0.55071489  -38.51053062
     atom   13 type  1   force =     0.80529253    3.18836760   -1.16971467
     atom   14 type  2   force =     2.89935661    1.31639679   36.57987836
     atom   15 type  2   force =     0.38542000    0.06379735  -37.76535296
     atom   16 type  1   force =     0.28201910    4.42380466   -0.72741238
     atom   17 type  2   force =     0.89067465    2.47031425   37.44257503
     atom   18 type  2   force =    -0.14247410   -0.43611136  -39.23331320
     atom   19 type  1   force =     2.81929885   -3.53800365   -1.01100282
     atom   20 type  2   force =     0.29181036   -0.28266102  -39.01685124
     atom   21 type  1   force =     1.74512419   -1.00214473   -2.21668393
     atom   22 type  2   force =     0.94438608   -4.79708181   36.51515020
     atom   23 type  2   force =    -0.05465027    0.40672450  -39.24313064
     atom   24 type  1   force =    -1.66945792    2.06357033    3.87020140
     atom   25 type  2   force =    -3.22799797    2.68937741   35.88219595
     atom   26 type  2   force =    -0.47758873    0.21188177  -38.39110805
     atom   27 type  1   force =    -0.23136299    0.95225908   -3.52214555
     atom   28 type  2   force =    -0.26156670    1.47210196   37.91268557
     atom   29 type  2   force =    -0.35553296   -0.27789102  -37.82988822
     atom   30 type  1   force =    -0.75767866   -1.54305178   -1.26174965
     atom   31 type  2   force =     1.06268326   -0.40407871   37.01097342
     atom   32 type  2   force =    -0.53186789   -0.09724838  -39.18838200
     atom   33 type  1   force =    -0.87384930   -2.20554429   -2.20801588
     atom   34 type  2   force =    -0.71756432   -2.19779679   38.80691065
     atom   35 type  2   force =    -0.45594897    0.31307024  -38.52488872
     atom   36 type  3   force =     1.41085664   -0.94171074   47.00106074
     The local contribution  to forces
     atom    1 type  1   force =    -1.13693559   -1.00430664   -4.04662327
     atom    2 type  2   force =     0.84921408   -0.59631520  -38.67000523
     atom    3 type  2   force =     0.20780285   -0.07483586   36.49549375
     atom    4 type  1   force =    -0.04102259   -0.86289806    0.28830988
     atom    5 type  2   force =     0.71916401   -1.85110167  -38.25553186
     atom    6 type  2   force =    -0.41276975    0.36643053   38.32622443
     atom    7 type  1   force =     2.30491164    3.31397840   -1.39554799
     atom    8 type  2   force =     1.00738104    0.12332198  -36.91686019
     atom    9 type  2   force =    -0.32720464    0.10580671   38.23169690
     atom   10 type  1   force =     1.30546813    0.70419859   -4.17629794
     atom   11 type  2   force =    -0.08481750    2.16167282  -38.48210711
     atom   12 type  2   force =    -0.54811018   -0.53437735   38.27132558
     atom   13 type  1   force =    -0.79293728   -3.19066891    1.13764363
     atom   14 type  2   force =    -2.85969529   -1.28741160  -36.34959494
     atom   15 type  2   force =    -0.38346169   -0.05640915   37.52214046
     atom   16 type  1   force =    -0.28789840   -4.43799146    0.75581537
     atom   17 type  2   force =    -0.88721547   -2.43800429  -37.20939333
     atom   18 type  2   force =     0.14497371    0.43701756   38.99357371
     atom   19 type  1   force =    -2.82541680    3.49165021    1.00457820
     atom   20 type  2   force =    -0.28626019    0.30179631   38.76975680
     atom   21 type  1   force =    -1.75941708    0.98693621    2.19974291
     atom   22 type  2   force =    -0.94745683    4.74901505  -36.33326132
     atom   23 type  2   force =     0.04807982   -0.39187894   39.00744447
     atom   24 type  1   force =     1.65955269   -2.03573865   -3.88608474
     atom   25 type  2   force =     3.03881707   -2.60237540  -35.91401207
     atom   26 type  2   force =     0.46951309   -0.20177126   38.14321828
     atom   27 type  1   force =     0.23354064   -0.97491948    3.51726638
     atom   28 type  2   force =     0.26499235   -1.45164230  -37.67004171
     atom   29 type  2   force =     0.35056251    0.27589745   37.57841313
     atom   30 type  1   force =     0.75301572    1.53769981    1.24710141
     atom   31 type  2   force =    -1.05164606    0.40581369  -36.76507531
     atom   32 type  2   force =     0.52744618    0.11399122   38.94129585
     atom   33 type  1   force =     0.88616310    2.18382719    2.16548069
     atom   34 type  2   force =     0.71718681    2.18991543  -38.55771383
     atom   35 type  2   force =     0.44808011   -0.29561208   38.28911476
     atom   36 type  3   force =    -0.83254655    0.52133294  -46.27476220
     The core correction contribution to forces
     atom    1 type  1   force =     0.00000000    0.00000000    0.00000000
     atom    2 type  2   force =     0.00030249   -0.00016524    0.02081000
     atom    3 type  2   force =     0.00041172    0.00001600   -0.02092556
     atom    4 type  1   force =     0.00000000    0.00000000    0.00000000
     atom    5 type  2   force =    -0.00056801    0.00173203    0.02055008
     atom    6 type  2   force =     0.00035290   -0.00125364   -0.02076856
     atom    7 type  1   force =     0.00000000    0.00000000    0.00000000
     atom    8 type  2   force =    -0.00014963    0.00049642    0.02054276
     atom    9 type  2   force =    -0.00010797    0.00047320   -0.02109704
     atom   10 type  1   force =     0.00000000    0.00000000    0.00000000
     atom   11 type  2   force =    -0.00082673   -0.00043994    0.02079111
     atom   12 type  2   force =     0.00103487    0.00137643   -0.02086909
     atom   13 type  1   force =     0.00000000    0.00000000    0.00000000
     atom   14 type  2   force =    -0.00010652    0.00028613    0.02114736
     atom   15 type  2   force =     0.00077001    0.00026513   -0.02033806
     atom   16 type  1   force =     0.00000000    0.00000000    0.00000000
     atom   17 type  2   force =     0.00003232    0.00170590    0.02034994
     atom   18 type  2   force =     0.00008236   -0.00055689   -0.02102897
     atom   19 type  1   force =     0.00000000    0.00000000    0.00000000
     atom   20 type  2   force =     0.00019796    0.00091995   -0.02131485
     atom   21 type  1   force =     0.00000000    0.00000000    0.00000000
     atom   22 type  2   force =    -0.00054786   -0.00150786    0.01939375
     atom   23 type  2   force =    -0.00050175    0.00122622   -0.02082330
     atom   24 type  1   force =     0.00000000    0.00000000    0.00000000
     atom   25 type  2   force =    -0.01828583    0.00895253    0.00129123
     atom   26 type  2   force =    -0.00008519    0.00058310   -0.02098779
     atom   27 type  1   force =     0.00000000    0.00000000    0.00000000
     atom   28 type  2   force =     0.00029661    0.00172999    0.02083288
     atom   29 type  2   force =    -0.00053775   -0.00029378   -0.02079721
     atom   30 type  1   force =     0.00000000    0.00000000    0.00000000
     atom   31 type  2   force =     0.00056495    0.00028629    0.02037654
     atom   32 type  2   force =     0.00006572    0.00062993   -0.02106801
     atom   33 type  1   force =     0.00000000    0.00000000    0.00000000
     atom   34 type  2   force =     0.00020797    0.00108291    0.02139587
     atom   35 type  2   force =    -0.00004928    0.00100111   -0.02110883
     atom   36 type  3   force =     0.00828388   -0.00565370    0.00758144
     The Hubbard contrib.    to forces
     atom    1 type  1   force =     0.00000000    0.00000000    0.00000000
     atom    2 type  2   force =     0.00000000    0.00000000    0.00000000
     atom    3 type  2   force =     0.00000000    0.00000000    0.00000000
     atom    4 type  1   force =     0.00000000    0.00000000    0.00000000
     atom    5 type  2   force =     0.00000000    0.00000000    0.00000000
     atom    6 type  2   force =     0.00000000    0.00000000    0.00000000
     atom    7 type  1   force =     0.00000000    0.00000000    0.00000000
     atom    8 type  2   force =     0.00000000    0.00000000    0.00000000
     atom    9 type  2   force =     0.00000000    0.00000000    0.00000000
     atom   10 type  1   force =     0.00000000    0.00000000    0.00000000
     atom   11 type  2   force =     0.00000000    0.00000000    0.00000000
     atom   12 type  2   force =     0.00000000    0.00000000    0.00000000
     atom   13 type  1   force =     0.00000000    0.00000000    0.00000000
     atom   14 type  2   force =     0.00000000    0.00000000    0.00000000
     atom   15 type  2   force =     0.00000000    0.00000000    0.00000000
     atom   16 type  1   force =     0.00000000    0.00000000    0.00000000
     atom   17 type  2   force =     0.00000000    0.00000000    0.00000000
     atom   18 type  2   force =     0.00000000    0.00000000    0.00000000
     atom   19 type  1   force =     0.00000000    0.00000000    0.00000000
     atom   20 type  2   force =     0.00000000    0.00000000    0.00000000
     atom   21 type  1   force =     0.00000000    0.00000000    0.00000000
     atom   22 type  2   force =     0.00000000    0.00000000    0.00000000
     atom   23 type  2   force =     0.00000000    0.00000000    0.00000000
     atom   24 type  1   force =     0.00000000    0.00000000    0.00000000
     atom   25 type  2   force =     0.00000000    0.00000000    0.00000000
     atom   26 type  2   force =     0.00000000    0.00000000    0.00000000
     atom   27 type  1   force =     0.00000000    0.00000000    0.00000000
     atom   28 type  2   force =     0.00000000    0.00000000    0.00000000
     atom   29 type  2   force =     0.00000000    0.00000000    0.00000000
     atom   30 type  1   force =     0.00000000    0.00000000    0.00000000
     atom   31 type  2   force =     0.00000000    0.00000000    0.00000000
     atom   32 type  2   force =     0.00000000    0.00000000    0.00000000
     atom   33 type  1   force =     0.00000000    0.00000000    0.00000000
     atom   34 type  2   force =     0.00000000    0.00000000    0.00000000
     atom   35 type  2   force =     0.00000000    0.00000000    0.00000000
     atom   36 type  3   force =     0.00000000    0.00000000    0.00000000
     The SCF correction term to forces
     atom    1 type  1   force =    -0.00016110    0.00004831    0.00071384
     atom    2 type  2   force =    -0.00004750   -0.00005436    0.00005434
     atom    3 type  2   force =    -0.00004967   -0.00004172    0.00049776
     atom    4 type  1   force =    -0.00015667    0.00009308    0.00069347
     atom    5 type  2   force =    -0.00003064    0.00001954    0.00000284
     atom    6 type  2   force =    -0.00004408    0.00006839    0.00053924
     atom    7 type  1   force =     0.00006237    0.00004354    0.00064285
     atom    8 type  2   force =    -0.00000796   -0.00001699    0.00004134
     atom    9 type  2   force =    -0.00003519   -0.00001696    0.00050345
     atom   10 type  1   force =     0.00000495   -0.00011286    0.00070340
     atom   11 type  2   force =    -0.00003743    0.00004290    0.00002078
     atom   12 type  2   force =    -0.00000895   -0.00002561    0.00053272
     atom   13 type  1   force =     0.00008290   -0.00010888    0.00089343
     atom   14 type  2   force =    -0.00014249   -0.00005888    0.00011878
     atom   15 type  2   force =    -0.00000748   -0.00000013    0.00054838
     atom   16 type  1   force =     0.00004097   -0.00009299    0.00067561
     atom   17 type  2   force =     0.00003836   -0.00002798    0.00002600
     atom   18 type  2   force =     0.00005071    0.00005888    0.00052785
     atom   19 type  1   force =    -0.00003649    0.00007188    0.00067335
     atom   20 type  2   force =    -0.00000226   -0.00002649    0.00049460
     atom   21 type  1   force =    -0.00009047   -0.00003240    0.00088855
     atom   22 type  2   force =    -0.00002247    0.00017376    0.00009343
     atom   23 type  2   force =     0.00001361   -0.00002140    0.00054711
     atom   24 type  1   force =     0.00006947   -0.00003342    0.00068013
     atom   25 type  2   force =     0.00022833   -0.00015626    0.00019074
     atom   26 type  2   force =     0.00006232   -0.00003875    0.00052388
     atom   27 type  1   force =     0.00011103    0.00004470    0.00071831
     atom   28 type  2   force =    -0.00000326    0.00005849    0.00005840
     atom   29 type  2   force =    -0.00000771    0.00008163    0.00048353
     atom   30 type  1   force =    -0.00002301    0.00005389    0.00072941
     atom   31 type  2   force =     0.00000598    0.00001431    0.00005236
     atom   32 type  2   force =     0.00003686   -0.00000410    0.00049150
     atom   33 type  1   force =     0.00011392   -0.00002860    0.00094365
     atom   34 type  2   force =     0.00004831    0.00004218    0.00001617
     atom   35 type  2   force =    -0.00000412   -0.00001476    0.00054453
     atom   36 type  3   force =     0.00008378   -0.00004859    0.00023810

     Total force =     0.253898     Total SCF correction =     0.003245

     BFGS Geometry Optimization
     Energy error            =      0.0E+00 Ry
     Gradient error          =      1.4E-01 Ry/Bohr

     number of scf cycles    =   1
     number of bfgs steps    =   0

     energy             new  =   -2246.2016386168 Ry

     new trust radius        =       0.1740684705 bohr
     new conv_thr            =       0.0000010000 Ry


ATOMIC_POSITIONS (angstrom)
Mo            6.5850363358        1.7747077981        2.8219633747
S             8.1648818816        0.8179339273        4.4338673540
S             8.1885668764        0.8153598413        1.2747056764
Mo            8.0973455719        4.4984844501        2.7172216417
S             6.4986752450        3.7188659489        4.3443611577
S             6.5541024059        3.5180918485        1.1205217384
Mo            6.4941284412        7.2100647925        2.6678448738
S             8.0822916953        6.3422786588        4.2513486845
S             8.0874474416        6.3079419235        1.0901201752
Mo            8.1565049575        9.9060545395        2.8295033908
S             6.4978186215        8.9419761069        4.3799853862
S             6.6188849209        9.0490689212        1.1419802739
Mo            3.4280401348        1.7557219988        2.7641787201
S             4.9864464444        0.8205533065        4.3462159503
S             5.0517390931        0.8480716754        1.2229644387
Mo            4.9791703414        4.5187164999        2.6352407428
S             3.4312647151        3.6720824066        4.2812127273
S             3.4370676320        3.5468470438        1.0652731380
Mo            3.4577414224        7.2059972574        2.6264294197
S             4.9851363597        6.3254326775        1.0377022661
Mo            5.0079921200        9.9053391573        2.7422647022
S             3.4706613057        8.9419504956        4.3152107851
S             3.4080053300        9.0661683047        1.1016904148
Mo            0.2858282935        1.7625271584        2.8363150396
S             1.9234631309        0.7553619944        4.4401856707
S             1.8545284496        0.8539881698        1.2075084310
Mo            1.8609789734        4.4912045187        2.6631185558
S             0.2710439339        3.6557607613        4.3338614345
S             0.2314577114        3.5242992179        1.1701378834
Mo            0.2686415044        7.2234206060        2.6996429465
S             1.9029080527        6.3123433426        4.2314506419
S             1.8567322537        6.3143439953        1.0482791863
Mo            1.8466588620        9.9323630186        2.7576912347
S             0.2978846197        9.0674608352        4.4104302486
S             0.2712188596        9.0469861653        1.1583141884
O             3.0843064075       10.9620770471        5.4860190431



     Writing config-only to output data dir ./MoS2-V-O.save/
     NEW-OLD atomic charge density approx. for the potential

     negative rho (up, down):  2.161E-04 0.000E+00

     total cpu time spent up to now is      122.2 secs

     Self-consistent Calculation

     iteration #  1     ecut=    80.00 Ry     beta= 0.70
     Davidson diagonalization with overlap
     ethr =  1.00E-06,  avg # of iterations = 15.0

     negative rho (up, down):  1.005E-04 0.000E+00

     total cpu time spent up to now is      136.4 secs

     total energy              =   -2246.25699305 Ry
     estimated scf accuracy    <       0.02314550 Ry

     iteration #  2     ecut=    80.00 Ry     beta= 0.70
     Davidson diagonalization with overlap
     ethr =  7.42E-06,  avg # of iterations =  5.0

     negative rho (up, down):  9.467E-05 0.000E+00

     total cpu time spent up to now is      149.1 secs

     total energy              =   -2246.26073949 Ry
     estimated scf accuracy    <       0.01095784 Ry

     iteration #  3     ecut=    80.00 Ry     beta= 0.70
     Davidson diagonalization with overlap
     ethr =  3.51E-06,  avg # of iterations =  4.0

     negative rho (up, down):  6.225E-05 0.000E+00

     total cpu time spent up to now is      161.8 secs

     total energy              =   -2246.26176890 Ry
     estimated scf accuracy    <       0.00057531 Ry

     iteration #  4     ecut=    80.00 Ry     beta= 0.70
     Davidson diagonalization with overlap
     ethr =  1.84E-07,  avg # of iterations =  5.0

     negative rho (up, down):  5.797E-05 0.000E+00

     total cpu time spent up to now is      174.5 secs

     total energy              =   -2246.26184791 Ry
     estimated scf accuracy    <       0.00004621 Ry

     iteration #  5     ecut=    80.00 Ry     beta= 0.70
     Davidson diagonalization with overlap
     ethr =  1.48E-08,  avg # of iterations =  5.0

     negative rho (up, down):  5.791E-05 0.000E+00

     total cpu time spent up to now is      188.8 secs

     total energy              =   -2246.26185691 Ry
     estimated scf accuracy    <       0.00000887 Ry

     iteration #  6     ecut=    80.00 Ry     beta= 0.70
     Davidson diagonalization with overlap
     ethr =  2.84E-09,  avg # of iterations =  4.0

     negative rho (up, down):  6.178E-05 0.000E+00

     total cpu time spent up to now is      199.3 secs

     total energy              =   -2246.26185824 Ry
     estimated scf accuracy    <       0.00000318 Ry

     iteration #  7     ecut=    80.00 Ry     beta= 0.70
     Davidson diagonalization with overlap
     ethr =  1.02E-09,  avg # of iterations =  4.0

     negative rho (up, down):  7.252E-05 0.000E+00

     total cpu time spent up to now is      210.6 secs

     total energy              =   -2246.26185873 Ry
     estimated scf accuracy    <       0.00000131 Ry

     iteration #  8     ecut=    80.00 Ry     beta= 0.70
     Davidson diagonalization with overlap
     ethr =  4.21E-10,  avg # of iterations =  5.0

     negative rho (up, down):  2.069E-04 0.000E+00

     total cpu time spent up to now is      214.3 secs

     End of self-consistent calculation

          k = 0.0000 0.0000 0.0000 (105382 PWs)   bands (ev):

   -63.1467 -63.0131 -62.9957 -62.9453 -62.9313 -62.9130 -62.8933 -62.8908
   -62.8761 -62.8658 -62.8481 -62.8242 -37.4230 -37.3790 -37.2991 -37.2757
   -37.2644 -37.2466 -37.2311 -37.1872 -37.1828 -37.1735 -37.1671 -37.1637
   -37.1422 -37.1284 -37.1192 -37.1099 -37.1005 -37.0820 -37.0741 -37.0691
   -37.0528 -37.0464 -37.0425 -37.0331 -37.0269 -37.0222 -37.0094 -36.9976
   -36.9964 -36.9724 -36.9604 -36.9531 -36.9318 -36.8957 -36.8587 -36.7990
   -20.4336 -16.0259 -15.2993 -15.2034 -15.0448 -15.0253 -14.8434 -14.6437
   -14.5873 -14.5539 -14.5064 -14.4817 -14.4719 -14.3932 -14.3392 -14.2675
   -14.2357 -14.2258 -14.1348 -14.0312 -13.9640 -13.9587 -13.9193 -13.8943
    -7.7897  -7.7506  -7.5630  -7.4836  -7.3983  -7.3826  -7.3658  -7.2905
    -7.2466  -7.0564  -6.9077  -6.8962  -6.8390  -6.7979  -6.6907  -6.6461
    -6.5527  -6.5087  -6.3965  -6.3688  -6.1649  -6.1158  -6.0129  -5.9397
    -5.9155  -5.8992  -5.8161  -5.7854  -5.7589  -5.7085  -5.6861  -5.6230
    -5.6167  -5.5217  -5.4772  -5.4372  -5.2518  -5.2277  -5.1540  -5.1110
    -5.0927  -5.0401  -4.9372  -4.8036  -4.7472  -4.5853  -4.4610  -4.4188
    -4.3595  -4.3328  -4.1823  -4.1678  -4.0173  -3.9961  -3.9369  -3.8870
    -3.8364  -3.8032  -3.7212  -3.6784  -3.6358  -3.6164  -3.5778  -3.5564
    -3.4945  -3.4815  -3.3394  -3.2722  -3.0795  -3.0290  -2.9327  -2.9222
    -2.8868  -2.8382  -2.7948  -2.7636  -2.7552  -2.6657  -2.4416  -2.3630
    -2.1805  -2.0853  -2.0403  -1.9052  -1.2966  -0.8890  -0.8081  -0.2766
    -0.2365  -0.1816  -0.0996  -0.0609   0.0253   0.0412   0.1563   0.1720
     0.2360   0.2682   0.3230   0.3558   0.4427   0.4653   0.5021   0.5326
     0.5610   0.6167   0.6664   0.7022   0.7365   0.7491   0.8415   0.8549
     0.8821   0.9284   1.1632

     the Fermi energy is    -1.6008 ev

!    total energy              =   -2246.26185899 Ry
     estimated scf accuracy    <       0.00000032 Ry
     smearing contrib. (-TS)   =      -0.00007602 Ry
     internal energy E=F+TS    =   -2246.26178297 Ry

     The total energy is F=E-TS. E is the sum of the following terms:
     one-electron contribution =  -18434.89827282 Ry
     hartree contribution      =    9205.36963166 Ry
     xc contribution           =    -391.96312718 Ry
     ewald contribution        =    7385.09817327 Ry
     one-center paw contrib.   =      -9.86818790 Ry

     convergence has been achieved in   8 iterations

     negative rho (up, down):  2.069E-04 0.000E+00

     Forces acting on atoms (cartesian axes, Ry/au):

     atom    1 type  1   force =     0.00661172   -0.01257247   -0.00190107
     atom    2 type  2   force =    -0.01225977    0.01235779   -0.00606627
     atom    3 type  2   force =    -0.00604045    0.00675856   -0.01195487
     atom    4 type  1   force =     0.00421394    0.00406849    0.00200252
     atom    5 type  2   force =    -0.00005520   -0.00636245   -0.00502461
     atom    6 type  2   force =     0.00113107    0.00876874    0.00040452
     atom    7 type  1   force =     0.00580580   -0.00928947   -0.00131127
     atom    8 type  2   force =     0.00141582   -0.00303920    0.01215274
     atom    9 type  2   force =     0.01139635    0.00532134    0.00712297
     atom   10 type  1   force =    -0.00146396    0.00749654   -0.00837868
     atom   11 type  2   force =     0.00356450   -0.00181737   -0.00938686
     atom   12 type  2   force =    -0.00147572   -0.00040655    0.00055760
     atom   13 type  1   force =     0.00938918    0.00861193   -0.01374460
     atom   14 type  2   force =     0.01917671    0.00786518   -0.01004971
     atom   15 type  2   force =    -0.00759630    0.00187663   -0.00994595
     atom   16 type  1   force =    -0.00004852    0.00854539    0.00299878
     atom   17 type  2   force =     0.00568185    0.00067645    0.00283534
     atom   18 type  2   force =    -0.00047890    0.00129812    0.00760039
     atom   19 type  1   force =     0.00419476   -0.01239979   -0.00182282
     atom   20 type  2   force =     0.00433295   -0.00388568   -0.00337089
     atom   21 type  1   force =    -0.00327606    0.00447989   -0.00016985
     atom   22 type  2   force =    -0.00032586   -0.01211667   -0.02049377
     atom   23 type  2   force =     0.00133095   -0.00085958    0.00337108
     atom   24 type  1   force =    -0.00205934    0.00660782    0.00437430
     atom   25 type  2   force =     0.11935022   -0.06365288    0.04639541
     atom   26 type  2   force =    -0.01057191    0.00189535   -0.00235405
     atom   27 type  1   force =    -0.00141771   -0.00476315    0.00732378
     atom   28 type  2   force =    -0.00200373    0.00215308   -0.00572272
     atom   29 type  2   force =    -0.00092327   -0.00172753   -0.00704622
     atom   30 type  1   force =    -0.00484810    0.00398518    0.00354979
     atom   31 type  2   force =     0.00143990   -0.00116196    0.01137876
     atom   32 type  2   force =    -0.00841076    0.00520335    0.00563564
     atom   33 type  1   force =     0.00197457   -0.00882269   -0.01341237
     atom   34 type  2   force =     0.00099774   -0.03077027   -0.01284008
     atom   35 type  2   force =    -0.01064248    0.00531484    0.00477197
     atom   36 type  3   force =    -0.12811000    0.07036303    0.02252105
     The non-local contrib.  to forces
     atom    1 type  1   force =    -0.01600218    0.02406457   -0.00603509
     atom    2 type  2   force =    -0.00850514   -0.00027057   -0.27133545
     atom    3 type  2   force =    -0.00756269   -0.00132732    0.26723872
     atom    4 type  1   force =    -0.00250066    0.01124182    0.00449185
     atom    5 type  2   force =     0.00610971   -0.03225138   -0.25806289
     atom    6 type  2   force =    -0.00270455    0.00994323    0.26377359
     atom    7 type  1   force =    -0.01854365    0.00372278   -0.02112744
     atom    8 type  2   force =     0.00526984   -0.00269406   -0.25908121
     atom    9 type  2   force =     0.00548741   -0.00891646    0.27542631
     atom   10 type  1   force =     0.00026687   -0.00138456   -0.00093898
     atom   11 type  2   force =     0.01524605    0.00427327   -0.26465482
     atom   12 type  2   force =    -0.01255873   -0.01785968    0.26313996
     atom   13 type  1   force =    -0.00553227    0.01787080    0.01106355
     atom   14 type  2   force =     0.00239968   -0.01102241   -0.26668816
     atom   15 type  2   force =    -0.01041942   -0.00415511    0.25539452
     atom   16 type  1   force =     0.00165364    0.02693440   -0.02687914
     atom   17 type  2   force =     0.00177006   -0.03182272   -0.25113300
     atom   18 type  2   force =    -0.00385516    0.00131799    0.26923311
     atom   19 type  1   force =     0.01780305    0.02159247   -0.00956415
     atom   20 type  2   force =    -0.00035779   -0.02265471    0.26524649
     atom   21 type  1   force =     0.00496780    0.02271994    0.01015548
     atom   22 type  2   force =     0.00348283    0.01750533   -0.24217473
     atom   23 type  2   force =     0.00691017   -0.01666915    0.26391809
     atom   24 type  1   force =    -0.01674508    0.00235998   -0.01646574
     atom   25 type  2   force =     0.34730392   -0.17800176    0.15164011
     atom   26 type  2   force =    -0.00255841   -0.00976983    0.26774975
     atom   27 type  1   force =    -0.00150443    0.01290033    0.00849989
     atom   28 type  2   force =    -0.00451628   -0.01889966   -0.26935001
     atom   29 type  2   force =     0.00321356   -0.00231619    0.26796431
     atom   30 type  1   force =    -0.00016261    0.01920538    0.00933901
     atom   31 type  2   force =    -0.00979069   -0.00247155   -0.25585663
     atom   32 type  2   force =    -0.00411085   -0.01223507    0.27419527
     atom   33 type  1   force =    -0.00719916    0.01029774    0.01644992
     atom   34 type  2   force =     0.00207009   -0.02729312   -0.28116102
     atom   35 type  2   force =    -0.00465484   -0.01237093    0.26437756
     atom   36 type  3   force =    -1.03044636    0.68991697   -0.97719921
     The ionic contribution  to forces
     atom    1 type  1   force =     0.93870354    1.22530937    3.97035607
     atom    2 type  2   force =    -0.54211879    0.47032270   38.96426495
     atom    3 type  2   force =    -0.13413591    0.05397167  -36.85040426
     atom    4 type  1   force =    -0.02105328    0.82416376   -0.21101545
     atom    5 type  2   force =    -0.71953407    1.82328107   38.42823982
     atom    6 type  2   force =     0.36681360   -0.40056820  -38.49136918
     atom    7 type  1   force =    -2.36190223   -3.04983620    1.38574296
     atom    8 type  2   force =    -1.00768563   -0.09922546   37.31529604
     atom    9 type  2   force =     0.34449473   -0.11989694  -38.46982403
     atom   10 type  1   force =    -1.06282793   -0.60105766    3.92864280
     atom   11 type  2   force =     0.05232507   -2.13880717   38.66787534
     atom   12 type  2   force =     0.45630426    0.49966519  -38.45937592
     atom   13 type  1   force =     0.47644926    2.94806824   -1.55367735
     atom   14 type  2   force =     2.71896253    1.19772136   36.65670696
     atom   15 type  2   force =     0.40831195    0.06376550  -37.80710771
     atom   16 type  1   force =     0.38089980    4.23349377   -0.50542850
     atom   17 type  2   force =     0.86234591    2.40621290   37.49247652
     atom   18 type  2   force =    -0.13222022   -0.36358951  -39.20911829
     atom   19 type  1   force =     2.76524591   -3.36993489   -1.05765546
     atom   20 type  2   force =     0.28990861   -0.26282637  -39.08739291
     atom   21 type  1   force =     1.74872304   -1.11995972   -2.01395335
     atom   22 type  2   force =     0.99511955   -4.68553394   36.48787224
     atom   23 type  2   force =     0.00952354    0.34707162  -39.20005590
     atom   24 type  1   force =    -0.94305185    1.34034465    4.01521781
     atom   25 type  2   force =    -4.25096285    3.22298108   35.16041901
     atom   26 type  2   force =    -0.49026825    0.21535554  -38.21874842
     atom   27 type  1   force =    -0.26763546    1.05092800   -3.26727372
     atom   28 type  2   force =    -0.21731349    1.35332185   37.95265536
     atom   29 type  2   force =    -0.32073342   -0.17191898  -37.91058157
     atom   30 type  1   force =    -0.63791946   -1.69768632   -1.19790932
     atom   31 type  2   force =     1.05147531   -0.37679582   37.07557081
     atom   32 type  2   force =    -0.53372678   -0.14113347  -39.12597252
     atom   33 type  1   force =    -1.10111920   -1.69559758   -2.62475320
     atom   34 type  2   force =    -0.76444185   -1.94233980   38.72272623
     atom   35 type  2   force =    -0.44054323    0.32416421  -38.49158653
     atom   36 type  3   force =     2.08358731   -1.36343445   47.52914071
     The local contribution  to forces
     atom    1 type  1   force =    -0.91606248   -1.26174359   -3.96679297
     atom    2 type  2   force =     0.53828106   -0.45751500  -38.72027902
     atom    3 type  2   force =     0.13541230   -0.04578738   36.59202236
     atom    4 type  1   force =     0.02771082   -0.83135267    0.20799853
     atom    5 type  2   force =     0.71400035   -1.79908763  -38.19611386
     atom    6 type  2   force =    -0.36324422    0.40050652   38.24877410
     atom    7 type  1   force =     2.38635427    3.03680159   -1.36638996
     atom    8 type  2   force =     1.00401516    0.09834888  -37.06501750
     atom    9 type  2   force =    -0.33853669    0.13359568   38.22245784
     atom   10 type  1   force =     1.06117375    0.60996388   -3.93655451
     atom   11 type  2   force =    -0.06327614    2.13315428  -38.43377953
     atom   12 type  2   force =    -0.44622578   -0.48359429   38.21754983
     atom   13 type  1   force =    -0.46160862   -2.95739132    1.52848929
     atom   14 type  2   force =    -2.70110185   -1.17861220  -36.42192167
     atom   15 type  2   force =    -0.40610589   -0.05797830   37.56201803
     atom   16 type  1   force =    -0.38242774   -4.25197710    0.53482674
     atom   17 type  2   force =    -0.85850296   -2.37532781  -37.25919258
     atom   18 type  2   force =     0.13553387    0.36426555   38.96833569
     atom   19 type  1   force =    -2.77894566    3.33590620    1.06492214
     atom   20 type  2   force =    -0.28533100    0.28064950   38.83989979
     atom   21 type  1   force =    -1.75694664    1.10170949    2.00317969
     atom   22 type  2   force =    -0.99836648    4.65616826  -36.28690726
     atom   23 type  2   force =    -0.01464699   -0.33256316   38.96014582
     atom   24 type  1   force =     0.95790284   -1.33625730   -3.99471106
     atom   25 type  2   force =     4.04265890   -3.11896038  -35.26356575
     atom   26 type  2   force =     0.48234123   -0.20417946   37.96968959
     atom   27 type  1   force =     0.26760022   -1.06850668    3.26558840
     atom   28 type  2   force =     0.21957041   -1.33397698  -37.71022143
     atom   29 type  2   force =     0.31694280    0.17270645   37.65638054
     atom   30 type  1   force =     0.63321569    1.68232066    1.19165087
     atom   31 type  2   force =    -1.04080475    0.37780323  -36.82921631
     atom   32 type  2   force =     0.52945112    0.15786884   38.87836885
     atom   33 type  1   force =     1.11018944    1.67664472    2.59449940
     atom   34 type  2   force =     0.76310566    1.93805455  -38.47625933
     atom   35 type  2   force =     0.43450543   -0.30749709   38.25278343
     atom   36 type  3   force =    -1.19307553    0.75185781  -46.54055124
     The core correction contribution to forces
     atom    1 type  1   force =     0.00000000    0.00000000    0.00000000
     atom    2 type  2   force =     0.00013029   -0.00014539    0.02090213
     atom    3 type  2   force =     0.00027403   -0.00006217   -0.02087524
     atom    4 type  1   force =     0.00000000    0.00000000    0.00000000
     atom    5 type  2   force =    -0.00062516    0.00172014    0.02055836
     atom    6 type  2   force =     0.00027884   -0.00109513   -0.02081575
     atom    7 type  1   force =     0.00000000    0.00000000    0.00000000
     atom    8 type  2   force =    -0.00016973    0.00051799    0.02065132
     atom    9 type  2   force =    -0.00003065    0.00051499   -0.02103836
     atom   10 type  1   force =     0.00000000    0.00000000    0.00000000
     atom   11 type  2   force =    -0.00071350   -0.00046670    0.02084399
     atom   12 type  2   force =     0.00102210    0.00136767   -0.02085662
     atom   13 type  1   force =     0.00000000    0.00000000    0.00000000
     atom   14 type  2   force =    -0.00109973   -0.00020641    0.02148137
     atom   15 type  2   force =     0.00062545    0.00026395   -0.02032818
     atom   16 type  1   force =     0.00000000    0.00000000    0.00000000
     atom   17 type  2   force =     0.00008477    0.00161212    0.02037059
     atom   18 type  2   force =     0.00008223   -0.00068113   -0.02093810
     atom   19 type  1   force =     0.00000000    0.00000000    0.00000000
     atom   20 type  2   force =     0.00013137    0.00091513   -0.02123255
     atom   21 type  1   force =     0.00000000    0.00000000    0.00000000
     atom   22 type  2   force =    -0.00057565   -0.00025137    0.02041000
     atom   23 type  2   force =    -0.00046774    0.00129592   -0.02074948
     atom   24 type  1   force =     0.00000000    0.00000000    0.00000000
     atom   25 type  2   force =    -0.01968362    0.01035476   -0.00253470
     atom   26 type  2   force =    -0.00014189    0.00050501   -0.02107462
     atom   27 type  1   force =     0.00000000    0.00000000    0.00000000
     atom   28 type  2   force =     0.00022963    0.00168642    0.02086356
     atom   29 type  2   force =    -0.00038157   -0.00020243   -0.02088415
     atom   30 type  1   force =     0.00000000    0.00000000    0.00000000
     atom   31 type  2   force =     0.00051963    0.00030882    0.02057508
     atom   32 type  2   force =    -0.00006962    0.00070323   -0.02104694
     atom   33 type  1   force =     0.00000000    0.00000000    0.00000000
     atom   34 type  2   force =     0.00025682    0.00080160    0.02151839
     atom   35 type  2   force =     0.00004217    0.00100519   -0.02090978
     atom   36 type  3   force =     0.01173715   -0.00787607    0.01047959
     The Hubbard contrib.    to forces
     atom    1 type  1   force =     0.00000000    0.00000000    0.00000000
     atom    2 type  2   force =     0.00000000    0.00000000    0.00000000
     atom    3 type  2   force =     0.00000000    0.00000000    0.00000000
     atom    4 type  1   force =     0.00000000    0.00000000    0.00000000
     atom    5 type  2   force =     0.00000000    0.00000000    0.00000000
     atom    6 type  2   force =     0.00000000    0.00000000    0.00000000
     atom    7 type  1   force =     0.00000000    0.00000000    0.00000000
     atom    8 type  2   force =     0.00000000    0.00000000    0.00000000
     atom    9 type  2   force =     0.00000000    0.00000000    0.00000000
     atom   10 type  1   force =     0.00000000    0.00000000    0.00000000
     atom   11 type  2   force =     0.00000000    0.00000000    0.00000000
     atom   12 type  2   force =     0.00000000    0.00000000    0.00000000
     atom   13 type  1   force =     0.00000000    0.00000000    0.00000000
     atom   14 type  2   force =     0.00000000    0.00000000    0.00000000
     atom   15 type  2   force =     0.00000000    0.00000000    0.00000000
     atom   16 type  1   force =     0.00000000    0.00000000    0.00000000
     atom   17 type  2   force =     0.00000000    0.00000000    0.00000000
     atom   18 type  2   force =     0.00000000    0.00000000    0.00000000
     atom   19 type  1   force =     0.00000000    0.00000000    0.00000000
     atom   20 type  2   force =     0.00000000    0.00000000    0.00000000
     atom   21 type  1   force =     0.00000000    0.00000000    0.00000000
     atom   22 type  2   force =     0.00000000    0.00000000    0.00000000
     atom   23 type  2   force =     0.00000000    0.00000000    0.00000000
     atom   24 type  1   force =     0.00000000    0.00000000    0.00000000
     atom   25 type  2   force =     0.00000000    0.00000000    0.00000000
     atom   26 type  2   force =     0.00000000    0.00000000    0.00000000
     atom   27 type  1   force =     0.00000000    0.00000000    0.00000000
     atom   28 type  2   force =     0.00000000    0.00000000    0.00000000
     atom   29 type  2   force =     0.00000000    0.00000000    0.00000000
     atom   30 type  1   force =     0.00000000    0.00000000    0.00000000
     atom   31 type  2   force =     0.00000000    0.00000000    0.00000000
     atom   32 type  2   force =     0.00000000    0.00000000    0.00000000
     atom   33 type  1   force =     0.00000000    0.00000000    0.00000000
     atom   34 type  2   force =     0.00000000    0.00000000    0.00000000
     atom   35 type  2   force =     0.00000000    0.00000000    0.00000000
     atom   36 type  3   force =     0.00000000    0.00000000    0.00000000
     The SCF correction term to forces
     atom    1 type  1   force =    -0.00002922   -0.00020230    0.00055148
     atom    2 type  2   force =    -0.00004926   -0.00003343    0.00036169
     atom    3 type  2   force =    -0.00003025   -0.00003573    0.00004411
     atom    4 type  1   force =     0.00005499    0.00001610    0.00050813
     atom    5 type  2   force =    -0.00000809   -0.00002414    0.00033451
     atom    6 type  2   force =    -0.00001468   -0.00001716    0.00002231
     atom    7 type  1   force =    -0.00010466    0.00002288    0.00044372
     atom    8 type  2   force =    -0.00001589    0.00001396    0.00028465
     atom    9 type  2   force =    -0.00002052    0.00002459    0.00008178
     atom   10 type  1   force =    -0.00007871   -0.00002462    0.00045258
     atom   11 type  2   force =    -0.00001904    0.00002947    0.00030873
     atom   12 type  2   force =    -0.00001963    0.00001507    0.00008091
     atom   13 type  1   force =     0.00007874    0.00006472    0.00036047
     atom   14 type  2   force =     0.00001401   -0.00001464    0.00035235
     atom   15 type  2   force =    -0.00001046   -0.00001890    0.00005796
     atom   16 type  1   force =    -0.00017629    0.00009484    0.00046024
     atom   17 type  2   force =    -0.00001801    0.00000248    0.00029437
     atom   18 type  2   force =    -0.00002169   -0.00001427    0.00006854
     atom   19 type  1   force =     0.00008940    0.00003695    0.00045520
     atom   20 type  2   force =    -0.00002031    0.00003128    0.00008885
     atom   21 type  1   force =    -0.00002232    0.00001069    0.00042889
     atom   22 type  2   force =     0.00001181   -0.00000442    0.00028654
     atom   23 type  2   force =     0.00000991    0.00000570    0.00009311
     atom   24 type  1   force =    -0.00016732    0.00016101    0.00031385
     atom   25 type  2   force =     0.00003180   -0.00002606    0.00041729
     atom   26 type  2   force =     0.00005335   -0.00001539    0.00001020
     atom   27 type  1   force =     0.00011988   -0.00008430    0.00048977
     atom   28 type  2   force =     0.00002393    0.00002197    0.00031035
     atom   29 type  2   force =     0.00003329    0.00000414    0.00005521
     atom   30 type  1   force =     0.00001623    0.00014597    0.00044979
     atom   31 type  2   force =     0.00003833   -0.00000613    0.00028637
     atom   32 type  2   force =     0.00004330    0.00000032    0.00007153
     atom   33 type  1   force =     0.00010143   -0.00016705    0.00037208
     atom   34 type  2   force =     0.00000495    0.00000702    0.00031620
     atom   35 type  2   force =     0.00000591    0.00001399    0.00008785
     atom   36 type  3   force =     0.00008537   -0.00010071    0.00063175

     Total force =     0.219697     Total SCF correction =     0.002073
     Energy error            =      6.0E-02 Ry
     Gradient error          =      1.3E-01 Ry/Bohr

     number of scf cycles    =   2
     number of bfgs steps    =   1

     energy             old  =   -2246.2016386168 Ry
     energy             new  =   -2246.2618589859 Ry

     CASE: energy            _new < energy            _old


     WARNING: bfgs curvature condition failed, Theta= 0.963
     new trust radius        =       0.1914753176 bohr
     new conv_thr            =       0.0000001281 Ry


ATOMIC_POSITIONS (angstrom)
Mo            6.5918454780        1.7640829111        2.8204589283
S             8.1548420309        0.8268010247        4.4306579688
S             8.1840142905        0.8200793699        1.2677512170
Mo            8.1001576559        4.5016473978        2.7180033851
S             6.4982293179        3.7145354257        4.3411110849
S             6.5549137611        3.5245583299        1.1204631513
Mo            6.4983893952        7.2026574330        2.6658294070
S             8.0831789928        6.3402444402        4.2603380430
S             8.0952649939        6.3116568969        1.0957447777
Mo            8.1543891667        9.9110539972        2.8206479685
S             6.5004703281        8.9407601942        4.3743126915
S             6.6184778266        9.0489904932        1.1429578649
Mo            3.4348204549        1.7629299362        2.7532512477
S             4.9997006060        0.8256450327        4.3398112190
S             5.0459369975        0.8496081958        1.2168221784
Mo            4.9789475022        4.5247963359        2.6375143316
S             3.4352191416        3.6725787160        4.2831164763
S             3.4365427744        3.5470161845        1.0713578407
Mo            3.4611198943        7.1963977143        2.6240919860
S             4.9879116273        6.3230138730        1.0361976448
Mo            5.0049321288        9.9088100647        2.7417955980
S             3.4704004066        8.9353838254        4.3016148546
S             3.4085156696        9.0661457049        1.1052553803
Mo            0.2813333271        1.7708716655        2.8340091468
S             2.0069005362        0.7114059463        4.4772355572
S             1.8472037516        0.8547712015        1.2057091335
Mo            1.8603797725        4.4873489660        2.6677096901
S             0.2696620253        3.6572812444        4.3297852357
S             0.2310807827        3.5224489424        1.1660365265
Mo            0.2654065311        7.2276785067        2.7006908161
S             1.9038431033        6.3116176373        4.2401000983
S             1.8507296291        6.3182590974        1.0523116467
Mo            1.8484141060        9.9253874785        2.7459216245
S             0.2990441851        9.0446882037        4.4029519541
S             0.2641035040        9.0507728912        1.1633453261
O             2.9982786508       11.0079211322        5.4998495359



     Writing config-only to output data dir ./MoS2-V-O.save/
     NEW-OLD atomic charge density approx. for the potential

     negative rho (up, down):  1.963E-04 0.000E+00

     total cpu time spent up to now is      221.7 secs

     Self-consistent Calculation

     iteration #  1     ecut=    80.00 Ry     beta= 0.70
     Davidson diagonalization with overlap
     ethr =  1.00E-06,  avg # of iterations = 17.0

     negative rho (up, down):  6.337E-05 0.000E+00

     total cpu time spent up to now is      235.5 secs

     total energy              =   -2246.30432300 Ry
     estimated scf accuracy    <       0.02560126 Ry

     iteration #  2     ecut=    80.00 Ry     beta= 0.70
     Davidson diagonalization with overlap
     ethr =  8.21E-06,  avg # of iterations =  5.0

     negative rho (up, down):  5.025E-05 0.000E+00

     total cpu time spent up to now is      257.6 secs

     total energy              =   -2246.30971380 Ry
     estimated scf accuracy    <       0.01273395 Ry

     iteration #  3     ecut=    80.00 Ry     beta= 0.70
     Davidson diagonalization with overlap
     ethr =  4.08E-06,  avg # of iterations =  3.0

     negative rho (up, down):  2.883E-05 0.000E+00

     total cpu time spent up to now is      270.4 secs

     total energy              =   -2246.31052900 Ry
     estimated scf accuracy    <       0.00112392 Ry

     iteration #  4     ecut=    80.00 Ry     beta= 0.70
     Davidson diagonalization with overlap
     ethr =  3.60E-07,  avg # of iterations =  5.0

     negative rho (up, down):  2.491E-05 0.000E+00

     total cpu time spent up to now is      283.8 secs

     total energy              =   -2246.31067866 Ry
     estimated scf accuracy    <       0.00013039 Ry

     iteration #  5     ecut=    80.00 Ry     beta= 0.70
     Davidson diagonalization with overlap
     ethr =  4.18E-08,  avg # of iterations =  4.0

     negative rho (up, down):  2.222E-05 0.000E+00

     total cpu time spent up to now is      294.8 secs

     total energy              =   -2246.31069039 Ry
     estimated scf accuracy    <       0.00002753 Ry

     iteration #  6     ecut=    80.00 Ry     beta= 0.70
     Davidson diagonalization with overlap
     ethr =  8.82E-09,  avg # of iterations =  3.0

     negative rho (up, down):  2.113E-05 0.000E+00

     total cpu time spent up to now is      306.7 secs

     total energy              =   -2246.31069335 Ry
     estimated scf accuracy    <       0.00001288 Ry

     iteration #  7     ecut=    80.00 Ry     beta= 0.70
     Davidson diagonalization with overlap
     ethr =  4.13E-09,  avg # of iterations =  4.0

     negative rho (up, down):  2.422E-05 0.000E+00

     total cpu time spent up to now is      318.3 secs

     total energy              =   -2246.31069538 Ry
     estimated scf accuracy    <       0.00000458 Ry

     iteration #  8     ecut=    80.00 Ry     beta= 0.70
     Davidson diagonalization with overlap
     ethr =  1.47E-09,  avg # of iterations =  5.0

     negative rho (up, down):  3.340E-05 0.000E+00

     total cpu time spent up to now is      329.4 secs

     total energy              =   -2246.31069742 Ry
     estimated scf accuracy    <       0.00000091 Ry

     iteration #  9     ecut=    80.00 Ry     beta= 0.70
     Davidson diagonalization with overlap
     ethr =  2.92E-10,  avg # of iterations =  2.0

     negative rho (up, down):  6.928E-05 0.000E+00

     total cpu time spent up to now is      338.9 secs

     total energy              =   -2246.31069830 Ry
     estimated scf accuracy    <       0.00000036 Ry

     iteration # 10     ecut=    80.00 Ry     beta= 0.70
     Davidson diagonalization with overlap
     ethr =  1.15E-10,  avg # of iterations =  3.0

     negative rho (up, down):  2.057E-04 0.000E+00

     total cpu time spent up to now is      342.6 secs

     End of self-consistent calculation

          k = 0.0000 0.0000 0.0000 (105382 PWs)   bands (ev):

   -63.1185 -62.9922 -62.9809 -62.9303 -62.9127 -62.9051 -62.9014 -62.8733
   -62.8724 -62.8331 -62.8069 -62.7836 -37.3841 -37.3497 -37.2836 -37.2561
   -37.2466 -37.2256 -37.2144 -37.1685 -37.1623 -37.1591 -37.1478 -37.1463
   -37.1226 -37.1064 -37.0993 -37.0911 -37.0909 -37.0846 -37.0661 -37.0618
   -37.0364 -37.0341 -37.0286 -37.0134 -36.9964 -36.9944 -36.9813 -36.9803
   -36.9664 -36.9626 -36.9474 -36.9173 -36.8977 -36.8683 -36.8319 -36.7976
   -21.9508 -16.0138 -15.2830 -15.1898 -15.0170 -14.9823 -14.8386 -14.5975
   -14.5489 -14.5267 -14.4816 -14.4609 -14.4367 -14.3806 -14.3217 -14.2465
   -14.2142 -14.2002 -14.1103 -14.0242 -13.9474 -13.9404 -13.8897 -13.6194
    -7.9668  -7.8178  -7.6289  -7.5237  -7.4373  -7.3740  -7.3507  -7.2794
    -7.2426  -7.1121  -6.9282  -6.8957  -6.8449  -6.7786  -6.7164  -6.6315
    -6.5424  -6.5259  -6.4120  -6.3674  -6.1521  -6.1124  -5.9933  -5.9295
    -5.9039  -5.8724  -5.8049  -5.7515  -5.7479  -5.6986  -5.6719  -5.6130
    -5.6062  -5.4937  -5.4597  -5.4386  -5.2486  -5.2154  -5.1298  -5.0931
    -5.0841  -5.0332  -4.9340  -4.8053  -4.7385  -4.5959  -4.4753  -4.4061
    -4.3481  -4.3063  -4.2092  -4.1775  -4.0537  -4.0010  -3.9414  -3.8714
    -3.8176  -3.7790  -3.7078  -3.6963  -3.6266  -3.5930  -3.5634  -3.5398
    -3.4796  -3.4514  -3.3102  -3.2699  -3.0735  -3.0430  -2.9403  -2.9096
    -2.8794  -2.8159  -2.8008  -2.7604  -2.7441  -2.6482  -2.4950  -2.3834
    -2.3264  -2.0810  -2.0432  -1.9120  -1.1254  -0.8568  -0.7880  -0.2563
    -0.2142  -0.1521  -0.0811  -0.0205   0.0565   0.0718   0.1751   0.2062
     0.2657   0.2884   0.3517   0.3817   0.4583   0.4899   0.5330   0.5461
     0.5939   0.6437   0.6880   0.7241   0.7604   0.7755   0.8647   0.8741
     0.9161   0.9563   1.1842

     the Fermi energy is    -1.5187 ev

!    total energy              =   -2246.31069850 Ry
     estimated scf accuracy    <       0.00000010 Ry
     smearing contrib. (-TS)   =      -0.00000265 Ry
     internal energy E=F+TS    =   -2246.31069585 Ry

     The total energy is F=E-TS. E is the sum of the following terms:
     one-electron contribution =  -18434.19758401 Ry
     hartree contribution      =    9205.08852427 Ry
     xc contribution           =    -392.08475182 Ry
     ewald contribution        =    7384.74350697 Ry
     one-center paw contrib.   =      -9.86039125 Ry

     convergence has been achieved in  10 iterations

     negative rho (up, down):  2.057E-04 0.000E+00

     Forces acting on atoms (cartesian axes, Ry/au):

     atom    1 type  1   force =    -0.00290027   -0.00231465   -0.00417858
     atom    2 type  2   force =    -0.00318184    0.00846081   -0.00612721
     atom    3 type  2   force =    -0.00250827    0.00548444   -0.01241349
     atom    4 type  1   force =     0.00350003    0.00145094    0.00204036
     atom    5 type  2   force =     0.00156701   -0.00545682   -0.00492982
     atom    6 type  2   force =     0.00109619    0.00631481    0.00225233
     atom    7 type  1   force =     0.00321603   -0.00428721    0.00164198
     atom    8 type  2   force =     0.00133528   -0.00321403    0.00894550
     atom    9 type  2   force =     0.00966006    0.00418703    0.00375537
     atom   10 type  1   force =     0.00019362    0.00711171    0.00159385
     atom   11 type  2   force =     0.00248226   -0.00117536   -0.01020333
     atom   12 type  2   force =    -0.00362767   -0.00077309   -0.00057828
     atom   13 type  1   force =     0.00853335   -0.00100350   -0.00361673
     atom   14 type  2   force =     0.01731413    0.00722539   -0.00773439
     atom   15 type  2   force =    -0.00402487    0.00003336   -0.01150583
     atom   16 type  1   force =     0.00080268    0.00564359    0.00123111
     atom   17 type  2   force =     0.00485995    0.00040877    0.00282132
     atom   18 type  2   force =    -0.00030045    0.00542609    0.00274329
     atom   19 type  1   force =     0.00184682   -0.00591734    0.00056987
     atom   20 type  2   force =     0.00451969   -0.00392056   -0.00523456
     atom   21 type  1   force =     0.00153622    0.00185108   -0.00192657
     atom   22 type  2   force =     0.00112737   -0.01757447   -0.01568817
     atom   23 type  2   force =     0.00306580   -0.00350567   -0.00175674
     atom   24 type  1   force =     0.00581478   -0.00782638    0.01728175
     atom   25 type  2   force =     0.04467898   -0.02051824   -0.03478484
     atom   26 type  2   force =    -0.00859531    0.00349245    0.00072965
     atom   27 type  1   force =    -0.00281650   -0.00035157    0.00665660
     atom   28 type  2   force =    -0.00123520    0.00138224   -0.00204197
     atom   29 type  2   force =    -0.00044132    0.00099029   -0.00608589
     atom   30 type  1   force =    -0.00329332   -0.00240649    0.00655994
     atom   31 type  2   force =     0.00104338   -0.00166660    0.00682912
     atom   32 type  2   force =    -0.00619241    0.00268434    0.00523822
     atom   33 type  1   force =     0.00361278   -0.00457333   -0.00199727
     atom   34 type  2   force =    -0.00049685   -0.01907430   -0.01438306
     atom   35 type  2   force =    -0.01079584    0.00353549   -0.00226825
     atom   36 type  3   force =    -0.07139626    0.03987677    0.07656471
     The non-local contrib.  to forces
     atom    1 type  1   force =    -0.00893602    0.02293888   -0.00888833
     atom    2 type  2   force =    -0.00135886   -0.00335913   -0.26976243
     atom    3 type  2   force =    -0.00445679   -0.00118441    0.26541396
     atom    4 type  1   force =    -0.00125436    0.01342017    0.00475862
     atom    5 type  2   force =     0.00704266   -0.03243385   -0.25885716
     atom    6 type  2   force =    -0.00246252    0.00628545    0.26637471
     atom    7 type  1   force =    -0.01740593    0.00235012   -0.02273038
     atom    8 type  2   force =     0.00564896   -0.00281110   -0.26027813
     atom    9 type  2   force =     0.00355448   -0.01019507    0.27270054
     atom   10 type  1   force =     0.00037300   -0.00073465   -0.00135361
     atom   11 type  2   force =     0.01358123    0.00472243   -0.26544182
     atom   12 type  2   force =    -0.01350980   -0.01824216    0.26406222
     atom   13 type  1   force =    -0.01514332    0.01371684    0.01673921
     atom   14 type  2   force =     0.02035001   -0.00335640   -0.27309409
     atom   15 type  2   force =    -0.00659093   -0.00428459    0.25543613
     atom   16 type  1   force =    -0.00096924    0.02827347   -0.02948048
     atom   17 type  2   force =     0.00032410   -0.03079556   -0.25087101
     atom   18 type  2   force =    -0.00370280    0.00607167    0.26548904
     atom   19 type  1   force =     0.02063632    0.01449290   -0.01552179
     atom   20 type  2   force =     0.00114583   -0.02132700    0.26290964
     atom   21 type  1   force =     0.00279839    0.02477650    0.00666554
     atom   22 type  2   force =     0.00626347   -0.00649805   -0.25715088
     atom   23 type  2   force =     0.00741395   -0.01943744    0.26252359
     atom   24 type  1   force =    -0.01481314    0.00100899   -0.01679213
     atom   25 type  2   force =     0.28552268   -0.15004749    0.15150231
     atom   26 type  2   force =     0.00015261   -0.00939068    0.27065333
[...]
     atom   28 type  2   force =     0.00022500   -0.01332567   -0.27774726
     atom   29 type  2   force =    -0.00029465   -0.00791762    0.26620442
     atom   30 type  1   force =    -0.00476179    0.01788767    0.00399479
     atom   31 type  2   force =    -0.00764653    0.00007608   -0.26797535
     atom   32 type  2   force =     0.00709910   -0.01421443    0.27147571
     atom   33 type  1   force =    -0.00118369    0.01664339    0.01743041
     atom   34 type  2   force =     0.00147529   -0.00672481   -0.27838902
     atom   35 type  2   force =     0.00067324   -0.01259659    0.26474566
     atom   36 type  3   force =     0.02171838    0.00409374   -2.31876749
     The ionic contribution  to forces
     atom    1 type  1   force =    -0.14763134    1.06321022    1.19871195
     atom    2 type  2   force =    -1.17077017   -0.01090675   38.13054862
     atom    3 type  2   force =     0.01663677   -0.08939157  -38.31891838
     atom    4 type  1   force =    -0.54262649    0.85725187   -0.36186414
     atom    5 type  2   force =    -0.80904492    1.44769439   38.01310966
     atom    6 type  2   force =     0.19618852   -0.23562743  -38.40535086
     atom    7 type  1   force =    -2.60351266   -2.00198187    1.71177159
     atom    8 type  2   force =    -1.30909261    0.16468865   38.10086184
     atom    9 type  2   force =     0.29999413   -0.01555556  -38.34820469
     atom   10 type  1   force =    -1.00898789   -0.98812521    1.27087643
     atom   11 type  2   force =    -0.44825076   -1.70204240   38.16698834
     atom   12 type  2   force =     0.21658204    0.19451081  -38.40314902
     atom   13 type  1   force =     1.05610365    1.26398772   -1.15828842
     atom   14 type  2   force =     0.99783976   -0.14502339   37.89183448
     atom   15 type  2   force =     0.04078804   -0.10369787  -38.32788218
     atom   16 type  1   force =     0.38376215    3.84499461    1.00454048
     atom   17 type  2   force =     1.32473984    2.13637024   37.81878669
     atom   18 type  2   force =    -0.18536419   -0.17897543  -38.73195044
     atom   19 type  1   force =     2.78679916   -2.36742517    1.68476732
     atom   20 type  2   force =     0.04083216   -0.04890727  -39.13452748
     atom   21 type  1   force =     0.57952458   -0.83283353   -0.68429814
     atom   22 type  2   force =     1.01894604   -2.31038280   37.90970266
     atom   23 type  2   force =    -0.14301357    0.21219038  -38.73701513
     atom   24 type  1   force =    -0.92801569    0.96254348   -1.74093590
     atom   25 type  2   force =     0.25205492   -0.00216896   28.71338814
     atom   26 type  2   force =    -0.05977905   -0.07151509  -38.10909437
     atom   27 type  1   force =     0.14495304    1.24009569   -0.55416288
     atom   28 type  2   force =    -0.51427026    1.51639169   37.62746456
     atom   29 type  2   force =     0.00349236    0.08117129  -38.40201886
     atom   30 type  1   force =    -0.18777803   -1.18771800    1.21946698
     atom   31 type  2   force =     1.17261861    0.16772832   37.95397391
     atom   32 type  2   force =    -0.34363029   -0.02093524  -38.25860416
     atom   33 type  1   force =     0.44799876   -1.54849358   -1.17040833
     atom   34 type  2   force =    -0.60466764   -1.43875548   38.23803310
     atom   35 type  2   force =    -0.08196784    0.06171208  -38.28895572
     atom   36 type  3   force =     0.10854887    0.08592114   50.48080237
     The local contribution  to forces
     atom    1 type  1   force =     0.14904421   -1.08743471   -1.20086403
     atom    2 type  2   force =     1.17152782    0.01751680  -37.87908174
     atom    3 type  2   force =    -0.01319270    0.09892459   38.07530496
     atom    4 type  1   force =     0.53850940   -0.86434490    0.35609657
     atom    5 type  2   force =     0.80488014   -1.42412624  -37.77503309
     atom    6 type  2   force =    -0.19633307    0.24110737   38.15780208
     atom    7 type  1   force =     2.61844916    1.99830479   -1.68594195
     atom    8 type  2   force =     1.29989272   -0.16561395  -37.85409819
     atom    9 type  2   force =    -0.29331030    0.02745633   38.10035302
     atom   10 type  1   force =     1.00562381    0.98174761   -1.27303301
     atom   11 type  2   force =     0.44343170    1.70107716  -37.92505078
     atom   12 type  2   force =    -0.20863017   -0.18168466   38.15788137
     atom   13 type  1   force =    -1.04933890   -1.27590148    1.14708384
     atom   14 type  2   force =    -0.99744484    0.14888132  -37.63871671
     atom   15 type  2   force =    -0.04155845    0.11366329   38.08819392
     atom   16 type  1   force =    -0.38383868   -3.87970738   -0.96980073
     atom   17 type  2   force =    -1.32003319   -2.11535781  -37.58102150
     atom   18 type  2   force =     0.18478999    0.18097849   38.48719921
     atom   19 type  1   force =    -2.80650667    2.36741108   -1.65757039
     atom   20 type  2   force =    -0.04133353    0.06118878   38.89323942
     atom   21 type  1   force =    -0.57851008    0.80285233    0.68137156
     atom   22 type  2   force =    -1.01242653    2.30956009  -37.66752000
     atom   23 type  2   force =     0.13544134   -0.19925477   38.49371208
     atom   24 type  1   force =     0.92141182   -0.97100831    1.72289273
     atom   25 type  2   force =    -0.24485899   -0.00146648  -29.00044567
     atom   26 type  2   force =     0.05774893    0.08224020   37.85167246
     atom   27 type  1   force =    -0.14007155   -1.24339598    0.55153043
     atom   28 type  2   force =     0.51374337   -1.50385020  -37.37137778
     atom   29 type  2   force =    -0.00310242   -0.07356014   38.15573039
     atom   30 type  1   force =     0.19262569    1.17002240   -1.22344567
     atom   31 type  2   force =    -1.16594074   -0.16846156  -37.70702983
     atom   32 type  2   force =     0.33714625    0.03353788   38.00829531
     atom   33 type  1   force =    -0.44709180    1.53270442    1.15337910
     atom   34 type  2   force =     0.60258924    1.44524283  -37.98020463
     atom   35 type  2   force =     0.08139779   -0.04892372   38.04422742
     atom   36 type  3   force =    -0.12990151   -0.08910599  -48.18922463
     The core correction contribution to forces
     atom    1 type  1   force =     0.00000000    0.00000000    0.00000000
     atom    2 type  2   force =     0.00005374    0.00020470    0.02131639
     atom    3 type  2   force =     0.00021663    0.00038189   -0.02074612
     atom    4 type  1   force =     0.00000000    0.00000000    0.00000000
     atom    5 type  2   force =    -0.00039811    0.00105304    0.02056709
     atom    6 type  2   force =     0.00014661   -0.00020582   -0.02090336
     atom    7 type  1   force =     0.00000000    0.00000000    0.00000000
     atom    8 type  2   force =    -0.00052390    0.00025974    0.02099655
     atom    9 type  2   force =     0.00071621    0.00068094   -0.02100719
     atom   10 type  1   force =     0.00000000    0.00000000    0.00000000
     atom   11 type  2   force =    -0.00006951   -0.00030836    0.02073343
     atom   12 type  2   force =     0.00066421    0.00094845   -0.02089940
     atom   13 type  1   force =     0.00000000    0.00000000    0.00000000
     atom   14 type  2   force =    -0.00002910   -0.00018277    0.02136553
     atom   15 type  2   force =    -0.00009695    0.00047398   -0.02057417
     atom   16 type  1   force =     0.00000000    0.00000000    0.00000000
     atom   17 type  2   force =     0.00043124    0.00096421    0.02067325
     atom   18 type  2   force =    -0.00022315   -0.00030076   -0.02082362
     atom   19 type  1   force =     0.00000000    0.00000000    0.00000000
     atom   20 type  2   force =    -0.00007945    0.00055998   -0.02121362
     atom   21 type  1   force =     0.00000000    0.00000000    0.00000000
     atom   22 type  2   force =     0.00019203   -0.00019373    0.02092478
     atom   23 type  2   force =    -0.00060719    0.00097850   -0.02086548
     atom   24 type  1   force =     0.00000000    0.00000000    0.00000000
     atom   25 type  2   force =     0.00033466   -0.00019144   -0.00987598
     atom   26 type  2   force =    -0.00008165    0.00047842   -0.02134234
     atom   27 type  1   force =     0.00000000    0.00000000    0.00000000
     atom   28 type  2   force =     0.00002027    0.00085575    0.02146775
     atom   29 type  2   force =     0.00008415    0.00027986   -0.02079753
     atom   30 type  1   force =     0.00000000    0.00000000    0.00000000
     atom   31 type  2   force =     0.00039263    0.00029715    0.02096313
     atom   32 type  2   force =    -0.00066041    0.00074475   -0.02102739
     atom   33 type  1   force =     0.00000000    0.00000000    0.00000000
     atom   34 type  2   force =    -0.00009471    0.00030547    0.02160212
     atom   35 type  2   force =    -0.00006694    0.00073965   -0.02088347
     atom   36 type  3   force =    -0.00023091   -0.00006510    0.02461609
     The Hubbard contrib.    to forces
     atom    1 type  1   force =     0.00000000    0.00000000    0.00000000
     atom    2 type  2   force =     0.00000000    0.00000000    0.00000000
     atom    3 type  2   force =     0.00000000    0.00000000    0.00000000
     atom    4 type  1   force =     0.00000000    0.00000000    0.00000000
     atom    5 type  2   force =     0.00000000    0.00000000    0.00000000
     atom    6 type  2   force =     0.00000000    0.00000000    0.00000000
     atom    7 type  1   force =     0.00000000    0.00000000    0.00000000
     atom    8 type  2   force =     0.00000000    0.00000000    0.00000000
     atom    9 type  2   force =     0.00000000    0.00000000    0.00000000
     atom   10 type  1   force =     0.00000000    0.00000000    0.00000000
     atom   11 type  2   force =     0.00000000    0.00000000    0.00000000
     atom   12 type  2   force =     0.00000000    0.00000000    0.00000000
     atom   13 type  1   force =     0.00000000    0.00000000    0.00000000
     atom   14 type  2   force =     0.00000000    0.00000000    0.00000000
     atom   15 type  2   force =     0.00000000    0.00000000    0.00000000
     atom   16 type  1   force =     0.00000000    0.00000000    0.00000000
     atom   17 type  2   force =     0.00000000    0.00000000    0.00000000
     atom   18 type  2   force =     0.00000000    0.00000000    0.00000000
     atom   19 type  1   force =     0.00000000    0.00000000    0.00000000
     atom   20 type  2   force =     0.00000000    0.00000000    0.00000000
     atom   21 type  1   force =     0.00000000    0.00000000    0.00000000
     atom   22 type  2   force =     0.00000000    0.00000000    0.00000000
     atom   23 type  2   force =     0.00000000    0.00000000    0.00000000
     atom   24 type  1   force =     0.00000000    0.00000000    0.00000000
     atom   25 type  2   force =     0.00000000    0.00000000    0.00000000
     atom   26 type  2   force =     0.00000000    0.00000000    0.00000000
     atom   27 type  1   force =     0.00000000    0.00000000    0.00000000
     atom   28 type  2   force =     0.00000000    0.00000000    0.00000000
     atom   29 type  2   force =     0.00000000    0.00000000    0.00000000
     atom   30 type  1   force =     0.00000000    0.00000000    0.00000000
     atom   31 type  2   force =     0.00000000    0.00000000    0.00000000
     atom   32 type  2   force =     0.00000000    0.00000000    0.00000000
     atom   33 type  1   force =     0.00000000    0.00000000    0.00000000
     atom   34 type  2   force =     0.00000000    0.00000000    0.00000000
     atom   35 type  2   force =     0.00000000    0.00000000    0.00000000
     atom   36 type  3   force =     0.00000000    0.00000000    0.00000000
     The SCF correction term to forces
     atom    1 type  1   force =     0.00004351    0.00000285    0.00000166
     atom    2 type  2   force =     0.00001613    0.00001046   -0.00000270
     atom    3 type  2   force =     0.00000034   -0.00000573    0.00000753
     atom    4 type  1   force =     0.00001394   -0.00000824   -0.00000155
     atom    5 type  2   force =     0.00001992   -0.00000150    0.00000543
     atom    6 type  2   force =     0.00001154    0.00000927   -0.00000679
     atom    7 type  1   force =     0.00003053   -0.00000609   -0.00006169
     atom    8 type  2   force =     0.00000902   -0.00001547   -0.00000247
     atom    9 type  2   force =    -0.00000622    0.00000009   -0.00001285
     atom   10 type  1   force =     0.00000340    0.00000899   -0.00001899
     atom   11 type  2   force =     0.00002134    0.00000858   -0.00001056
     atom   12 type  2   force =     0.00000732   -0.00000494   -0.00002083
     atom   13 type  1   force =    -0.00000876    0.00001343   -0.00001549
     atom   14 type  2   force =     0.00002133    0.00000599   -0.00000178
     atom   15 type  2   force =     0.00001217   -0.00001269   -0.00001702
     atom   16 type  1   force =     0.00001109    0.00001764   -0.00000904
     atom   17 type  2   force =    -0.00000997    0.00001316    0.00000263
     atom   18 type  2   force =    -0.00000318    0.00001367   -0.00001091
     atom   19 type  1   force =    -0.00000152   -0.00001608   -0.00005495
     atom   20 type  2   force =     0.00000320    0.00000826   -0.00003435
     atom   21 type  1   force =     0.00002151   -0.00000383   -0.00004905
     atom   22 type  2   force =    -0.00000951   -0.00000207   -0.00000575
     atom   23 type  2   force =     0.00000383   -0.00000586   -0.00002470
     atom   24 type  1   force =    -0.00003613    0.00000788    0.00002800
     atom   25 type  2   force =    -0.00003336    0.00000390   -0.00000039
     atom   26 type  2   force =    -0.00001440   -0.00000388   -0.00000397
     atom   27 type  1   force =    -0.00003731    0.00000951   -0.00000057
     atom   28 type  2   force =    -0.00000721   -0.00000572   -0.00000255
     atom   29 type  2   force =    -0.00000547    0.00000546    0.00001324
     atom   30 type  1   force =    -0.00000725   -0.00001044   -0.00001478
     atom   31 type  2   force =    -0.00001483   -0.00001468   -0.00000189
     atom   32 type  2   force =    -0.00000144   -0.00000335   -0.00001074
     atom   33 type  1   force =    -0.00003484   -0.00001270   -0.00003099
     atom   34 type  2   force =    -0.00000801    0.00000691   -0.00000087
     atom   35 type  2   force =    -0.00000824   -0.00000118   -0.00000103
     atom   36 type  3   force =    -0.00006195   -0.00000207    0.00001754

     Total force =     0.006632     Total SCF correction =     0.000185
     Energy error            =      9.7E-05 Ry
     Gradient error          =      2.6E-03 Ry/Bohr

     bfgs converged in  23 scf cycles and  22 bfgs steps
     (criteria: energy <  1.0E-04 Ry, force <  1.0E-02 Ry/Bohr)

     End of BFGS Geometry Optimization

     Final energy             =   -2246.4498262293 Ry

     File ./MoS2-V-O.bfgs deleted, as requested
Begin final coordinates

ATOMIC_POSITIONS (angstrom)
Mo            6.5986605531        1.7220922026        2.7609841705
S             8.1724369429        0.8267342905        4.3669287575
S             8.1686118612        0.8132053992        1.1692727868
Mo            8.1626625509        4.4758946248        2.7176185701
S             6.5623882859        3.6367267393        4.3113842173
S             6.5925270984        3.5377596991        1.1199964642
Mo            6.5526322761        7.1583414600        2.6689983596
S             8.1130472815        6.2834725812        4.3085596490
S             8.1769129207        6.3035945556        1.1174209527
Mo            8.1777077172        9.9134284860        2.7675487611
S             6.5582942270        8.9269452916        4.3197374959
S             6.6273559178        9.0062056875        1.1261052910
Mo            3.4854311675        1.7546061027        2.7538507804
S             5.0256612495        0.7925290551        4.3457966095
S             5.0357220557        0.8145402773        1.1620871527
Mo            5.0336107521        4.5206580599        2.6622231901
S             3.5118191743        3.6466336101        4.3202119241
S             3.4748542000        3.5575332669        1.1107869713
Mo            3.5181052830        7.1629324157        2.6722918261
S             5.0320877940        6.2904395469        1.0451837291
Mo            5.0300206921        9.8866287246        2.7257025883
S             3.5082871051        8.9259122211        4.3248429219
S             3.4491122494        8.9979193067        1.1156224916
Mo            0.2778853700        1.7449688291        2.7557633060
S             1.8871570303        0.8223905400        4.2780170192
S             1.8857252098        0.8236229624        1.1910703975
Mo            1.9057394270        4.4725218567        2.7224178766
S             0.3024669481        3.5900717253        4.3290386350
S             0.3034647011        3.5584362667        1.1430654589
Mo            0.2981323881        7.1952055146        2.7447149773
S             1.9475249096        6.2853851644        4.3083090239
S             1.8878393819        6.3067691128        1.1229507181
Mo            1.8892002831        9.8829033691        2.7562999656
S             0.3063052451        9.0028652604        4.3662286195
S             0.2922972267        9.0139240177        1.1652952825
O             1.8729128689       11.7560481869        5.7784345960
End final coordinates



     Writing all to output data dir ./MoS2-V-O.save/
 
     init_run     :      4.66s CPU      5.18s WALL (       1 calls)
     electrons    :   2235.17s CPU   2541.56s WALL (      23 calls)
     update_pot   :     67.46s CPU     72.11s WALL (      22 calls)
     forces       :     63.08s CPU     73.29s WALL (      23 calls)

     Called by init_run:
     wfcinit      :      0.49s CPU      0.53s WALL (       1 calls)
     potinit      :      2.41s CPU      2.67s WALL (       1 calls)
     hinit0       :      0.45s CPU      0.48s WALL (       1 calls)

     Called by electrons:
     c_bands      :    322.80s CPU    330.70s WALL (     224 calls)
     sum_band     :    131.74s CPU    172.40s WALL (     224 calls)
     v_of_rho     :    211.42s CPU    262.12s WALL (     238 calls)
     newd         :     73.86s CPU    111.38s WALL (     238 calls)
     PAW_pot      :      9.40s CPU      9.45s WALL (     260 calls)
     mix_rho      :   1509.12s CPU   1681.24s WALL (     224 calls)

     Called by c_bands:
     init_us_2    :      5.14s CPU      5.53s WALL (     471 calls)
     init_us_2:cp :      5.14s CPU      5.53s WALL (     471 calls)
     regterg      :    305.94s CPU    313.44s WALL (     224 calls)

     Called by *egterg:
     rdiaghg      :     20.85s CPU     21.08s WALL (    1177 calls)
     h_psi        :    198.36s CPU    200.28s WALL (    1209 calls)
     s_psi        :     18.91s CPU     18.98s WALL (    1209 calls)
     g_psi        :      0.96s CPU      0.97s WALL (     984 calls)

     Called by h_psi:
     h_psi:calbec :     21.89s CPU     22.03s WALL (    1209 calls)
     vloc_psi     :    155.13s CPU    156.77s WALL (    1209 calls)
     add_vuspsi   :     18.87s CPU     19.00s WALL (    1209 calls)

     General routines
     calbec       :     31.67s CPU     31.92s WALL (    1547 calls)
     fft          :    146.58s CPU    169.63s WALL (   15860 calls)
     ffts         :    670.75s CPU    836.50s WALL (  370606 calls)
     fftw         :     99.45s CPU    100.34s WALL (  137126 calls)
     interpolate  :      2.93s CPU      3.37s WALL (     238 calls)
 
     Parallel routines
 
     PWSCF        :  39m40.46s CPU  45m 7.22s WALL

 
   This run was terminated on:  23:48: 9   1Nov2023            

=------------------------------------------------------------------------------=
   JOB DONE.
=------------------------------------------------------------------------------=
