
     Program PWSCF v.7.2 starts on  1Nov2023 at 15:53:35 

     This program is part of the open-source Quantum ESPRESSO suite
     for quantum simulation of materials; please cite
         "P. Giannozzi et al., J. Phys.:Condens. Matter 21 395502 (2009);
         "P. Giannozzi et al., J. Phys.:Condens. Matter 29 465901 (2017);
         "P. Giannozzi et al., J. Chem. Phys. 152 154105 (2020);
          URL http://www.quantum-espresso.org", 
     in publications or presentations arising from this work. More details at
     http://www.quantum-espresso.org/quote

     Parallel version (MPI & OpenMP), running on      48 processor cores
     Number of MPI processes:                48
     Threads/MPI process:                     1

     MPI processes distributed on     1 nodes
     77718 MiB available memory on the printing compute node when the environment starts
 
     Waiting for input...
     Reading input from standard input
Warning: card &CELL ignored
Warning: card CELL_DYNAMICS = 'BFGS', ignored
Warning: card CELL_DOFREE = '2DXY' ignored
Warning: card / ignored

     Current dimensions of program PWSCF are:
     Max number of different atomic species (ntypx) = 10
     Max number of k-points (npk) =  40000
     Max angular momentum in pseudopotentials (lmaxx) =  4
     file O.pbe-n-kjpaw_psl.0.1.UPF: wavefunction(s)  2P renormalized

     IMPORTANT: XC functional enforced from input :
     Exchange-correlation= RVV10
                           (   1   4  13   4  26   0   0)
     Any further DFT definition will be discarded
     Please, verify this is what you really want


     gamma-point specific algorithms are used
     signal trapping enabled: kill the code with -SIGUSR1 to stop cleanly the simulation 
 
     R & G space division:  proc/nbgrp/npool/nimage =      48
     Subspace diagonalization in iterative solution of the eigenvalue problem:
     one sub-group per band group will be used
     scalapack distributed-memory algorithm (size of sub-group:  2*  2 procs)

 
     Parallelization info
     --------------------
     sticks:   dense  smooth     PW     G-vecs:    dense   smooth      PW
     Min         396     194     47               101632    35090    4376
     Max         398     196     50               101674    35128    4410
     Sum       19091    9389   2349              4879585  1685513  210763
 
     Using Slab Decomposition
 


     bravais-lattice index     =            0
     lattice parameter (alat)  =      17.8707  a.u.
     unit-cell volume          =   17436.2743 (a.u.)^3
     number of atoms/cell      =           36
     number of atomic types    =            3
     number of electrons       =       312.00
     number of Kohn-Sham states=          187
     kinetic-energy cutoff     =      80.0000  Ry
     charge density cutoff     =     650.0000  Ry
     scf convergence threshold =      1.0E-06
     mixing beta               =       0.7000
     number of iterations used =            8  local-TF  mixing
     energy convergence thresh.=      1.0E-04
     force convergence thresh. =      1.0E-02
     Exchange-correlation= RVV10
                           (   1   4  13   4  26   0   0)
     nstep                     =          200


     celldm(1)=  17.870686  celldm(2)=   0.000000  celldm(3)=   0.000000
     celldm(4)=   0.000000  celldm(5)=   0.000000  celldm(6)=   0.000000

     crystal axes: (cart. coord. in units of alat)
               a(1) = (   1.000000   0.000000   0.000000 )  
               a(2) = (   0.000000   1.155671   0.000000 )  
               a(3) = (   0.000000   0.000000   2.643601 )  

     reciprocal axes: (cart. coord. in units 2 pi/alat)
               b(1) = (  1.000000  0.000000  0.000000 )  
               b(2) = (  0.000000  0.865298  0.000000 )  
               b(3) = (  0.000000  0.000000  0.378272 )  


     PseudoPot. # 1 for Mo read from file:
     ../pseudo/Mo_ONCV_PBE-1.0.oncvpsp.upf
     MD5 check sum: 1b5d28e075c9ccadda658a603575cd1f
     Pseudo is Norm-conserving, Zval = 14.0
     Generated using ONCVPSP code by D. R. Hamann
     Using radial grid of 1526 points,  6 beta functions with: 
                l(1) =   0
                l(2) =   0
                l(3) =   1
                l(4) =   1
                l(5) =   2
                l(6) =   2

     PseudoPot. # 2 for S  read from file:
     ../pseudo/s_pbe_v1.4.uspp.F.UPF
     MD5 check sum: 88d86576ff6df21479756cfb9bdac1df
     Pseudo is Ultrasoft + core correction, Zval =  6.0
     Generated by new atomic code, or converted to UPF format
     Using radial grid of  907 points,  6 beta functions with: 
                l(1) =   0
                l(2) =   0
                l(3) =   1
                l(4) =   1
                l(5) =   2
                l(6) =   2
     Q(r) pseudized with  8 coefficients,  rinner =    1.300   1.300   1.300
                                                       1.300   1.300

     PseudoPot. # 3 for O  read from file:
     ../pseudo/O.pbe-n-kjpaw_psl.0.1.UPF
     MD5 check sum: 0234752ac141de4415c5fc33072bef88
     Pseudo is Projector augmented-wave + core cor, Zval =  6.0
     Generated using "atomic" code by A. Dal Corso  v.5.0.99 svn rev. 10869
     Shape of augmentation charge: BESSEL
     Using radial grid of 1095 points,  4 beta functions with: 
                l(1) =   0
                l(2) =   0
                l(3) =   1
                l(4) =   1
     Q(r) pseudized with 0 coefficients 


     atomic species   valence    mass     pseudopotential
        Mo            14.00    95.94000     Mo( 1.00)
        S              6.00    32.06500     S ( 1.00)
        O              6.00    15.99940     O ( 1.00)

     No symmetry found



   Cartesian axes

     site n.     atom                  positions (alat units)
         1           Mo  tau(   1) = (   0.6952221   0.1890506   0.2985846  )
         2           S   tau(   2) = (   0.8646417   0.0856217   0.4689279  )
         3           S   tau(   3) = (   0.8663890   0.0857843   0.1351291  )
         4           Mo  tau(   4) = (   0.8560186   0.4753274   0.2873942  )
         5           S   tau(   5) = (   0.6873294   0.3936244   0.4596353  )
         6           S   tau(   6) = (   0.6929804   0.3713468   0.1185692  )
         7           Mo  tau(   7) = (   0.6862796   0.7633098   0.2825370  )
         8           S   tau(   8) = (   0.8545980   0.6708292   0.4486168  )
         9           S   tau(   9) = (   0.8545123   0.6666874   0.1146125  )
        10           Mo  tau(  10) = (   0.8629403   1.0471007   0.3006803  )
        11           S   tau(  11) = (   0.6868280   0.9456650   0.4634891  )
        12           S   tau(  12) = (   0.6998113   0.9568511   0.1205389  )
        13           Mo  tau(  13) = (   0.3618216   0.1847309   0.2935964  )
        14           S   tau(  14) = (   0.5260962   0.0863870   0.4600448  )
        15           S   tau(  15) = (   0.5348379   0.0894875   0.1297123  )
        16           Mo  tau(  16) = (   0.5265817   0.4772436   0.2784130  )
        17           S   tau(  17) = (   0.3624753   0.3882513   0.4525556  )
        18           S   tau(  18) = (   0.3635411   0.3752055   0.1119148  )
        19           Mo  tau(  19) = (   0.3652268   0.7630864   0.2781795  )
        20           S   tau(  20) = (   0.5269494   0.6690381   0.1096838  )
        21           Mo  tau(  21) = (   0.5300192   1.0470394   0.2900995  )
        22           S   tau(  22) = (   0.3670346   0.9457522   0.4574073  )
        23           S   tau(  23) = (   0.3604225   0.9585725   0.1159032  )
        24           Mo  tau(  24) = (   0.0313099   0.1847895   0.3013130  )
        25           S   tau(  25) = (   0.1956761   0.0838230   0.4650863  )
        26           S   tau(  26) = (   0.1967693   0.0903508   0.1278874  )
        27           Mo  tau(  27) = (   0.1967578   0.4753919   0.2813011  )
        28           S   tau(  28) = (   0.0287851   0.3864324   0.4586755  )
        29           S   tau(  29) = (   0.0244514   0.3729871   0.1239344  )
        30           Mo  tau(  30) = (   0.0286728   0.7631204   0.2856894  )
        31           S   tau(  31) = (   0.2011512   0.6675435   0.4465001  )
        32           S   tau(  32) = (   0.1969214   0.6672839   0.1104564  )
        33           Mo  tau(  33) = (   0.1950294   1.0511147   0.2932237  )
        34           S   tau(  34) = (   0.0312912   0.9612169   0.4667423  )
        35           S   tau(  35) = (   0.0292670   0.9563028   0.1216485  )
        36           O   tau(  36) = (   1.0000000   0.3852236   0.5407634  )

     number of k points=     1  Gaussian smearing, width (Ry)=  0.0100
                       cart. coord. in units 2pi/alat
        k(    1) = (   0.0000000   0.0000000   0.0000000), wk =   2.0000000

     Dense  grid:  2439793 G-vectors     FFT dimensions: ( 150, 180, 384)

     Smooth grid:   842757 G-vectors     FFT dimensions: ( 108, 120, 270)

     Estimated max dynamical RAM per process >     269.22 MB

     Estimated total dynamical RAM >      12.62 GB

     Initial potential from superposition of free atoms

     starting charge     311.9873, renormalised to     312.0000

     negative rho (up, down):  2.748E-04 0.000E+00


---------------------------------------------------------------------------------
Carrying out rVV10 run using the following parameters:
Nqs =      20    Nr_points =    1024   r_max =   100.000
b_value =  6.30000    beta =  0.00901
     q_mesh =  0.00010000  0.00030000  0.00058939  0.00100810
               0.00161396  0.00249058  0.00375900  0.00559430
               0.00824984  0.01209221  0.01765183  0.02569619
               0.03733578  0.05417739  0.07854596  0.11380545
               0.16482331  0.23864234  0.34545298  0.50000000

Gradients computed in Reciprocal space

---------------------------------------------------------------------------------


     Starting wfcs are  216 randomized atomic wfcs
     Checking if some PAW data can be deallocated... 

     total cpu time spent up to now is        5.3 secs

     Self-consistent Calculation

     iteration #  1     ecut=    80.00 Ry     beta= 0.70
     Davidson diagonalization with overlap
     ethr =  1.00E-02,  avg # of iterations =  3.0

     Threshold (ethr) on eigenvalues was too large:
     Diagonalizing with lowered threshold

     Davidson diagonalization with overlap
     ethr =  9.27E-04,  avg # of iterations =  4.0

     negative rho (up, down):  4.224E-08 0.000E+00

     total cpu time spent up to now is       21.6 secs

     total energy              =   -2241.73038214 Ry
     estimated scf accuracy    <       3.10273396 Ry

     iteration #  2     ecut=    80.00 Ry     beta= 0.70
     Davidson diagonalization with overlap
     ethr =  9.94E-04,  avg # of iterations =  4.0

     total cpu time spent up to now is       27.0 secs

     total energy              =   -2241.81519548 Ry
     estimated scf accuracy    <       0.71121165 Ry

     iteration #  3     ecut=    80.00 Ry     beta= 0.70
     Davidson diagonalization with overlap
     ethr =  2.28E-04,  avg # of iterations =  3.0

     total cpu time spent up to now is       31.2 secs

     total energy              =   -2241.84775342 Ry
     estimated scf accuracy    <       0.12869375 Ry

     iteration #  4     ecut=    80.00 Ry     beta= 0.70
     Davidson diagonalization with overlap
     ethr =  4.12E-05,  avg # of iterations = 18.0

     total cpu time spent up to now is       36.5 secs

     total energy              =   -2241.86672767 Ry
     estimated scf accuracy    <       0.02706760 Ry

     iteration #  5     ecut=    80.00 Ry     beta= 0.70
     Davidson diagonalization with overlap
     ethr =  8.68E-06,  avg # of iterations =  4.0

     total cpu time spent up to now is       40.3 secs

     total energy              =   -2241.86588833 Ry
     estimated scf accuracy    <       0.01661556 Ry

     iteration #  6     ecut=    80.00 Ry     beta= 0.70
     Davidson diagonalization with overlap
     ethr =  5.33E-06,  avg # of iterations =  2.0

     total cpu time spent up to now is       44.0 secs

     total energy              =   -2241.86442882 Ry
     estimated scf accuracy    <       0.01048723 Ry

     iteration #  7     ecut=    80.00 Ry     beta= 0.70
     Davidson diagonalization with overlap
     ethr =  3.36E-06,  avg # of iterations =  2.0

     negative rho (up, down):  6.448E-04 0.000E+00

     total cpu time spent up to now is       50.8 secs

     total energy              =   -2241.86322014 Ry
     estimated scf accuracy    <       0.00632593 Ry

     iteration #  8     ecut=    80.00 Ry     beta= 0.70
     Davidson diagonalization with overlap
     ethr =  2.03E-06,  avg # of iterations =  2.0

     negative rho (up, down):  2.134E-02 0.000E+00

     total cpu time spent up to now is       57.4 secs

     total energy              =   -2241.86282990 Ry
     estimated scf accuracy    <       0.00376667 Ry

     iteration #  9     ecut=    80.00 Ry     beta= 0.70
     Davidson diagonalization with overlap
     ethr =  1.21E-06,  avg # of iterations =  2.0

     negative rho (up, down):  3.141E-02 0.000E+00

     total cpu time spent up to now is       63.4 secs

     total energy              =   -2241.86283210 Ry
     estimated scf accuracy    <       0.00188513 Ry

     iteration # 10     ecut=    80.00 Ry     beta= 0.70
     Davidson diagonalization with overlap
     ethr =  6.04E-07,  avg # of iterations =  2.0

     negative rho (up, down):  2.120E-02 0.000E+00

     total cpu time spent up to now is       70.4 secs

     total energy              =   -2241.86287817 Ry
     estimated scf accuracy    <       0.00072483 Ry

     iteration # 11     ecut=    80.00 Ry     beta= 0.70
     Davidson diagonalization with overlap
     ethr =  2.32E-07,  avg # of iterations =  2.0

     negative rho (up, down):  9.320E-03 0.000E+00

     total cpu time spent up to now is       77.7 secs

     total energy              =   -2241.86302072 Ry
     estimated scf accuracy    <       0.00012915 Ry

     iteration # 12     ecut=    80.00 Ry     beta= 0.70
     Davidson diagonalization with overlap
     ethr =  4.14E-08,  avg # of iterations = 12.0

     negative rho (up, down):  2.893E-03 0.000E+00

     total cpu time spent up to now is       87.5 secs

     total energy              =   -2241.86306716 Ry
     estimated scf accuracy    <       0.00004530 Ry

     iteration # 13     ecut=    80.00 Ry     beta= 0.70
     Davidson diagonalization with overlap
     ethr =  1.45E-08,  avg # of iterations =  2.0

     negative rho (up, down):  7.009E-04 0.000E+00

     total cpu time spent up to now is       96.3 secs

     total energy              =   -2241.86307084 Ry
     estimated scf accuracy    <       0.00001251 Ry

     iteration # 14     ecut=    80.00 Ry     beta= 0.70
     Davidson diagonalization with overlap
     ethr =  4.01E-09,  avg # of iterations =  4.0

     negative rho (up, down):  7.360E-04 0.000E+00

     total cpu time spent up to now is      105.7 secs

     total energy              =   -2241.86307413 Ry
     estimated scf accuracy    <       0.00000363 Ry

     iteration # 15     ecut=    80.00 Ry     beta= 0.70
     Davidson diagonalization with overlap
     ethr =  1.16E-09,  avg # of iterations =  5.0

     negative rho (up, down):  4.309E-04 0.000E+00

     total cpu time spent up to now is      109.4 secs

     End of self-consistent calculation

          k = 0.0000 0.0000 0.0000 (105382 PWs)   bands (ev):

   -62.7883 -62.7530 -62.7472 -62.7352 -62.7341 -62.7271 -62.7237 -62.7179
   -62.7147 -62.7094 -62.5223 -62.4870 -37.1411 -37.0920 -37.0446 -37.0220
   -37.0094 -36.9942 -36.9839 -36.9804 -36.9660 -36.9460 -36.9372 -36.9305
   -36.9208 -36.9135 -36.9071 -36.9046 -36.8952 -36.8927 -36.8839 -36.8814
   -36.8773 -36.8640 -36.8548 -36.8458 -36.8241 -36.7964 -36.7770 -36.7715
   -36.7550 -36.7295 -36.6996 -36.6701 -36.6615 -36.6156 -36.6084 -36.5696
   -30.2411 -16.7413 -16.7061 -15.8440 -15.0553 -15.0120 -14.8644 -14.7662
   -14.7011 -14.4216 -14.3974 -14.3405 -14.3090 -14.2664 -14.2318 -14.1997
   -14.1501 -14.0460 -14.0361 -14.0028 -13.9223 -13.8808 -13.7493 -13.7290
   -13.7006 -12.3646  -9.0461  -7.5022  -7.3426  -7.1821  -7.1725  -7.1319
    -7.0840  -7.0629  -6.9758  -6.7209  -6.7011  -6.6295  -6.5886  -6.5323
    -6.3965  -6.3728  -6.2600  -6.1871  -6.1700  -6.1133  -5.8732  -5.8177
    -5.7883  -5.6847  -5.6647  -5.6370  -5.5993  -5.5735  -5.5366  -5.5085
    -5.4825  -5.3822  -5.3613  -5.2941  -5.2224  -5.1024  -5.0196  -4.9722
    -4.9042  -4.8801  -4.8206  -4.6818  -4.6121  -4.5562  -4.5375  -4.3991
    -4.2182  -4.1666  -4.0977  -4.0622  -4.0166  -3.9124  -3.7935  -3.7186
    -3.7024  -3.6137  -3.6071  -3.5272  -3.5098  -3.4177  -3.3843  -3.3695
    -3.3027  -3.2625  -3.2064  -3.1621  -2.9673  -2.9345  -2.8568  -2.7317
    -2.6752  -2.6367  -2.5975  -2.5903  -2.5519  -2.5176  -2.4367  -2.3018
    -2.2438  -1.8844  -1.8019  -1.7813  -0.7438  -0.6682  -0.1189  -0.0365
    -0.0002   0.0099   0.1032   0.2316   0.2674   0.3255   0.3514   0.3962
     0.4457   0.5434   0.5689   0.6144   0.6567   0.6933   0.7424   0.7744
     0.8385   0.8616   0.9050   0.9445   0.9612   1.0114   1.0553   1.0968
     1.1639   1.1753   1.3593

     the Fermi energy is    -1.2604 ev

!    total energy              =   -2241.86307633 Ry
     estimated scf accuracy    <       0.00000093 Ry
     smearing contrib. (-TS)   =      -0.00000001 Ry
     internal energy E=F+TS    =   -2241.86307632 Ry

     The total energy is F=E-TS. E is the sum of the following terms:
     one-electron contribution =  -18520.51885921 Ry
     hartree contribution      =    9249.06577407 Ry
     xc contribution           =    -393.93859801 Ry
     ewald contribution        =    7433.32168179 Ry
     one-center paw contrib.   =      -9.79307496 Ry

     convergence has been achieved in  15 iterations

     negative rho (up, down):  4.309E-04 0.000E+00

     Forces acting on atoms (cartesian axes, Ry/au):

     atom    1 type  1   force =     0.00944591   -0.02614841    0.00464056
     atom    2 type  2   force =    -0.01557397    0.01998227    0.00501081
     atom    3 type  2   force =    -0.01732889    0.00834516   -0.00451095
     atom    4 type  1   force =     0.00395143    0.01253172   -0.03614538
     atom    5 type  2   force =     0.00075662   -0.00597625   -0.00443851
     atom    6 type  2   force =    -0.00338300    0.00745565   -0.00017138
     atom    7 type  1   force =     0.00460618   -0.01551953   -0.01093685
     atom    8 type  2   force =     0.00486964   -0.00668892    0.02296293
     atom    9 type  2   force =     0.01418402    0.01179909    0.01054474
     atom   10 type  1   force =    -0.00985111    0.01113174   -0.02785948
     atom   11 type  2   force =     0.00468811   -0.00149732   -0.00790967
     atom   12 type  2   force =    -0.00074609    0.00086683    0.00785103
     atom   13 type  1   force =     0.00710360    0.00067336   -0.00680392
     atom   14 type  2   force =     0.00806654   -0.00032752    0.01162498
     atom   15 type  2   force =    -0.01221000    0.00428821   -0.00900381
     atom   16 type  1   force =    -0.00021147    0.01001036    0.00200462
     atom   17 type  2   force =     0.00716809   -0.00194902    0.00264477
     atom   18 type  2   force =     0.00033587   -0.00986447    0.01116634
     atom   19 type  1   force =     0.00535787   -0.01338058   -0.00680201
     atom   20 type  2   force =     0.00326889   -0.00348507    0.00218276
     atom   21 type  1   force =    -0.00567662    0.00514614    0.00061959
     atom   22 type  2   force =    -0.00274228   -0.00144516   -0.00352129
     atom   23 type  2   force =    -0.00150162    0.00129919    0.01163771
     atom   24 type  1   force =    -0.00045468   -0.00773330   -0.02783543
     atom   25 type  2   force =     0.01692238    0.02059547    0.01079817
     atom   26 type  2   force =    -0.00537746   -0.00193980   -0.00558238
     atom   27 type  1   force =     0.00062198    0.01075141    0.03790658
     atom   28 type  2   force =     4.66105126    0.15766103  -13.73093166
     atom   29 type  2   force =     0.00332764   -0.00005651    0.00421625
     atom   30 type  1   force =    -0.00479130    0.01147892   -0.00476898
     atom   31 type  2   force =    -0.00149342    0.00288228    0.02120744
     atom   32 type  2   force =    -0.01075678    0.00919417    0.00550144
     atom   33 type  1   force =     0.01330559   -0.00409156   -0.01020484
     atom   34 type  2   force =     0.00339972   -0.04380895   -0.01012724
     atom   35 type  2   force =    -0.00806142    0.00772593    0.01505036
     atom   36 type  3   force =    -4.67227128   -0.16990655   13.71998267
     The non-local contrib.  to forces
     atom    1 type  1   force =     0.00138925    0.03435409   -0.01269638
     atom    2 type  2   force =    -0.00400732    0.01179588   -0.26289324
     atom    3 type  2   force =    -0.02103245   -0.00558093    0.26862023
     atom    4 type  1   force =     0.04688930   -0.01966079    0.04602318
     atom    5 type  2   force =     0.00665443   -0.02849149   -0.24734237
     atom    6 type  2   force =    -0.00688363    0.00639233    0.25831379
     atom    7 type  1   force =    -0.01825890    0.00060237   -0.01909834
     atom    8 type  2   force =     0.01110650   -0.01513658   -0.24416515
     atom    9 type  2   force =     0.00873883   -0.00133956    0.27625424
     atom   10 type  1   force =     0.00059339    0.00158997   -0.00069632
     atom   11 type  2   force =     0.01615200    0.00487179   -0.25851696
     atom   12 type  2   force =    -0.01262164   -0.01841419    0.26490732
     atom   13 type  1   force =    -0.00252026    0.02136208   -0.00939532
     atom   14 type  2   force =     0.00937909   -0.01054253   -0.26070033
     atom   15 type  2   force =    -0.01361912   -0.00465431    0.26085986
     atom   16 type  1   force =     0.00277131    0.03325685   -0.02336110
     atom   17 type  2   force =    -0.01792589   -0.02069840   -0.24225737
     atom   18 type  2   force =    -0.00082405   -0.00616505    0.27055672
     atom   19 type  1   force =     0.01341983    0.00062419   -0.01406794
     atom   20 type  2   force =    -0.00019934   -0.02303834    0.26913559
     atom   21 type  1   force =     0.00294384    0.03016573    0.00411685
     atom   22 type  2   force =    -0.00845466    0.00161338   -0.25822633
     atom   23 type  2   force =     0.00733218   -0.01654341    0.26897632
     atom   24 type  1   force =     0.00656729    0.05990101    0.02808061
     atom   25 type  2   force =    -0.00223047    0.01994770   -0.25265737
     atom   26 type  2   force =     0.00346279   -0.01558426    0.26087254
     atom   27 type  1   force =    -0.02166310   -0.01362905    0.02427277
     atom   28 type  2   force =     2.37850191    0.11368578   -6.81459951
     atom   29 type  2   force =     0.00815876    0.00171480    0.26518103
     atom   30 type  1   force =    -0.00190436    0.01358903    0.00665214
     atom   31 type  2   force =    -0.01406491   -0.01876183   -0.24261809
     atom   32 type  2   force =    -0.00286507   -0.00638765    0.27364276
     atom   33 type  1   force =    -0.00579895    0.00719710    0.00635694
     atom   34 type  2   force =    -0.00009552   -0.03758960   -0.27154320
     atom   35 type  2   force =    -0.00219047   -0.01161987    0.27170319
     atom   36 type  3   force =     0.47349326    0.09615588   -0.42657889
     The ionic contribution  to forces
     atom    1 type  1   force =    -0.89153165   -0.87188592    3.84301561
     atom    2 type  2   force =    -1.35612131   -1.16981571   38.83398739
     atom    3 type  2   force =    -0.30015376   -0.31622827  -36.88451733
     atom    4 type  1   force =    -2.27139535    2.15005490   -4.24301070
     atom    5 type  2   force =    -2.66338134    1.55071959   38.16277784
     atom    6 type  2   force =     0.08824255   -0.51904197  -38.88194506
     atom    7 type  1   force =    -3.11000638   -2.01493176    1.40279357
     atom    8 type  2   force =    -1.74992724    1.58452707   36.79534377
     atom    9 type  2   force =     0.20520871    0.26076334  -38.80199893
     atom   10 type  1   force =    -1.39145019   -0.87107046    4.57484957
     atom   11 type  2   force =    -0.72939794   -1.56027974   39.01081497
     atom   12 type  2   force =     0.37338245    0.69988273  -38.33957880
     atom   13 type  1   force =     1.37682761    0.13743601    1.30616076
     atom   14 type  2   force =    -0.01896174   -0.39936771   38.34035275
     atom   15 type  2   force =     0.12522886   -0.22890467  -37.36341501
     atom   16 type  1   force =    -0.23809765    4.29827486   -1.00623868
     atom   17 type  2   force =     1.90088793    1.51276724   37.48750192
     atom   18 type  2   force =     0.02720643   -0.65689355  -39.33083991
     atom   19 type  1   force =     3.10054578   -1.79489834   -0.43911972
     atom   20 type  2   force =     0.20561448   -0.04384254  -39.04373460
     atom   21 type  1   force =    -0.02197120   -0.20701774    0.32124231
     atom   22 type  2   force =     0.58850675   -1.67685908   38.29882456
     atom   23 type  2   force =    -0.03214110    0.67060849  -38.76154114
     atom   24 type  1   force =    -0.07776988   -2.00346475    1.56762186
     atom   25 type  2   force =     1.38674002   -0.90871674   38.89708191
     atom   26 type  2   force =    -0.12664576   -0.21862203  -38.07566633
     atom   27 type  1   force =     2.28336412    1.54504770   -6.03895801
     atom   28 type  2   force =     9.87701935    1.41952151   10.08364305
     atom   29 type  2   force =    -0.20727067   -0.46032220  -38.67402046
     atom   30 type  1   force =    -0.22077578    0.58705110   -1.73577340
     atom   31 type  2   force =     2.03277403    1.15681731   36.83069939
     atom   32 type  2   force =    -0.32747772    0.25581234  -39.38172406
     atom   33 type  1   force =     1.14308786   -1.35641299    1.00717797
     atom   34 type  2   force =     0.27735977   -1.43135463   39.19392979
     atom   35 type  2   force =    -0.28672469    0.48869700  -38.36370799
     atom   36 type  3   force =    -8.97079535    0.39194962   69.40797113
     The local contribution  to forces
     atom    1 type  1   force =     0.89941466    0.81138738   -3.82477652
     atom    2 type  2   force =     1.34478043    1.17891578  -38.58565149
     atom    3 type  2   force =     0.30279108    0.32991931   36.63238340
     atom    4 type  1   force =     2.22829346   -2.11790811    4.16162824
     atom    5 type  2   force =     2.65845959   -1.52990490  -37.93913890
     atom    6 type  2   force =    -0.08542996    0.52087453   38.64431461
     atom    7 type  1   force =     3.13284147    1.99874188   -1.39371243
     atom    8 type  2   force =     1.74443790   -1.57748114  -36.54719076
     atom    9 type  2   force =    -0.19954691   -0.24762739   38.55740673
     atom   10 type  1   force =     1.38108769    0.88070673   -4.60104045
     atom   11 type  2   force =     0.71871373    1.55442841  -38.78020626
     atom   12 type  2   force =    -0.36265671   -0.68203038   38.10368576
     atom   13 type  1   force =    -1.36708453   -0.15809822   -1.30255754
     atom   14 type  2   force =     0.01808115    0.40956399  -38.08797530
     atom   15 type  2   force =    -0.12459747    0.23755865   37.11436247
     atom   16 type  1   force =     0.23510765   -4.32158022    1.03245142
     atom   17 type  2   force =    -1.87706063   -1.49525590  -37.26156489
     atom   18 type  2   force =    -0.02590358    0.65350812   39.09256545
     atom   19 type  1   force =    -3.10865285    1.78081493    0.44727185
     atom   20 type  2   force =    -0.20230975    0.06241589   38.79832334
     atom   21 type  1   force =     0.01331313    0.18226966   -0.32383376
     atom   22 type  2   force =    -0.58309705    1.67419847  -38.06402035
     atom   23 type  2   force =     0.02386597   -0.65409442   38.52533649
     atom   24 type  1   force =     0.07086294    1.93567489   -1.62262203
     atom   25 type  2   force =    -1.36810072    0.91078867  -38.65311863
     atom   26 type  2   force =     0.11838383    0.23144121   37.83014535
     atom   27 type  1   force =    -2.26092140   -1.52078950    6.05344877
     atom   28 type  2   force =    -7.44733884   -1.36896311  -17.42288913
     atom   29 type  2   force =     0.20313510    0.45912313   38.43398810
     atom   30 type  1   force =     0.21793386   -0.58902207    1.72530614
     atom   31 type  2   force =    -2.02119190   -1.13651134  -36.58590941
     atom   32 type  2   force =     0.31971718   -0.24063620   39.13477651
     atom   33 type  1   force =    -1.12405208    1.34525185   -1.02274785
     atom   34 type  2   force =    -0.27417976    1.42392066  -38.95295708
     atom   35 type  2   force =     0.28094786   -0.47029592   38.12844239
     atom   36 type  3   force =     3.81046353   -0.65790194  -55.21045480
     The core correction contribution to forces
     atom    1 type  1   force =     0.00000000    0.00000000    0.00000000
     atom    2 type  2   force =    -0.00022011   -0.00094706    0.02015132
     atom    3 type  2   force =     0.00105847    0.00021771   -0.02076961
     atom    4 type  1   force =     0.00000000    0.00000000    0.00000000
     atom    5 type  2   force =    -0.00103363    0.00164832    0.01987812
     atom    6 type  2   force =     0.00063383   -0.00081103   -0.02062664
     atom    7 type  1   force =     0.00000000    0.00000000    0.00000000
     atom    8 type  2   force =    -0.00072598    0.00143494    0.01963220
     atom    9 type  2   force =    -0.00022153    0.00000568   -0.02092263
     atom   10 type  1   force =     0.00000000    0.00000000    0.00000000
     atom   11 type  2   force =    -0.00074195   -0.00049501    0.02057095
     atom   12 type  2   force =     0.00116921    0.00145695   -0.02095960
     atom   13 type  1   force =     0.00000000    0.00000000    0.00000000
     atom   14 type  2   force =    -0.00046976    0.00006650    0.02049224
     atom   15 type  2   force =     0.00075413    0.00034600   -0.02057959
     atom   16 type  1   force =     0.00000000    0.00000000    0.00000000
     atom   17 type  2   force =     0.00127609    0.00112518    0.01960745
     atom   18 type  2   force =    -0.00011896   -0.00036036   -0.02089203
     atom   19 type  1   force =     0.00000000    0.00000000    0.00000000
     atom   20 type  2   force =     0.00016718    0.00090916   -0.02135545
     atom   21 type  1   force =     0.00000000    0.00000000    0.00000000
     atom   22 type  2   force =     0.00024631   -0.00034424    0.02050414
     atom   23 type  2   force =    -0.00057186    0.00138106   -0.02095706
     atom   24 type  1   force =     0.00000000    0.00000000    0.00000000
     atom   25 type  2   force =     0.00056623   -0.00140919    0.02008654
     atom   26 type  2   force =    -0.00055680    0.00084204   -0.02070850
     atom   27 type  1   force =     0.00000000    0.00000000    0.00000000
     atom   28 type  2   force =    -0.14704818   -0.00661172    0.42359388
     atom   29 type  2   force =    -0.00067992   -0.00063091   -0.02080716
     atom   30 type  1   force =     0.00000000    0.00000000    0.00000000
     atom   31 type  2   force =     0.00096447    0.00133969    0.01969266
     atom   32 type  2   force =    -0.00013442    0.00038345   -0.02101202
     atom   33 type  1   force =     0.00000000    0.00000000    0.00000000
     atom   34 type  2   force =     0.00033121    0.00121355    0.02101717
     atom   35 type  2   force =    -0.00009750    0.00097682   -0.02114935
     atom   36 type  3   force =     0.01436475   -0.00012080   -0.04956315
     The Hubbard contrib.    to forces
     atom    1 type  1   force =     0.00000000    0.00000000    0.00000000
     atom    2 type  2   force =     0.00000000    0.00000000    0.00000000
     atom    3 type  2   force =     0.00000000    0.00000000    0.00000000
     atom    4 type  1   force =     0.00000000    0.00000000    0.00000000
     atom    5 type  2   force =     0.00000000    0.00000000    0.00000000
     atom    6 type  2   force =     0.00000000    0.00000000    0.00000000
     atom    7 type  1   force =     0.00000000    0.00000000    0.00000000
     atom    8 type  2   force =     0.00000000    0.00000000    0.00000000
     atom    9 type  2   force =     0.00000000    0.00000000    0.00000000
     atom   10 type  1   force =     0.00000000    0.00000000    0.00000000
     atom   11 type  2   force =     0.00000000    0.00000000    0.00000000
     atom   12 type  2   force =     0.00000000    0.00000000    0.00000000
     atom   13 type  1   force =     0.00000000    0.00000000    0.00000000
     atom   14 type  2   force =     0.00000000    0.00000000    0.00000000
     atom   15 type  2   force =     0.00000000    0.00000000    0.00000000
     atom   16 type  1   force =     0.00000000    0.00000000    0.00000000
     atom   17 type  2   force =     0.00000000    0.00000000    0.00000000
     atom   18 type  2   force =     0.00000000    0.00000000    0.00000000
     atom   19 type  1   force =     0.00000000    0.00000000    0.00000000
     atom   20 type  2   force =     0.00000000    0.00000000    0.00000000
     atom   21 type  1   force =     0.00000000    0.00000000    0.00000000
     atom   22 type  2   force =     0.00000000    0.00000000    0.00000000
     atom   23 type  2   force =     0.00000000    0.00000000    0.00000000
     atom   24 type  1   force =     0.00000000    0.00000000    0.00000000
     atom   25 type  2   force =     0.00000000    0.00000000    0.00000000
     atom   26 type  2   force =     0.00000000    0.00000000    0.00000000
     atom   27 type  1   force =     0.00000000    0.00000000    0.00000000
     atom   28 type  2   force =     0.00000000    0.00000000    0.00000000
     atom   29 type  2   force =     0.00000000    0.00000000    0.00000000
     atom   30 type  1   force =     0.00000000    0.00000000    0.00000000
     atom   31 type  2   force =     0.00000000    0.00000000    0.00000000
     atom   32 type  2   force =     0.00000000    0.00000000    0.00000000
     atom   33 type  1   force =     0.00000000    0.00000000    0.00000000
     atom   34 type  2   force =     0.00000000    0.00000000    0.00000000
     atom   35 type  2   force =     0.00000000    0.00000000    0.00000000
     atom   36 type  3   force =     0.00000000    0.00000000    0.00000000
     The SCF correction term to forces
     atom    1 type  1   force =     0.00017406   -0.00000253   -0.00086625
     atom    2 type  2   force =    -0.00000525    0.00003482   -0.00054728
     atom    3 type  2   force =     0.00000818    0.00001877   -0.00019175
     atom    4 type  1   force =     0.00016443    0.00004716   -0.00075021
     atom    5 type  2   force =     0.00005796    0.00005366   -0.00057730
     atom    6 type  2   force =     0.00005461    0.00004320   -0.00019218
     atom    7 type  1   force =     0.00003039    0.00006941   -0.00088376
     atom    8 type  2   force =    -0.00002115   -0.00003177   -0.00062125
     atom    9 type  2   force =     0.00000533   -0.00000155   -0.00015878
     atom   10 type  1   force =    -0.00008159   -0.00009307   -0.00093639
     atom   11 type  2   force =    -0.00003732   -0.00002133   -0.00053647
     atom   12 type  2   force =    -0.00001900   -0.00002684   -0.00016776
     atom   13 type  1   force =    -0.00011882   -0.00002506   -0.00097593
     atom   14 type  2   force =     0.00003821   -0.00004635   -0.00050848
     atom   15 type  2   force =     0.00002399   -0.00005602   -0.00019564
     atom   16 type  1   force =     0.00000763    0.00006030   -0.00081113
     atom   17 type  2   force =    -0.00000901    0.00011428   -0.00060645
     atom   18 type  2   force =    -0.00002355    0.00004780   -0.00018799
     atom   19 type  1   force =     0.00004551    0.00008007   -0.00085031
     atom   20 type  2   force =    -0.00000328    0.00007218   -0.00015022
     atom   21 type  1   force =     0.00003802   -0.00027009   -0.00086992
     atom   22 type  2   force =     0.00005676   -0.00005225   -0.00056742
     atom   23 type  2   force =     0.00001359   -0.00005110   -0.00014100
     atom   24 type  1   force =    -0.00011463    0.00015698   -0.00087998
     atom   25 type  2   force =    -0.00005229   -0.00001354   -0.00055839
     atom   26 type  2   force =    -0.00002112   -0.00001533   -0.00018954
     atom   27 type  1   force =    -0.00015724    0.00012370   -0.00082106
     atom   28 type  2   force =    -0.00008259    0.00003001   -0.00064406
     atom   29 type  2   force =    -0.00001523    0.00006010   -0.00008936
     atom   30 type  1   force =    -0.00004462   -0.00013772   -0.00091797
     atom   31 type  2   force =     0.00002529   -0.00000011   -0.00062121
     atom   32 type  2   force =     0.00000365    0.00002368   -0.00014586
     atom   33 type  1   force =     0.00006917   -0.00012609   -0.00095600
     atom   34 type  2   force =    -0.00001557    0.00000250   -0.00053802
     atom   35 type  2   force =     0.00000378   -0.00003067   -0.00020198
     atom   36 type  3   force =     0.00020294    0.00001212   -0.00135573

     Total force =    20.503658     Total SCF correction =     0.003940

     BFGS Geometry Optimization
     Energy error            =      0.0E+00 Ry
     Gradient error          =      1.4E+01 Ry/Bohr

     number of scf cycles    =   1
     number of bfgs steps    =   0

     energy             new  =   -2241.8630763293 Ry

     new trust radius        =       0.5000000000 bohr
     new conv_thr            =       0.0000010000 Ry


ATOMIC_POSITIONS (angstrom)
Mo            6.5747207567        1.7873291305        2.8237277027
S             8.1764251792        0.8100686173        4.4346297789
S             8.1929169065        0.8113940090        1.2778011203
Mo            8.0952346621        4.4952855959        2.7171588919
S             6.4999230619        3.7223024461        4.3465796644
S             6.5532880727        3.5118735898        1.1212771011
Mo            6.4900657399        7.2181541175        2.6716849330
S             8.0818165787        6.3437489478        4.2428805405
S             8.0811764461        6.3049176004        1.0840553961
Mo            8.1604393069        9.9023835208        2.8429534423
S             6.4952531342        8.9428994947        4.3829612153
S             6.6179335866        9.0487270291        1.1400505511
Mo            3.4217892739        1.7469681368        2.7763470194
S             4.9753126714        0.8169352333        4.3507451998
S             5.0576109729        0.8463403506        1.2264941792
Mo            4.9797528229        4.5133606500        2.6329211249
S             3.4279724496        3.6715641242        4.2797578356
S             3.4379267092        3.5480487126        1.0585554209
Mo            3.4539594987        7.2160803990        2.6305527536
S             4.9832938365        6.3268686978        1.0372935574
Mo            5.0121603457        9.9016939468        2.7434122657
S             3.4709080820        8.9437249009        4.3255270634
S             3.4084017675        9.0650136886        1.0962806385
Mo            0.2960821911        1.7473684310        2.8489368289
S             1.8507709751        0.7930697877        4.3984064601
S             1.8607019182        0.8543905249        1.2092989992
Mo            1.8607026578        4.4958629295        2.6608890163
S             0.3572585009        3.6572754793        4.0870521410
S             0.2312919231        3.5272481954        1.1720948126
Mo            0.2710647299        7.2168555363        2.7016094140
S             1.9022109990        6.3128514245        4.2228310683
S             1.8620419484        6.3105115673        1.0446596613
Mo            1.8445894340        9.9400644997        2.7727600562
S             0.2959749300        9.0891984975        4.4136846861
S             0.2766243127        9.0436666804        1.1506753857
O             9.3715106300        3.6398665842        5.3642016510



     Writing config-only to output data dir ./MoS2-V-O.save/
     NEW-OLD atomic charge density approx. for the potential

     negative rho (up, down):  3.902E-03 0.000E+00

     total cpu time spent up to now is      116.7 secs

     Self-consistent Calculation

     iteration #  1     ecut=    80.00 Ry     beta= 0.70
     Davidson diagonalization with overlap
     c_bands:  1 eigenvalues not converged
     ethr =  1.00E-06,  avg # of iterations = 20.0

     negative rho (up, down):  1.088E-02 0.000E+00

     total cpu time spent up to now is      135.0 secs

     total energy              =   -2246.34275256 Ry
     estimated scf accuracy    <       0.73731655 Ry

     iteration #  2     ecut=    80.00 Ry     beta= 0.70
     Davidson diagonalization with overlap
     ethr =  2.36E-04,  avg # of iterations =  2.0

     negative rho (up, down):  2.750E-02 0.000E+00

     total cpu time spent up to now is      147.9 secs

     total energy              =   -2246.29211766 Ry
     estimated scf accuracy    <       0.14594672 Ry

     iteration #  3     ecut=    80.00 Ry     beta= 0.70
     Davidson diagonalization with overlap
     ethr =  4.68E-05,  avg # of iterations =  3.0

     negative rho (up, down):  2.712E-02 0.000E+00

     total cpu time spent up to now is      157.6 secs

     total energy              =   -2246.31890844 Ry
     estimated scf accuracy    <       0.00459496 Ry

     iteration #  4     ecut=    80.00 Ry     beta= 0.70
     Davidson diagonalization with overlap
     ethr =  1.47E-06,  avg # of iterations = 12.0

     negative rho (up, down):  2.603E-02 0.000E+00

     total cpu time spent up to now is      167.1 secs

     total energy              =   -2246.31885420 Ry
     estimated scf accuracy    <       0.00255155 Ry

     iteration #  5     ecut=    80.00 Ry     beta= 0.70
     Davidson diagonalization with overlap
     ethr =  8.18E-07,  avg # of iterations =  2.0

     negative rho (up, down):  2.352E-02 0.000E+00

     total cpu time spent up to now is      176.4 secs

     total energy              =   -2246.31888406 Ry
     estimated scf accuracy    <       0.00079024 Ry

     iteration #  6     ecut=    80.00 Ry     beta= 0.70
     Davidson diagonalization with overlap
     ethr =  2.53E-07,  avg # of iterations =  2.0

     negative rho (up, down):  1.900E-02 0.000E+00

     total cpu time spent up to now is      186.8 secs

     total energy              =   -2246.31882318 Ry
     estimated scf accuracy    <       0.00026620 Ry

     iteration #  7     ecut=    80.00 Ry     beta= 0.70
     Davidson diagonalization with overlap
     ethr =  8.53E-08,  avg # of iterations =  5.0

     negative rho (up, down):  1.525E-02 0.000E+00

     total cpu time spent up to now is      196.4 secs

     total energy              =   -2246.31877742 Ry
     estimated scf accuracy    <       0.00010567 Ry

     iteration #  8     ecut=    80.00 Ry     beta= 0.70
     Davidson diagonalization with overlap
     ethr =  3.39E-08,  avg # of iterations =  2.0

     negative rho (up, down):  9.372E-03 0.000E+00

     total cpu time spent up to now is      204.9 secs

     total energy              =   -2246.31868054 Ry
     estimated scf accuracy    <       0.00006576 Ry

     iteration #  9     ecut=    80.00 Ry     beta= 0.70
     Davidson diagonalization with overlap
     ethr =  2.11E-08,  avg # of iterations =  2.0

     negative rho (up, down):  5.502E-03 0.000E+00

     total cpu time spent up to now is      214.2 secs

     total energy              =   -2246.31863014 Ry
     estimated scf accuracy    <       0.00002838 Ry

     iteration # 10     ecut=    80.00 Ry     beta= 0.70
     Davidson diagonalization with overlap
     ethr =  9.10E-09,  avg # of iterations =  2.0

     negative rho (up, down):  2.646E-03 0.000E+00

     total cpu time spent up to now is      220.3 secs

     total energy              =   -2246.31860441 Ry
     estimated scf accuracy    <       0.00001055 Ry

     iteration # 11     ecut=    80.00 Ry     beta= 0.70
     Davidson diagonalization with overlap
     ethr =  3.38E-09,  avg # of iterations =  5.0

     negative rho (up, down):  1.500E-03 0.000E+00

     total cpu time spent up to now is      228.2 secs

     total energy              =   -2246.31859627 Ry
     estimated scf accuracy    <       0.00000439 Ry

     iteration # 12     ecut=    80.00 Ry     beta= 0.70
     Davidson diagonalization with overlap
     ethr =  1.41E-09,  avg # of iterations =  2.0

     negative rho (up, down):  5.003E-04 0.000E+00

     total cpu time spent up to now is      236.5 secs

     total energy              =   -2246.31859053 Ry
     estimated scf accuracy    <       0.00000214 Ry

     iteration # 13     ecut=    80.00 Ry     beta= 0.70
     Davidson diagonalization with overlap
     ethr =  6.86E-10,  avg # of iterations =  2.0

     negative rho (up, down):  2.096E-04 0.000E+00

     total cpu time spent up to now is      239.9 secs

     End of self-consistent calculation

          k = 0.0000 0.0000 0.0000 (105382 PWs)   bands (ev):

   -62.9638 -62.9513 -62.9253 -62.9245 -62.9147 -62.9094 -62.9028 -62.8975
   -62.8943 -62.8904 -62.7823 -62.7642 -37.3438 -37.2872 -37.2416 -37.2322
   -37.2083 -37.1937 -37.1723 -37.1584 -37.1569 -37.1526 -37.1445 -37.1192
   -37.1083 -37.1023 -37.0979 -37.0902 -37.0831 -37.0789 -37.0718 -37.0605
   -37.0543 -37.0510 -37.0408 -37.0318 -37.0161 -36.9998 -36.9876 -36.9766
   -36.9679 -36.9475 -36.9342 -36.9043 -36.8799 -36.8613 -36.8516 -36.8297
   -24.6822 -16.0448 -15.2821 -15.2095 -15.0578 -14.9864 -14.8574 -14.6043
   -14.5826 -14.5364 -14.5040 -14.4508 -14.4084 -14.3803 -14.3335 -14.2316
   -14.1979 -14.1728 -14.1107 -14.0346 -13.9519 -13.9104 -13.8642 -13.6970
    -8.7201  -8.6934  -7.9874  -7.5983  -7.4660  -7.3660  -7.3469  -7.2767
    -7.2352  -7.1800  -7.0652  -6.9138  -6.8676  -6.7667  -6.7296  -6.6351
    -6.5716  -6.5385  -6.3765  -6.3268  -6.2518  -6.2081  -6.0541  -5.9753
    -5.9373  -5.8457  -5.8338  -5.8050  -5.7802  -5.7545  -5.7193  -5.6816
    -5.5748  -5.5489  -5.5155  -5.3604  -5.3002  -5.2576  -5.1814  -5.1327
    -5.0796  -5.0587  -4.9792  -4.7890  -4.7457  -4.6445  -4.6054  -4.5176
    -4.4242  -4.3296  -4.2466  -4.2002  -4.0923  -4.0402  -3.9987  -3.8953
    -3.8761  -3.8053  -3.7815  -3.6866  -3.6673  -3.6113  -3.5889  -3.5586
    -3.5185  -3.4477  -3.3738  -3.3285  -3.2747  -3.1338  -3.0369  -2.9673
    -2.9320  -2.8258  -2.7769  -2.7490  -2.7328  -2.7039  -2.6579  -2.4680
    -2.3534  -2.0985  -2.0203  -1.9613  -0.9398  -0.8388  -0.3027  -0.2474
    -0.2029  -0.1883  -0.0698   0.0409   0.0991   0.1464   0.1752   0.1904
     0.2534   0.3237   0.3797   0.4257   0.4454   0.5041   0.5687   0.5877
     0.6517   0.6789   0.6937   0.7375   0.7779   0.8623   0.8751   0.9590
     0.9861   1.0332   1.2555

     the Fermi energy is    -1.4503 ev

!    total energy              =   -2246.31859037 Ry
     estimated scf accuracy    <       0.00000050 Ry
     smearing contrib. (-TS)   =      -0.00000001 Ry
     internal energy E=F+TS    =   -2246.31859036 Ry

     The total energy is F=E-TS. E is the sum of the following terms:
     one-electron contribution =  -18490.03266545 Ry
     hartree contribution      =    9232.65568797 Ry
     xc contribution           =    -392.49985616 Ry
     ewald contribution        =    7413.40318018 Ry
     one-center paw contrib.   =      -9.84493689 Ry

     convergence has been achieved in  13 iterations

     negative rho (up, down):  2.096E-04 0.000E+00

     Forces acting on atoms (cartesian axes, Ry/au):

     atom    1 type  1   force =     0.01114518   -0.02392381    0.00635531
     atom    2 type  2   force =    -0.01500928    0.02033484    0.00459248
     atom    3 type  2   force =    -0.01683322    0.00685404   -0.00482150
     atom    4 type  1   force =    -0.01320443    0.02623277   -0.06281904
     atom    5 type  2   force =     0.00017970   -0.00527674   -0.00616308
     atom    6 type  2   force =    -0.00216792    0.00956844    0.00165405
     atom    7 type  1   force =     0.00614344   -0.01246070   -0.01066289
     atom    8 type  2   force =     0.00337864   -0.00834097    0.02273232
     atom    9 type  2   force =     0.01165784    0.00895219    0.01171678
     atom   10 type  1   force =    -0.01162624    0.01057444   -0.02812122
     atom   11 type  2   force =     0.00500748   -0.00153823   -0.00699137
     atom   12 type  2   force =    -0.00086019    0.00065440    0.00699497
     atom   13 type  1   force =     0.00542654    0.00061318   -0.00814084
     atom   14 type  2   force =     0.00795931   -0.00069965    0.01295542
     atom   15 type  2   force =    -0.01240482    0.00354505   -0.00902151
     atom   16 type  1   force =    -0.00216629    0.00762341    0.00236894
     atom   17 type  2   force =     0.00945080   -0.00226857    0.00351963
     atom   18 type  2   force =     0.00169775   -0.01061102    0.01049066
     atom   19 type  1   force =     0.00296031   -0.01156638   -0.00730998
     atom   20 type  2   force =     0.00319970   -0.00389350    0.00142629
     atom   21 type  1   force =    -0.00580062    0.00449219    0.00013307
     atom   22 type  2   force =    -0.00261456   -0.00155666   -0.00247547
     atom   23 type  2   force =    -0.00160510    0.00132029    0.01150934
     atom   24 type  1   force =     0.00557125   -0.05509253   -0.07393162
     atom   25 type  2   force =     0.01608696    0.02024210    0.01272242
     atom   26 type  2   force =    -0.00810428   -0.00251972   -0.00469590
     atom   27 type  1   force =     0.06561087    0.04163223   -0.03316842
     atom   28 type  2   force =     0.01582863   -0.01636707   -0.29202870
     atom   29 type  2   force =     0.00173377   -0.00155305   -0.01221641
     atom   30 type  1   force =    -0.00704575    0.00930678   -0.00554297
     atom   31 type  2   force =    -0.00108938    0.00399255    0.02165421
     atom   32 type  2   force =    -0.00995262    0.01116055    0.00416277
     atom   33 type  1   force =     0.01434886   -0.00404372   -0.01081275
     atom   34 type  2   force =     0.00315402   -0.04334725   -0.00888115
     atom   35 type  2   force =    -0.00797374    0.00743019    0.01486812
     atom   36 type  3   force =    -0.07208261    0.01052995    0.43794805
     The non-local contrib.  to forces
     atom    1 type  1   force =    -0.00040709    0.03179866   -0.01133694
     atom    2 type  2   force =    -0.01345858   -0.00004983   -0.27179524
     atom    3 type  2   force =    -0.02125993   -0.00290775    0.26718617
     atom    4 type  1   force =     0.02884573   -0.00966654    0.03503170
     atom    5 type  2   force =    -0.01068412   -0.02957147   -0.25437938
     atom    6 type  2   force =    -0.00447484    0.00650696    0.25921180
     atom    7 type  1   force =    -0.01605642    0.00013750   -0.01815345
     atom    8 type  2   force =     0.00788558   -0.00053544   -0.25731261
     atom    9 type  2   force =     0.00874835   -0.00624173    0.27755155
     atom   10 type  1   force =     0.00042490    0.00289140   -0.00004586
     atom   11 type  2   force =     0.01586676    0.00528256   -0.26055180
     atom   12 type  2   force =    -0.01170273   -0.01806931    0.26520113
     atom   13 type  1   force =     0.00073564    0.01891806   -0.00868622
     atom   14 type  2   force =     0.00918642   -0.01027404   -0.26482712
     atom   15 type  2   force =    -0.01367006   -0.00473256    0.26150053
     atom   16 type  1   force =     0.00570226    0.02905241   -0.01906049
     atom   17 type  2   force =    -0.00993344   -0.02100481   -0.25281917
     atom   18 type  2   force =     0.00020813   -0.00778849    0.26980249
     atom   19 type  1   force =     0.01324387    0.00161415   -0.01130513
     atom   20 type  2   force =    -0.00050345   -0.02335453    0.26832807
     atom   21 type  1   force =     0.00393886    0.03156992    0.00497040
     atom   22 type  2   force =    -0.00861947    0.00182587   -0.26089221
     atom   23 type  2   force =     0.00699633   -0.01632321    0.26933503
     atom   24 type  1   force =     0.00479780    0.04336082    0.01118468
     atom   25 type  2   force =     0.00417333    0.01291986   -0.26288764
     atom   26 type  2   force =    -0.00060712   -0.01295707    0.26266650
     atom   27 type  1   force =    -0.02185174   -0.01266435    0.02849631
     atom   28 type  2   force =     0.02151803    0.02754814    0.05068285
     atom   29 type  2   force =     0.00896008    0.00076893    0.26564206
     atom   30 type  1   force =    -0.00289964    0.01810794    0.00890210
     atom   31 type  2   force =    -0.00854764   -0.00974354   -0.25533025
     atom   32 type  2   force =    -0.00480421   -0.00440247    0.27122467
     atom   33 type  1   force =    -0.00569956    0.00712515    0.00743580
     atom   34 type  2   force =     0.00025514   -0.03718098   -0.27477410
     atom   35 type  2   force =    -0.00161712   -0.01170454    0.27199266
     atom   36 type  3   force =     0.98171671    0.09160760   -2.18659524
     The ionic contribution  to forces
     atom    1 type  1   force =    -0.81971335   -0.80912962    3.97914129
     atom    2 type  2   force =    -1.27552224   -1.03975575   38.83363082
     atom    3 type  2   force =    -0.31856335   -0.33212533  -36.86077765
     atom    4 type  1   force =    -2.68009837    2.21570871   -3.66938472
     atom    5 type  2   force =    -2.50649832    1.54821722   38.12042968
     atom    6 type  2   force =     0.07513750   -0.52326556  -38.84714295
     atom    7 type  1   force =    -3.08671111   -2.03038833    1.45828378
     atom    8 type  2   force =    -1.67034891    1.44130980   36.82890459
     atom    9 type  2   force =     0.18417886    0.28055590  -38.78129117
     atom   10 type  1   force =    -1.37975424   -0.85283715    4.62159815
     atom   11 type  2   force =    -0.72013572   -1.56277127   39.00891296
     atom   12 type  2   force =     0.37144390    0.69850776  -38.32192516
     atom   13 type  1   force =     1.45508162    0.07148418    1.40207978
     atom   14 type  2   force =    -0.01575647   -0.38987165   38.34894236
     atom   15 type  2   force =     0.13577804   -0.23202970  -37.34817277
     atom   16 type  1   force =    -0.15849925    4.29095211   -0.92495728
     atom   17 type  2   force =     1.86530939    1.50870369   37.59782924
     atom   18 type  2   force =     0.07568049   -0.65663694  -39.33799451
     atom   19 type  1   force =     3.11199455   -1.76982223   -0.38619053
     atom   20 type  2   force =     0.21450367   -0.03873552  -39.03026346
     atom   21 type  1   force =    -0.01017399   -0.20860266    0.36034659
     atom   22 type  2   force =     0.58290865   -1.67812354   38.30636948
     atom   23 type  2   force =    -0.02816989    0.66940445  -38.74659417
     atom   24 type  1   force =    -0.36374320   -2.66556675    1.93534260
     atom   25 type  2   force =     1.31623014   -0.83439191   38.96380419
     atom   26 type  2   force =    -0.11451375   -0.26026135  -38.07196123
     atom   27 type  1   force =     3.15964165    2.16843393   -6.28314609
     atom   28 type  2   force =     3.00654563    1.13951067   25.77953864
     atom   29 type  2   force =    -0.26526977   -0.47606901  -38.86700412
     atom   30 type  1   force =    -0.25870124    0.60670788   -1.60491397
     atom   31 type  2   force =     1.96388094    1.10132095   36.93673833
     atom   32 type  2   force =    -0.31377934    0.29495313  -39.38336693
     atom   33 type  1   force =     1.12255588   -1.35374038    1.07087585
     atom   34 type  2   force =     0.27308488   -1.42351467   39.19755087
     atom   35 type  2   force =    -0.28892455    0.49031355  -38.34326486
     atom   36 type  3   force =    -2.63907871    0.61155539   52.05803237
     The local contribution  to forces
     atom    1 type  1   force =     0.83150318    0.75363942   -3.96155935
     atom    2 type  2   force =     1.27367913    1.06035295  -38.57797751
     atom    3 type  2   force =     0.32197917    0.34184999   36.60913804
     atom    4 type  1   force =     2.63830958   -2.17986248    3.57159410
     atom    5 type  2   force =     2.51721068   -1.52557911  -37.89262526
     atom    6 type  2   force =    -0.07328306    0.52722822   38.60995011
     atom    7 type  1   force =     3.10898139    2.01754587   -1.45116143
     atom    8 type  2   force =     1.66633251   -1.44972175  -36.56934737
     atom    9 type  2   force =    -0.18102651   -0.26569949   38.53612208
     atom   10 type  1   force =     1.36779193    0.86060033   -4.65001168
     atom   11 type  2   force =     0.71003588    1.55643156  -38.77601936
     atom   12 type  2   force =    -0.36170929   -0.68123791   38.08424320
     atom   13 type  1   force =    -1.45060869   -0.08953543   -1.40170679
     atom   14 type  2   force =     0.01500217    0.39949264  -38.09184800
     atom   15 type  2   force =    -0.13526102    0.23998274   37.09784512
     atom   16 type  1   force =     0.15061524   -4.31228791    0.94614882
     atom   17 type  2   force =    -1.84691004   -1.49105804  -37.36172708
     atom   18 type  2   force =    -0.07408717    0.65416042   39.09922592
     atom   19 type  1   force =    -3.12238226    1.75636849    0.38981017
     atom   20 type  2   force =    -0.21100631    0.05723174   38.78431779
     atom   21 type  1   force =     0.00044079    0.18150179   -0.36564988
     atom   22 type  2   force =    -0.57720139    1.67503539  -38.06860145
     atom   23 type  2   force =     0.02010438   -0.65316459   38.50931418
     atom   24 type  1   force =     0.36449987    2.56752928   -2.02033488
     atom   25 type  2   force =    -1.30459862    0.84283759  -38.70885132
     atom   26 type  2   force =     0.10729146    0.27004060   37.82503919
     atom   27 type  1   force =    -3.07245833   -2.11419697    6.22158069
     atom   28 type  2   force =    -3.01018767   -1.18266110  -26.13046673
     atom   29 type  2   force =     0.25876992    0.47436084   38.60969704
     atom   30 type  1   force =     0.25457323   -0.61586058    1.59022413
     atom   31 type  2   force =    -1.95709531   -1.08857708  -36.68026522
     atom   32 type  2   force =     0.30865539   -0.27974528   39.13690635
     atom   33 type  1   force =    -1.10261561    1.34259458   -1.08949196
     atom   34 type  2   force =    -0.27049318    1.41612654  -38.95283598
     atom   35 type  2   force =     0.28268852   -0.47220488   38.10689461
     atom   36 type  3   force =     1.59486926   -0.69157522  -49.45253938
     The core correction contribution to forces
     atom    1 type  1   force =     0.00000000    0.00000000    0.00000000
     atom    2 type  2   force =     0.00039436    0.00002585    0.02093402
     atom    3 type  2   force =     0.00102685    0.00006300   -0.02072012
     atom    4 type  1   force =     0.00000000    0.00000000    0.00000000
     atom    5 type  2   force =     0.00034751    0.00168391    0.02062633
     atom    6 type  2   force =     0.00048098   -0.00085924   -0.02068809
     atom    7 type  1   force =     0.00000000    0.00000000    0.00000000
     atom    8 type  2   force =    -0.00036742    0.00036952    0.02065917
     atom    9 type  2   force =    -0.00021143    0.00030387   -0.02100497
     atom   10 type  1   force =     0.00000000    0.00000000    0.00000000
     atom   11 type  2   force =    -0.00071325   -0.00052196    0.02072410
     atom   12 type  2   force =     0.00111856    0.00143756   -0.02096282
     atom   13 type  1   force =     0.00000000    0.00000000    0.00000000
     atom   14 type  2   force =    -0.00044985    0.00005982    0.02076810
     atom   15 type  2   force =     0.00076501    0.00032685   -0.02060320
     atom   16 type  1   force =     0.00000000    0.00000000    0.00000000
     atom   17 type  2   force =     0.00079646    0.00114780    0.02038805
     atom   18 type  2   force =    -0.00014258   -0.00029056   -0.02086563
     atom   19 type  1   force =     0.00000000    0.00000000    0.00000000
     atom   20 type  2   force =     0.00018857    0.00093912   -0.02132729
     atom   21 type  1   force =     0.00000000    0.00000000    0.00000000
     atom   22 type  2   force =     0.00025513   -0.00035586    0.02068203
     atom   23 type  2   force =    -0.00054506    0.00136195   -0.02097484
     atom   24 type  1   force =     0.00000000    0.00000000    0.00000000
     atom   25 type  2   force =     0.00015164   -0.00091644    0.02084493
     atom   26 type  2   force =    -0.00031316    0.00068638   -0.02081118
     atom   27 type  1   force =     0.00000000    0.00000000    0.00000000
     atom   28 type  2   force =    -0.00208526   -0.00070722    0.00865520
     atom   29 type  2   force =    -0.00071441   -0.00056971   -0.02078884
     atom   30 type  1   force =     0.00000000    0.00000000    0.00000000
     atom   31 type  2   force =     0.00055755    0.00076453    0.02061803
     atom   32 type  2   force =    -0.00004089    0.00032540   -0.02091523
     atom   33 type  1   force =     0.00000000    0.00000000    0.00000000
     atom   34 type  2   force =     0.00029922    0.00119413    0.02124485
     atom   35 type  2   force =    -0.00012525    0.00099197   -0.02116222
     atom   36 type  3   force =    -0.00954458   -0.00102655    0.01942109
     The Hubbard contrib.    to forces
     atom    1 type  1   force =     0.00000000    0.00000000    0.00000000
     atom    2 type  2   force =     0.00000000    0.00000000    0.00000000
     atom    3 type  2   force =     0.00000000    0.00000000    0.00000000
     atom    4 type  1   force =     0.00000000    0.00000000    0.00000000
     atom    5 type  2   force =     0.00000000    0.00000000    0.00000000
     atom    6 type  2   force =     0.00000000    0.00000000    0.00000000
     atom    7 type  1   force =     0.00000000    0.00000000    0.00000000
     atom    8 type  2   force =     0.00000000    0.00000000    0.00000000
     atom    9 type  2   force =     0.00000000    0.00000000    0.00000000
     atom   10 type  1   force =     0.00000000    0.00000000    0.00000000
     atom   11 type  2   force =     0.00000000    0.00000000    0.00000000
     atom   12 type  2   force =     0.00000000    0.00000000    0.00000000
     atom   13 type  1   force =     0.00000000    0.00000000    0.00000000
     atom   14 type  2   force =     0.00000000    0.00000000    0.00000000
     atom   15 type  2   force =     0.00000000    0.00000000    0.00000000
     atom   16 type  1   force =     0.00000000    0.00000000    0.00000000
     atom   17 type  2   force =     0.00000000    0.00000000    0.00000000
     atom   18 type  2   force =     0.00000000    0.00000000    0.00000000
     atom   19 type  1   force =     0.00000000    0.00000000    0.00000000
     atom   20 type  2   force =     0.00000000    0.00000000    0.00000000
     atom   21 type  1   force =     0.00000000    0.00000000    0.00000000
     atom   22 type  2   force =     0.00000000    0.00000000    0.00000000
     atom   23 type  2   force =     0.00000000    0.00000000    0.00000000
     atom   24 type  1   force =     0.00000000    0.00000000    0.00000000
     atom   25 type  2   force =     0.00000000    0.00000000    0.00000000
     atom   26 type  2   force =     0.00000000    0.00000000    0.00000000
     atom   27 type  1   force =     0.00000000    0.00000000    0.00000000
     atom   28 type  2   force =     0.00000000    0.00000000    0.00000000
     atom   29 type  2   force =     0.00000000    0.00000000    0.00000000
     atom   30 type  1   force =     0.00000000    0.00000000    0.00000000
     atom   31 type  2   force =     0.00000000    0.00000000    0.00000000
     atom   32 type  2   force =     0.00000000    0.00000000    0.00000000
     atom   33 type  1   force =     0.00000000    0.00000000    0.00000000
     atom   34 type  2   force =     0.00000000    0.00000000    0.00000000
     atom   35 type  2   force =     0.00000000    0.00000000    0.00000000
     atom   36 type  3   force =     0.00000000    0.00000000    0.00000000
     The SCF correction term to forces
     atom    1 type  1   force =    -0.00023908   -0.00023271    0.00009114
     atom    2 type  2   force =    -0.00010347   -0.00023882   -0.00021878
     atom    3 type  2   force =    -0.00001748   -0.00002631    0.00033289
     atom    4 type  1   force =    -0.00026290    0.00005264   -0.00007929
     atom    5 type  2   force =    -0.00019757   -0.00002773   -0.00023362
     atom    6 type  2   force =    -0.00003002   -0.00004237    0.00030401
     atom    7 type  1   force =    -0.00007195    0.00024383    0.00034904
     atom    8 type  2   force =    -0.00012465    0.00023646   -0.00019064
     atom    9 type  2   force =    -0.00003294    0.00003321    0.00032011
     atom   10 type  1   force =    -0.00009036   -0.00008057    0.00031900
     atom   11 type  2   force =    -0.00004772    0.00004045   -0.00007645
     atom   12 type  2   force =    -0.00001216    0.00001585    0.00041945
     atom   13 type  1   force =     0.00021645   -0.00025406    0.00015321
     atom   14 type  2   force =    -0.00002448   -0.00010686   -0.00009909
     atom   15 type  2   force =    -0.00001831   -0.00000272    0.00038965
     atom   16 type  1   force =     0.00001393   -0.00009363    0.00021872
     atom   17 type  2   force =     0.00018690   -0.00005764   -0.00017058
     atom   18 type  2   force =     0.00003736   -0.00005587    0.00030322
     atom   19 type  1   force =     0.00010263    0.00027277    0.00035633
     atom   20 type  2   force =     0.00001569    0.00002524    0.00035200
     atom   21 type  1   force =    -0.00000779    0.00002271    0.00044678
     atom   22 type  2   force =     0.00004099    0.00006104   -0.00005249
     atom   23 type  2   force =     0.00000761    0.00004126    0.00040997
     atom   24 type  1   force =     0.00001526   -0.00041633   -0.00014320
     atom   25 type  2   force =     0.00012895   -0.00020744   -0.00020691
     atom   26 type  2   force =     0.00003678   -0.00002871    0.00035166
     atom   27 type  1   force =     0.00027777    0.00005917   -0.00011850
     atom   28 type  2   force =     0.00003638   -0.00005799   -0.00045784
     atom   29 type  2   force =    -0.00001357   -0.00004453    0.00021827
     atom   30 type  1   force =    -0.00001961    0.00035110    0.00022560
     atom   31 type  2   force =     0.00011356    0.00022725   -0.00012585
     atom   32 type  2   force =     0.00001490    0.00002933    0.00029474
     atom   33 type  1   force =     0.00010663   -0.00002349    0.00034839
     atom   34 type  2   force =     0.00000642    0.00002728   -0.00008597
     atom   35 type  2   force =     0.00000313    0.00003365    0.00038876
     atom   36 type  3   force =    -0.00004680   -0.00003169   -0.00038996

     Total force =     0.560131     Total SCF correction =     0.002033
     Energy error            =      4.5E+00 Ry
     Gradient error          =      4.4E-01 Ry/Bohr

     number of scf cycles    =   2
     number of bfgs steps    =   1

     energy             old  =   -2241.8630763293 Ry
     energy             new  =   -2246.3185903703 Ry

     CASE: energy            _new < energy            _old

     new trust radius        =       0.1215172874 bohr
     new conv_thr            =       0.0000004379 Ry


ATOMIC_POSITIONS (angstrom)
Mo            6.5806464996        1.7746851337        2.8271163860
S             8.1684818596        0.8208448276        4.4370570686
S             8.1840065294        0.8150053971        1.2752430890
Mo            8.0880181288        4.5093587254        2.6835376627
S             6.5000107892        3.7195163314        4.3432926805
S             6.5521554162        3.5169694634        1.1221768913
Mo            6.4933398946        7.2115930867        2.6660401970
S             8.0835869986        6.3393092440        4.2549191833
S             8.0873190836        6.3096228690        1.0902770999
Mo            8.1542577557        9.9079777377        2.8280538537
S             6.4979097968        8.9420841440        4.3792696698
S             6.6174764534        9.0490709249        1.1437448099
Mo            3.4246420916        1.7472921706        2.7720174042
S             4.9795274407        0.8165598055        4.3576250777
S             5.0510374461        0.8482085969        1.2217151283
Mo            4.9785800147        4.5173679954        2.6341806992
S             3.4330082061        3.6703582966        4.2816335530
S             3.4388436519        3.5424182492        1.0641037303
Mo            3.4554965960        7.2099770002        2.6266739824
S             4.9849878695        6.3248009709        1.0380392942
Mo            5.0090860717        9.9040650633        2.7434764590
S             3.4695247644        8.9428988740        4.3242293026
S             3.4075501832        9.0657133349        1.1023756337
Mo            0.2991113233        1.7175724115        2.8091778215
S             1.8592816569        0.8037877385        4.4051706008
S             1.8563736880        0.8530482889        1.2068229853
Mo            1.8962984825        4.5183156392        2.6423996683
S             0.3055430875        3.6463540302        4.1062334700
S             0.2321897011        3.5264061610        1.1654110009
Mo            0.2673033317        7.2217573643        2.6986632104
S             1.9016391675        6.3149806968        4.2343073886
S             1.8567803099        6.3164489056        1.0468474181
Mo            1.8522037261        9.9379231051        2.7670245253
S             0.2976424774        9.0662428238        4.4089963381
S             0.2724016458        9.0475987277        1.1585488793
O             9.3928448728        3.6477789422        5.4243454133



     Writing config-only to output data dir ./MoS2-V-O.save/
     NEW-OLD atomic charge density approx. for the potential

     negative rho (up, down):  1.475E-04 0.000E+00

     total cpu time spent up to now is      247.3 secs

     Self-consistent Calculation

     iteration #  1     ecut=    80.00 Ry     beta= 0.70
     Davidson diagonalization with overlap
     c_bands:  1 eigenvalues not converged
     ethr =  1.00E-06,  avg # of iterations = 20.0

     negative rho (up, down):  3.223E-04 0.000E+00

     total cpu time spent up to now is      262.1 secs

     total energy              =   -2246.37085160 Ry
     estimated scf accuracy    <       0.00983475 Ry

     iteration #  2     ecut=    80.00 Ry     beta= 0.70
     Davidson diagonalization with overlap
     ethr =  3.15E-06,  avg # of iterations =  4.0

     negative rho (up, down):  5.432E-04 0.000E+00

     total cpu time spent up to now is      273.9 secs

     total energy              =   -2246.37111596 Ry
     estimated scf accuracy    <       0.00246184 Ry

     iteration #  3     ecut=    80.00 Ry     beta= 0.70
     Davidson diagonalization with overlap
     ethr =  7.89E-07,  avg # of iterations =  2.0

     negative rho (up, down):  6.882E-04 0.000E+00

     total cpu time spent up to now is      290.7 secs

     total energy              =   -2246.37120129 Ry
     estimated scf accuracy    <       0.00041023 Ry

     iteration #  4     ecut=    80.00 Ry     beta= 0.70
     Davidson diagonalization with overlap
     ethr =  1.31E-07,  avg # of iterations =  5.0

     negative rho (up, down):  6.556E-04 0.000E+00

     total cpu time spent up to now is      304.6 secs

     total energy              =   -2246.37128979 Ry
     estimated scf accuracy    <       0.00005937 Ry

     iteration #  5     ecut=    80.00 Ry     beta= 0.70
     Davidson diagonalization with overlap
     ethr =  1.90E-08,  avg # of iterations =  4.0

     negative rho (up, down):  6.129E-04 0.000E+00

     total cpu time spent up to now is      317.2 secs

     total energy              =   -2246.37129654 Ry
     estimated scf accuracy    <       0.00000933 Ry

     iteration #  6     ecut=    80.00 Ry     beta= 0.70
     Davidson diagonalization with overlap
     ethr =  2.99E-09,  avg # of iterations =  5.0

     negative rho (up, down):  5.697E-04 0.000E+00

     total cpu time spent up to now is      331.5 secs

     total energy              =   -2246.37129906 Ry
     estimated scf accuracy    <       0.00000486 Ry

     iteration #  7     ecut=    80.00 Ry     beta= 0.70
     Davidson diagonalization with overlap
     ethr =  1.56E-09,  avg # of iterations =  2.0

     negative rho (up, down):  5.045E-04 0.000E+00

     total cpu time spent up to now is      343.2 secs

     total energy              =   -2246.37129939 Ry
     estimated scf accuracy    <       0.00000086 Ry

     iteration #  8     ecut=    80.00 Ry     beta= 0.70
     Davidson diagonalization with overlap
     ethr =  2.76E-10,  avg # of iterations =  5.0

     negative rho (up, down):  2.050E-04 0.000E+00

     total cpu time spent up to now is      346.8 secs

     End of self-consistent calculation

          k = 0.0000 0.0000 0.0000 (105382 PWs)   bands (ev):

   -62.9683 -62.9531 -62.9270 -62.9228 -62.9170 -62.9155 -62.9074 -62.8992
   -62.8967 -62.8934 -62.8173 -62.8060 -37.3355 -37.2863 -37.2384 -37.2217
   -37.2142 -37.1955 -37.1719 -37.1659 -37.1599 -37.1523 -37.1458 -37.1220
   -37.1124 -37.1058 -37.1041 -37.0977 -37.0860 -37.0815 -37.0764 -37.0670
   -37.0584 -37.0543 -37.0452 -37.0329 -37.0189 -37.0187 -36.9985 -36.9927
   -36.9795 -36.9648 -36.9422 -36.9368 -36.9097 -36.8743 -36.8704 -36.8406
   -24.4124 -16.0488 -15.2750 -15.2211 -15.0631 -14.9883 -14.8603 -14.6045
   -14.5740 -14.5366 -14.5030 -14.4760 -14.4217 -14.4025 -14.3373 -14.2354
   -14.2034 -14.1928 -14.1250 -14.0384 -13.9769 -13.9513 -13.8545 -13.6186
    -8.5400  -8.4824  -7.9497  -7.6097  -7.4739  -7.3794  -7.3349  -7.2822
    -7.2514  -7.1821  -7.0851  -6.9097  -6.8716  -6.7760  -6.7577  -6.6308
    -6.5790  -6.5374  -6.3787  -6.3388  -6.2471  -6.2184  -6.0500  -5.9695
    -5.9364  -5.8519  -5.8448  -5.8121  -5.7879  -5.7694  -5.7431  -5.7001
    -5.5464  -5.5313  -5.5149  -5.3473  -5.2902  -5.2531  -5.1975  -5.1219
    -5.0854  -5.0626  -4.9724  -4.7792  -4.7497  -4.6617  -4.6202  -4.5204
    -4.4423  -4.3428  -4.2653  -4.2271  -4.1288  -4.0619  -3.9991  -3.9061
    -3.8939  -3.8007  -3.7764  -3.7164  -3.6586  -3.6294  -3.5900  -3.5699
    -3.5181  -3.4560  -3.3807  -3.3161  -3.2625  -3.1248  -3.0373  -2.9646
    -2.9374  -2.8099  -2.7779  -2.7678  -2.7470  -2.7143  -2.6758  -2.5063
    -2.4048  -2.0938  -2.0392  -2.0009  -0.9059  -0.8528  -0.2907  -0.2424
    -0.2192  -0.1398  -0.0448   0.0208   0.0841   0.1580   0.1739   0.2142
     0.2454   0.3235   0.3826   0.4244   0.4477   0.5148   0.5498   0.5808
     0.6505   0.6770   0.7089   0.7351   0.7586   0.8419   0.8777   0.9278
     0.9644   1.0220   1.2133

     the Fermi energy is    -1.4529 ev

!    total energy              =   -2246.37129946 Ry
     estimated scf accuracy    <       0.00000020 Ry
     smearing contrib. (-TS)   =      -0.00000000 Ry
     internal energy E=F+TS    =   -2246.37129946 Ry

     The total energy is F=E-TS. E is the sum of the following terms:
     one-electron contribution =  -18474.06273012 Ry
     hartree contribution      =    9224.60977814 Ry
     xc contribution           =    -392.42654442 Ry
     ewald contribution        =    7405.35470643 Ry
     one-center paw contrib.   =      -9.84650948 Ry

     convergence has been achieved in   8 iterations

     negative rho (up, down):  2.050E-04 0.000E+00

     Forces acting on atoms (cartesian axes, Ry/au):

     atom    1 type  1   force =     0.00419810   -0.01096298    0.00133571
     atom    2 type  2   force =    -0.00573924    0.01245348   -0.00351987
     atom    3 type  2   force =    -0.01859092    0.00224858   -0.01653860
     atom    4 type  1   force =    -0.01245236    0.01367579   -0.01999369
     atom    5 type  2   force =     0.00538195   -0.00217411   -0.01343489
     atom    6 type  2   force =    -0.00530099    0.00271098   -0.00341371
     atom    7 type  1   force =     0.00581326   -0.00831182    0.00006905
     atom    8 type  2   force =     0.00205518   -0.00902050    0.01068861
     atom    9 type  2   force =     0.01073090    0.01434004   -0.00165234
     atom   10 type  1   force =    -0.00627996    0.00791841   -0.00786772
     atom   11 type  2   force =     0.00430577   -0.00167706   -0.00982105
     atom   12 type  2   force =    -0.00317732    0.00041193    0.00195518
     atom   13 type  1   force =     0.00361969    0.00339814   -0.00100178
     atom   14 type  2   force =     0.00585331   -0.00117131    0.00844012
     atom   15 type  2   force =    -0.00833777    0.00147321   -0.00783658
     atom   16 type  1   force =     0.00247301    0.00348166    0.00521682
     atom   17 type  2   force =     0.00596241    0.00155736    0.00072467
     atom   18 type  2   force =     0.00612439   -0.00822396    0.00326808
     atom   19 type  1   force =     0.00176183   -0.00483300   -0.00008420
     atom   20 type  2   force =     0.00266818   -0.00364320   -0.00340921
     atom   21 type  1   force =    -0.00380160    0.00200028    0.00248249
     atom   22 type  2   force =    -0.00136119   -0.00236023   -0.00377473
     atom   23 type  2   force =     0.00042794    0.00005107    0.00587810
     atom   24 type  1   force =    -0.00428044   -0.02249804   -0.02123809
     atom   25 type  2   force =     0.00964415    0.01450031    0.00044358
     atom   26 type  2   force =     0.00182209   -0.00728272   -0.01414126
     atom   27 type  1   force =     0.00997819    0.00917686    0.00407739
     atom   28 type  2   force =     0.02344639   -0.01146139   -0.27854605
     atom   29 type  2   force =     0.01002225    0.00218256   -0.01035798
     atom   30 type  1   force =    -0.00176528    0.00018269    0.00517238
     atom   31 type  2   force =     0.00034940    0.00164907    0.01301489
     atom   32 type  2   force =    -0.00610186    0.01429303   -0.00192788
     atom   33 type  1   force =     0.00896241   -0.00103976    0.00173337
     atom   34 type  2   force =     0.00012955   -0.03113857   -0.01470728
     atom   35 type  2   force =    -0.00613595    0.00827724    0.00722576
     atom   36 type  3   force =    -0.04240548    0.00981595    0.36154073
     The non-local contrib.  to forces
     atom    1 type  1   force =     0.00076469    0.02877197   -0.01455667
     atom    2 type  2   force =    -0.00807847   -0.00487941   -0.27503039
     atom    3 type  2   force =    -0.01867384   -0.00690592    0.25918990
     atom    4 type  1   force =     0.02205050   -0.00657018    0.03512763
     atom    5 type  2   force =    -0.00472986   -0.02831757   -0.26214614
     atom    6 type  2   force =    -0.00626466    0.00317498    0.25834665
     atom    7 type  1   force =    -0.01680947   -0.00086884   -0.02014053
     atom    8 type  2   force =     0.00583392    0.00067478   -0.26351072
     atom    9 type  2   force =     0.00668591   -0.00298133    0.26862992
     atom   10 type  1   force =    -0.00050315    0.00236124   -0.00151141
     atom   11 type  2   force =     0.01454240    0.00426488   -0.26363353
     atom   12 type  2   force =    -0.01342284   -0.01823657    0.26297457
     atom   13 type  1   force =     0.00002874    0.02058231   -0.01081028
     atom   14 type  2   force =     0.00808469   -0.00974202   -0.26641036
     atom   15 type  2   force =    -0.01086814   -0.00614188    0.26177131
     atom   16 type  1   force =     0.00225764    0.03046947   -0.02306902
[...]
     atom   28 type  2   force =    -0.00536664    0.01328078    0.29795161
     atom   29 type  2   force =    -0.00194844   -0.00752669    0.27630344
     atom   30 type  1   force =    -0.00023716    0.01824012    0.00500726
     atom   31 type  2   force =    -0.00611140    0.00255750   -0.26879621
     atom   32 type  2   force =     0.00604092   -0.01484239    0.26782665
     atom   33 type  1   force =     0.00191016    0.00462155    0.00246697
     atom   34 type  2   force =     0.00048156   -0.00835275   -0.27547161
     atom   35 type  2   force =    -0.00053505   -0.01530413    0.26767157
     atom   36 type  3   force =     0.06850161   -0.06501607   -2.31837501
     The ionic contribution  to forces
     atom    1 type  1   force =    -0.69161447    0.07628599    0.96838475
     atom    2 type  2   force =    -0.78833889   -0.86738522   38.31609362
     atom    3 type  2   force =    -0.02429739   -0.17863259  -38.25259855
     atom    4 type  1   force =    -1.15487426    0.80365981   -4.24710738
     atom    5 type  2   force =    -1.81122996    1.15556040   37.50055021
     atom    6 type  2   force =     0.16432765   -0.43173432  -38.99182984
     atom    7 type  1   force =    -3.21779158   -1.38404236    1.46856727
     atom    8 type  2   force =    -1.78558061    1.16746872   37.52849812
     atom    9 type  2   force =     0.29878614    0.24154672  -38.85060125
     atom   10 type  1   force =    -0.65983615   -0.89304255    2.25261087
     atom   11 type  2   force =    -0.58961838   -1.44356214   38.44690617
     atom   12 type  2   force =     0.10604495    0.34805833  -38.23415511
     atom   13 type  1   force =     0.67529526    0.15554783    1.36765063
     atom   14 type  2   force =     0.01670833   -0.27708028   38.40425673
     atom   15 type  2   force =    -0.00838085   -0.29796676  -37.86382962
     atom   16 type  1   force =    -0.02746524    3.82239362   -0.31439437
     atom   17 type  2   force =     1.77249094    1.14984497   37.57989102
     atom   18 type  2   force =    -0.19282628   -0.43918428  -38.89416398
     atom   19 type  1   force =     3.23145942   -1.40450978    1.77540621
     atom   20 type  2   force =    -0.01498492    0.17627959  -39.05318055
     atom   21 type  1   force =     0.02045221   -0.47349469    1.10255657
     atom   22 type  2   force =     0.60219745   -1.43880342   38.52813455
     atom   23 type  2   force =    -0.12655518    0.33798500  -38.16776335
     atom   24 type  1   force =     0.02216744   -0.76544871   -1.27109474
     atom   25 type  2   force =     0.76393343   -0.82058698   38.44120455
     atom   26 type  2   force =     0.03371206   -0.17768173  -38.19565315
     atom   27 type  1   force =     1.17201637    0.76466961   -3.73828802
     atom   28 type  2   force =     0.22405777    0.20087685   27.85377664
     atom   29 type  2   force =     0.01791915   -0.21515576  -38.25867483
     atom   30 type  1   force =    -0.00232983    0.37382504    0.25284664
     atom   31 type  2   force =     1.76426429    1.13918318   37.61836259
     atom   32 type  2   force =    -0.28499286    0.22260859  -38.80213312
     atom   33 type  1   force =     0.66775808   -0.91418794    2.66391665
     atom   34 type  2   force =    -0.02226788   -0.47229848   38.62703935
     atom   35 type  2   force =     0.01197505    0.19558910  -37.83473988
     atom   36 type  3   force =    -0.16258127    0.56341462   50.27355460
     The local contribution  to forces
     atom    1 type  1   force =     0.69433968   -0.10120141   -0.96087589
     atom    2 type  2   force =     0.78801755    0.87662000  -38.06689070
     atom    3 type  2   force =     0.02660948    0.18698663   38.00741588
     atom    4 type  1   force =     1.14277087   -0.79954741    4.22352266
     atom    5 type  2   force =     1.80814610   -1.13617691  -37.26364968
     atom    6 type  2   force =    -0.16381782    0.43351566   38.74975398
     atom    7 type  1   force =     3.23201279    1.38158249   -1.44861705
     atom    8 type  2   force =     1.77884662   -1.17117421  -37.28070412
     atom    9 type  2   force =    -0.29314586   -0.22830771   38.60400413
     atom   10 type  1   force =     0.66111580    0.88773308   -2.25575109
     atom   11 type  2   force =     0.58307207    1.44450251  -38.20547845
     atom   12 type  2   force =    -0.09861692   -0.33384582   37.99014124
     atom   13 type  1   force =    -0.67617987   -0.17910537   -1.36027501
     atom   14 type  2   force =    -0.01600190    0.28620195  -38.15519759
     atom   15 type  2   force =     0.00822129    0.30511532   37.62021294
     atom   16 type  1   force =     0.02699206   -3.85592375    0.33699532
     atom   17 type  2   force =    -1.76722022   -1.13081780  -37.34256153
     atom   18 type  2   force =     0.19175072    0.44107978   38.65173681
     atom   19 type  1   force =    -3.24578912    1.40187694   -1.75515148
     atom   20 type  2   force =     0.01471117   -0.15985174   38.80861322
     atom   21 type  1   force =    -0.02067607    0.44353267   -1.10470671
     atom   22 type  2   force =    -0.59544920    1.43962199  -38.28694975
     atom   23 type  2   force =     0.11867880   -0.32365345   37.92385781
     atom   24 type  1   force =    -0.02260260    0.74078760    1.25612784
     atom   25 type  2   force =    -0.76353121    0.82959923  -38.19264969
     atom   26 type  2   force =    -0.03576149    0.18631696   37.95057851
     atom   27 type  1   force =    -1.16103835   -0.76156571    3.71688134
     atom   28 type  2   force =    -0.22153515   -0.21441248  -28.13669355
     atom   29 type  2   force =    -0.01756583    0.22219150   38.00285959
     atom   30 type  1   force =     0.00250009   -0.39210537   -0.25734448
     atom   31 type  2   force =    -1.75795314   -1.14179681  -37.37056065
     atom   32 type  2   force =     0.27937709   -0.20966121   38.55585663
     atom   33 type  1   force =    -0.66914254    0.90924421   -2.66680320
     atom   34 type  2   force =     0.02186306    0.48047989  -38.37245306
     atom   35 type  2   force =    -0.01170500   -0.18104419   37.58867010
     atom   36 type  3   force =     0.09808315   -0.49963013  -47.98398236
     The core correction contribution to forces
     atom    1 type  1   force =     0.00000000    0.00000000    0.00000000
     atom    2 type  2   force =    -0.00012802    0.00049724    0.02119428
     atom    3 type  2   force =     0.00010909    0.00035774   -0.02091058
     atom    4 type  1   force =     0.00000000    0.00000000    0.00000000
     atom    5 type  2   force =    -0.00032468    0.00094193    0.02078104
     atom    6 type  2   force =     0.00019883   -0.00048382   -0.02077334
     atom    7 type  1   force =     0.00000000    0.00000000    0.00000000
     atom    8 type  2   force =    -0.00029468    0.00007774    0.02124152
     atom    9 type  2   force =     0.00066156    0.00084490   -0.02094404
     atom   10 type  1   force =     0.00000000    0.00000000    0.00000000
     atom   11 type  2   force =    -0.00010723   -0.00026579    0.02077175
     atom   12 type  2   force =     0.00063827    0.00106124   -0.02087990
     atom   13 type  1   force =     0.00000000    0.00000000    0.00000000
     atom   14 type  2   force =     0.00003574    0.00018833    0.02099804
     atom   15 type  2   force =    -0.00007536    0.00026283   -0.02071241
     atom   16 type  1   force =     0.00000000    0.00000000    0.00000000
     atom   17 type  2   force =     0.00043767    0.00095390    0.02073147
     atom   18 type  2   force =    -0.00017643   -0.00050605   -0.02075997
     atom   19 type  1   force =     0.00000000    0.00000000    0.00000000
     atom   20 type  2   force =    -0.00004530    0.00082714   -0.02128509
     atom   21 type  1   force =     0.00000000    0.00000000    0.00000000
     atom   22 type  2   force =     0.00016889   -0.00027160    0.02078347
     atom   23 type  2   force =    -0.00067437    0.00107986   -0.02087858
     atom   24 type  1   force =     0.00000000    0.00000000    0.00000000
     atom   25 type  2   force =     0.00008495    0.00046004    0.02119593
     atom   26 type  2   force =    -0.00008838    0.00030396   -0.02090266
     atom   27 type  1   force =     0.00000000    0.00000000    0.00000000
     atom   28 type  2   force =     0.00034128   -0.00047773   -0.00998538
     atom   29 type  2   force =     0.00010877    0.00008991   -0.02115427
     atom   30 type  1   force =     0.00000000    0.00000000    0.00000000
     atom   31 type  2   force =     0.00025014    0.00014280    0.02121173
     atom   32 type  2   force =    -0.00062553    0.00087427   -0.02094974
     atom   33 type  1   force =     0.00000000    0.00000000    0.00000000
     atom   34 type  2   force =    -0.00005138    0.00027432    0.02127981
     atom   35 type  2   force =     0.00003867    0.00092315   -0.02093187
     atom   36 type  3   force =    -0.00074516    0.00067983    0.02460602
     The Hubbard contrib.    to forces
     atom    1 type  1   force =     0.00000000    0.00000000    0.00000000
     atom    2 type  2   force =     0.00000000    0.00000000    0.00000000
     atom    3 type  2   force =     0.00000000    0.00000000    0.00000000
     atom    4 type  1   force =     0.00000000    0.00000000    0.00000000
     atom    5 type  2   force =     0.00000000    0.00000000    0.00000000
     atom    6 type  2   force =     0.00000000    0.00000000    0.00000000
     atom    7 type  1   force =     0.00000000    0.00000000    0.00000000
     atom    8 type  2   force =     0.00000000    0.00000000    0.00000000
     atom    9 type  2   force =     0.00000000    0.00000000    0.00000000
     atom   10 type  1   force =     0.00000000    0.00000000    0.00000000
     atom   11 type  2   force =     0.00000000    0.00000000    0.00000000
     atom   12 type  2   force =     0.00000000    0.00000000    0.00000000
     atom   13 type  1   force =     0.00000000    0.00000000    0.00000000
     atom   14 type  2   force =     0.00000000    0.00000000    0.00000000
     atom   15 type  2   force =     0.00000000    0.00000000    0.00000000
     atom   16 type  1   force =     0.00000000    0.00000000    0.00000000
     atom   17 type  2   force =     0.00000000    0.00000000    0.00000000
     atom   18 type  2   force =     0.00000000    0.00000000    0.00000000
     atom   19 type  1   force =     0.00000000    0.00000000    0.00000000
     atom   20 type  2   force =     0.00000000    0.00000000    0.00000000
     atom   21 type  1   force =     0.00000000    0.00000000    0.00000000
     atom   22 type  2   force =     0.00000000    0.00000000    0.00000000
     atom   23 type  2   force =     0.00000000    0.00000000    0.00000000
     atom   24 type  1   force =     0.00000000    0.00000000    0.00000000
     atom   25 type  2   force =     0.00000000    0.00000000    0.00000000
     atom   26 type  2   force =     0.00000000    0.00000000    0.00000000
     atom   27 type  1   force =     0.00000000    0.00000000    0.00000000
     atom   28 type  2   force =     0.00000000    0.00000000    0.00000000
     atom   29 type  2   force =     0.00000000    0.00000000    0.00000000
     atom   30 type  1   force =     0.00000000    0.00000000    0.00000000
     atom   31 type  2   force =     0.00000000    0.00000000    0.00000000
     atom   32 type  2   force =     0.00000000    0.00000000    0.00000000
     atom   33 type  1   force =     0.00000000    0.00000000    0.00000000
     atom   34 type  2   force =     0.00000000    0.00000000    0.00000000
     atom   35 type  2   force =     0.00000000    0.00000000    0.00000000
     atom   36 type  3   force =     0.00000000    0.00000000    0.00000000
     The SCF correction term to forces
     atom    1 type  1   force =     0.00001483    0.00005354    0.00008581
     atom    2 type  2   force =     0.00001255    0.00003549    0.00004978
     atom    3 type  2   force =     0.00001638    0.00002211    0.00000601
     atom    4 type  1   force =     0.00005586   -0.00002841    0.00008527
     atom    5 type  2   force =     0.00002509   -0.00000407    0.00004012
     atom    6 type  2   force =     0.00000835    0.00001208    0.00001436
     atom    7 type  1   force =     0.00000869   -0.00003944    0.00006192
     atom    8 type  2   force =     0.00001543   -0.00003201    0.00004151
     atom    9 type  2   force =     0.00001298   -0.00003007    0.00000259
     atom   10 type  1   force =     0.00000715    0.00001929    0.00006995
     atom   11 type  2   force =     0.00000021   -0.00000572    0.00005493
     atom   12 type  2   force =     0.00000122   -0.00001295   -0.00000384
     atom   13 type  1   force =    -0.00002379    0.00004343    0.00007087
     atom   14 type  2   force =     0.00000257    0.00002384    0.00005201
     atom   15 type  2   force =    -0.00000127    0.00002483    0.00000384
     atom   16 type  1   force =     0.00002162   -0.00002464    0.00005410
     atom   17 type  2   force =    -0.00000876   -0.00001177    0.00004207
     atom   18 type  2   force =    -0.00000844    0.00000102    0.00000329
     atom   19 type  1   force =    -0.00002435   -0.00001537    0.00005062
     atom   20 type  2   force =    -0.00001178   -0.00000924   -0.00000442
     atom   21 type  1   force =    -0.00001208   -0.00000413    0.00007259
     atom   22 type  2   force =     0.00000205   -0.00001139    0.00004827
     atom   23 type  2   force =    -0.00000780   -0.00002461   -0.00000461
     atom   24 type  1   force =    -0.00001220    0.00007752    0.00009409
     atom   25 type  2   force =    -0.00000616    0.00002417    0.00004578
     atom   26 type  2   force =    -0.00000011    0.00002155    0.00000133
     atom   27 type  1   force =    -0.00003992   -0.00001559    0.00007525
     atom   28 type  2   force =    -0.00001444    0.00000470    0.00002491
     atom   29 type  2   force =    -0.00000435    0.00001127    0.00002480
     atom   30 type  1   force =     0.00000705   -0.00006479    0.00006019
     atom   31 type  2   force =    -0.00001667   -0.00001098    0.00003676
     atom   32 type  2   force =    -0.00000812   -0.00000765    0.00000193
     atom   33 type  1   force =    -0.00002450    0.00000074    0.00006563
     atom   34 type  2   force =     0.00000598    0.00000110    0.00004536
     atom   35 type  2   force =     0.00001426   -0.00001698   -0.00000313
     atom   36 type  3   force =    -0.00002748    0.00001760    0.00000348

     Total force =     0.009537     Total SCF correction =     0.000350
     Energy error            =      8.0E-05 Ry
     Gradient error          =      5.1E-03 Ry/Bohr

     bfgs converged in  18 scf cycles and  17 bfgs steps
     (criteria: energy <  1.0E-04 Ry, force <  1.0E-02 Ry/Bohr)

     End of BFGS Geometry Optimization

     Final energy             =   -2246.4527129146 Ry

     File ./MoS2-V-O.bfgs deleted, as requested
Begin final coordinates

ATOMIC_POSITIONS (angstrom)
Mo            6.5550290708        1.7571247052        2.7502879798
S             8.1235107367        0.8552889374        4.3691875523
S             8.1235425661        0.8308304218        1.1619465662
Mo            8.0933784474        4.5165354219        2.6784230081
S             6.5179285158        3.6757096906        4.2879168211
S             6.5417218245        3.5465587042        1.0820916419
Mo            6.5167147051        7.1856474066        2.6606272615
S             8.0804992659        6.3040474483        4.2947530528
S             8.1345529035        6.3473103806        1.0873095627
Mo            8.1282522109        9.9409029309        2.7705946670
S             6.5215614691        8.9441873917        4.3274518888
S             6.5830075805        9.0365152236        1.1316988439
Mo            3.4174524590        1.7549526106        2.7572544982
S             4.9885488834        0.8202250143        4.3464088656
S             4.9828743776        0.8307534533        1.1709972223
Mo            4.9901390782        4.5237456915        2.6341479706
S             3.4606789238        3.6775567458        4.2913450544
S             3.4374717015        3.5448018875        1.0884841924
Mo            3.4644511522        7.1856057144        2.6662704951
S             4.9878382187        6.3175919401        1.0376269289
Mo            4.9899066495        9.9035385462        2.7401317003
S             3.4638510231        8.9431056932        4.3342144310
S             3.3961314726        9.0358475120        1.1373618055
Mo            0.2607368152        1.7112430380        2.7541978773
S             1.8489120904        0.8533812933        4.3772548777
S             1.8543182046        0.8246365448        1.1673713884
Mo            1.8869360177        4.5198059066        2.6863440427
S             0.2563927875        3.6189628001        4.2068528377
S             0.2685856053        3.5567557903        1.1526748090
Mo            0.2611842360        7.2157072964        2.7286246592
S             1.8960954024        6.3066616108        4.2991850700
S             1.8491049115        6.3495715485        1.0910768557
Mo            1.8514087622        9.9389376288        2.7778758944
S             0.2584880516        9.0217160642        4.3613842609
S             0.2640492494        9.0619384990        1.1755603844
O             9.6738516424        3.6662115847        5.7058126089
End final coordinates



     Writing all to output data dir ./MoS2-V-O.save/
 
     init_run     :      4.59s CPU      5.10s WALL (       1 calls)
     electrons    :   1442.26s CPU   1634.55s WALL (      18 calls)
     update_pot   :     53.82s CPU     57.29s WALL (      17 calls)
     forces       :     49.05s CPU     55.99s WALL (      18 calls)

     Called by init_run:
     wfcinit      :      0.48s CPU      0.53s WALL (       1 calls)
     potinit      :      2.36s CPU      2.62s WALL (       1 calls)
     hinit0       :      0.43s CPU      0.46s WALL (       1 calls)

     Called by electrons:
     c_bands      :    228.02s CPU    233.76s WALL (     159 calls)
     sum_band     :     89.46s CPU    115.35s WALL (     159 calls)
     v_of_rho     :    145.52s CPU    177.53s WALL (     166 calls)
     newd         :     51.56s CPU     74.95s WALL (     166 calls)
     PAW_pot      :      6.62s CPU      6.65s WALL (     183 calls)
     mix_rho      :    939.43s CPU   1046.62s WALL (     159 calls)

     Called by c_bands:
     init_us_2    :      3.67s CPU      3.94s WALL (     336 calls)
     init_us_2:cp :      3.66s CPU      3.94s WALL (     336 calls)
     regterg      :    216.08s CPU    221.52s WALL (     159 calls)

     Called by *egterg:
     rdiaghg      :     14.64s CPU     14.78s WALL (     809 calls)
     h_psi        :    140.11s CPU    141.34s WALL (     838 calls)
     s_psi        :     13.33s CPU     13.38s WALL (     838 calls)
     g_psi        :      0.68s CPU      0.69s WALL (     678 calls)

     Called by h_psi:
     h_psi:calbec :     15.43s CPU     15.53s WALL (     838 calls)
     vloc_psi     :    109.63s CPU    110.66s WALL (     838 calls)
     add_vuspsi   :     13.30s CPU     13.37s WALL (     838 calls)

     General routines
     calbec       :     22.67s CPU     22.80s WALL (    1086 calls)
     fft          :    101.59s CPU    117.38s WALL (   11180 calls)
     ffts         :    420.07s CPU    523.37s WALL (  230867 calls)
     fftw         :     69.96s CPU     70.52s WALL (   97332 calls)
     interpolate  :      2.06s CPU      2.36s WALL (     166 calls)
 
     Parallel routines
 
     PWSCF        :  25m57.60s CPU  29m24.50s WALL

 
   This run was terminated on:  16:23: 0   1Nov2023            

=------------------------------------------------------------------------------=
   JOB DONE.
=------------------------------------------------------------------------------=
