
     Program PWSCF v.7.2 starts on  1Nov2023 at 22:52: 7 

     This program is part of the open-source Quantum ESPRESSO suite
     for quantum simulation of materials; please cite
         "P. Giannozzi et al., J. Phys.:Condens. Matter 21 395502 (2009);
         "P. Giannozzi et al., J. Phys.:Condens. Matter 29 465901 (2017);
         "P. Giannozzi et al., J. Chem. Phys. 152 154105 (2020);
          URL http://www.quantum-espresso.org", 
     in publications or presentations arising from this work. More details at
     http://www.quantum-espresso.org/quote

     Parallel version (MPI & OpenMP), running on      48 processor cores
     Number of MPI processes:                48
     Threads/MPI process:                     1

     MPI processes distributed on     1 nodes
     56449 MiB available memory on the printing compute node when the environment starts
 
     Waiting for input...
     Reading input from standard input
Warning: card &CELL ignored
Warning: card CELL_DYNAMICS = 'BFGS', ignored
Warning: card CELL_DOFREE = '2DXY' ignored
Warning: card / ignored

     Current dimensions of program PWSCF are:
     Max number of different atomic species (ntypx) = 10
     Max number of k-points (npk) =  40000
     Max angular momentum in pseudopotentials (lmaxx) =  4
     file O.pbe-n-kjpaw_psl.0.1.UPF: wavefunction(s)  2P renormalized

     IMPORTANT: XC functional enforced from input :
     Exchange-correlation= RVV10
                           (   1   4  13   4  26   0   0)
     Any further DFT definition will be discarded
     Please, verify this is what you really want


     gamma-point specific algorithms are used
     signal trapping enabled: kill the code with -SIGUSR1 to stop cleanly the simulation 
 
     R & G space division:  proc/nbgrp/npool/nimage =      48
     Subspace diagonalization in iterative solution of the eigenvalue problem:
     one sub-group per band group will be used
     scalapack distributed-memory algorithm (size of sub-group:  2*  2 procs)

 
     Parallelization info
     --------------------
     sticks:   dense  smooth     PW     G-vecs:    dense   smooth      PW
     Min         396     194     47               101632    35090    4376
     Max         398     196     50               101674    35128    4410
     Sum       19091    9389   2349              4879585  1685513  210763
 
     Using Slab Decomposition
 


     bravais-lattice index     =            0
     lattice parameter (alat)  =      17.8707  a.u.
     unit-cell volume          =   17436.2743 (a.u.)^3
     number of atoms/cell      =           36
     number of atomic types    =            3
     number of electrons       =       312.00
     number of Kohn-Sham states=          187
     kinetic-energy cutoff     =      80.0000  Ry
     charge density cutoff     =     650.0000  Ry
     scf convergence threshold =      1.0E-06
     mixing beta               =       0.7000
     number of iterations used =            8  local-TF  mixing
     energy convergence thresh.=      1.0E-04
     force convergence thresh. =      1.0E-02
     Exchange-correlation= RVV10
                           (   1   4  13   4  26   0   0)
     nstep                     =          200


     celldm(1)=  17.870686  celldm(2)=   0.000000  celldm(3)=   0.000000
     celldm(4)=   0.000000  celldm(5)=   0.000000  celldm(6)=   0.000000

     crystal axes: (cart. coord. in units of alat)
               a(1) = (   1.000000   0.000000   0.000000 )  
               a(2) = (   0.000000   1.155671   0.000000 )  
               a(3) = (   0.000000   0.000000   2.643601 )  

     reciprocal axes: (cart. coord. in units 2 pi/alat)
               b(1) = (  1.000000  0.000000  0.000000 )  
               b(2) = (  0.000000  0.865298  0.000000 )  
               b(3) = (  0.000000  0.000000  0.378272 )  


     PseudoPot. # 1 for Mo read from file:
     ../pseudo/Mo_ONCV_PBE-1.0.oncvpsp.upf
     MD5 check sum: 1b5d28e075c9ccadda658a603575cd1f
     Pseudo is Norm-conserving, Zval = 14.0
     Generated using ONCVPSP code by D. R. Hamann
     Using radial grid of 1526 points,  6 beta functions with: 
                l(1) =   0
                l(2) =   0
                l(3) =   1
                l(4) =   1
                l(5) =   2
                l(6) =   2

     PseudoPot. # 2 for S  read from file:
     ../pseudo/s_pbe_v1.4.uspp.F.UPF
     MD5 check sum: 88d86576ff6df21479756cfb9bdac1df
     Pseudo is Ultrasoft + core correction, Zval =  6.0
     Generated by new atomic code, or converted to UPF format
     Using radial grid of  907 points,  6 beta functions with: 
                l(1) =   0
                l(2) =   0
                l(3) =   1
                l(4) =   1
                l(5) =   2
                l(6) =   2
     Q(r) pseudized with  8 coefficients,  rinner =    1.300   1.300   1.300
                                                       1.300   1.300

     PseudoPot. # 3 for O  read from file:
     ../pseudo/O.pbe-n-kjpaw_psl.0.1.UPF
     MD5 check sum: 0234752ac141de4415c5fc33072bef88
     Pseudo is Projector augmented-wave + core cor, Zval =  6.0
     Generated using "atomic" code by A. Dal Corso  v.5.0.99 svn rev. 10869
     Shape of augmentation charge: BESSEL
     Using radial grid of 1095 points,  4 beta functions with: 
                l(1) =   0
                l(2) =   0
                l(3) =   1
                l(4) =   1
     Q(r) pseudized with 0 coefficients 


     atomic species   valence    mass     pseudopotential
        Mo            14.00    95.94000     Mo( 1.00)
        S              6.00    32.06500     S ( 1.00)
        O              6.00    15.99940     O ( 1.00)

     No symmetry found



   Cartesian axes

     site n.     atom                  positions (alat units)
         1           Mo  tau(   1) = (   0.6952221   0.1890506   0.2985846  )
         2           S   tau(   2) = (   0.8646417   0.0856217   0.4689279  )
         3           S   tau(   3) = (   0.8663890   0.0857843   0.1351291  )
         4           Mo  tau(   4) = (   0.8560186   0.4753274   0.2873942  )
         5           S   tau(   5) = (   0.6873294   0.3936244   0.4596353  )
         6           S   tau(   6) = (   0.6929804   0.3713468   0.1185692  )
         7           Mo  tau(   7) = (   0.6862796   0.7633098   0.2825370  )
         8           S   tau(   8) = (   0.8545980   0.6708292   0.4486168  )
         9           S   tau(   9) = (   0.8545123   0.6666874   0.1146125  )
        10           Mo  tau(  10) = (   0.8629403   1.0471007   0.3006803  )
        11           S   tau(  11) = (   0.6868280   0.9456650   0.4634891  )
        12           S   tau(  12) = (   0.6998113   0.9568511   0.1205389  )
        13           Mo  tau(  13) = (   0.3618216   0.1847309   0.2935964  )
        14           S   tau(  14) = (   0.5260962   0.0863870   0.4600448  )
        15           S   tau(  15) = (   0.5348379   0.0894875   0.1297123  )
        16           Mo  tau(  16) = (   0.5265817   0.4772436   0.2784130  )
        17           S   tau(  17) = (   0.3624753   0.3882513   0.4525556  )
        18           S   tau(  18) = (   0.3635411   0.3752055   0.1119148  )
        19           Mo  tau(  19) = (   0.3652268   0.7630864   0.2781795  )
        20           S   tau(  20) = (   0.5269494   0.6690381   0.1096838  )
        21           Mo  tau(  21) = (   0.5300192   1.0470394   0.2900995  )
        22           S   tau(  22) = (   0.3670346   0.9457522   0.4574073  )
        23           S   tau(  23) = (   0.3604225   0.9585725   0.1159032  )
        24           Mo  tau(  24) = (   0.0313099   0.1847895   0.3013130  )
        25           S   tau(  25) = (   0.1956761   0.0838230   0.4650863  )
        26           S   tau(  26) = (   0.1967693   0.0903508   0.1278874  )
        27           Mo  tau(  27) = (   0.1967578   0.4753919   0.2813011  )
        28           S   tau(  28) = (   0.0287851   0.3864324   0.4586755  )
        29           S   tau(  29) = (   0.0244514   0.3729871   0.1239344  )
        30           Mo  tau(  30) = (   0.0286728   0.7631204   0.2856894  )
        31           S   tau(  31) = (   0.2011512   0.6675435   0.4465001  )
        32           S   tau(  32) = (   0.1969214   0.6672839   0.1104564  )
        33           Mo  tau(  33) = (   0.1950294   1.0511147   0.2932237  )
        34           S   tau(  34) = (   0.0312912   0.9612169   0.4667423  )
        35           S   tau(  35) = (   0.0292670   0.9563028   0.1216485  )
        36           O   tau(  36) = (   0.2222222   1.1556707   0.5792558  )

     number of k points=     1  Gaussian smearing, width (Ry)=  0.0100
                       cart. coord. in units 2pi/alat
        k(    1) = (   0.0000000   0.0000000   0.0000000), wk =   2.0000000

     Dense  grid:  2439793 G-vectors     FFT dimensions: ( 150, 180, 384)

     Smooth grid:   842757 G-vectors     FFT dimensions: ( 108, 120, 270)

     Estimated max dynamical RAM per process >     269.22 MB

     Estimated total dynamical RAM >      12.62 GB

     Initial potential from superposition of free atoms

     starting charge     311.9873, renormalised to     312.0000

     negative rho (up, down):  2.765E-04 0.000E+00


---------------------------------------------------------------------------------
Carrying out rVV10 run using the following parameters:
Nqs =      20    Nr_points =    1024   r_max =   100.000
b_value =  6.30000    beta =  0.00901
     q_mesh =  0.00010000  0.00030000  0.00058939  0.00100810
               0.00161396  0.00249058  0.00375900  0.00559430
               0.00824984  0.01209221  0.01765183  0.02569619
               0.03733578  0.05417739  0.07854596  0.11380545
               0.16482331  0.23864234  0.34545298  0.50000000

Gradients computed in Reciprocal space

---------------------------------------------------------------------------------


     Starting wfcs are  216 randomized atomic wfcs
     Checking if some PAW data can be deallocated... 

     total cpu time spent up to now is        5.4 secs

     Self-consistent Calculation

     iteration #  1     ecut=    80.00 Ry     beta= 0.70
     Davidson diagonalization with overlap
     ethr =  1.00E-02,  avg # of iterations =  2.0

     Threshold (ethr) on eigenvalues was too large:
     Diagonalizing with lowered threshold

     Davidson diagonalization with overlap
     ethr =  4.47E-04,  avg # of iterations =  4.0

     negative rho (up, down):  3.514E-08 0.000E+00

     total cpu time spent up to now is       24.2 secs

     total energy              =   -2246.26996297 Ry
     estimated scf accuracy    <       1.64712061 Ry

     iteration #  2     ecut=    80.00 Ry     beta= 0.70
     Davidson diagonalization with overlap
     ethr =  5.28E-04,  avg # of iterations =  4.0

     total cpu time spent up to now is       28.9 secs

     total energy              =   -2246.26404224 Ry
     estimated scf accuracy    <       0.56074711 Ry

     iteration #  3     ecut=    80.00 Ry     beta= 0.70
     Davidson diagonalization with overlap
     ethr =  1.80E-04,  avg # of iterations =  2.0

     total cpu time spent up to now is       32.8 secs

     total energy              =   -2246.27462489 Ry
     estimated scf accuracy    <       0.11963112 Ry

     iteration #  4     ecut=    80.00 Ry     beta= 0.70
     Davidson diagonalization with overlap
     ethr =  3.83E-05,  avg # of iterations = 12.0

     total cpu time spent up to now is       37.4 secs

     total energy              =   -2246.29344868 Ry
     estimated scf accuracy    <       0.02260346 Ry

     iteration #  5     ecut=    80.00 Ry     beta= 0.70
     Davidson diagonalization with overlap
     ethr =  7.24E-06,  avg # of iterations =  2.0

     total cpu time spent up to now is       41.1 secs

     total energy              =   -2246.29293466 Ry
     estimated scf accuracy    <       0.01391065 Ry

     iteration #  6     ecut=    80.00 Ry     beta= 0.70
     Davidson diagonalization with overlap
     ethr =  4.46E-06,  avg # of iterations =  2.0

     total cpu time spent up to now is       44.7 secs

     total energy              =   -2246.29187296 Ry
     estimated scf accuracy    <       0.00854365 Ry

     iteration #  7     ecut=    80.00 Ry     beta= 0.70
     Davidson diagonalization with overlap
     ethr =  2.74E-06,  avg # of iterations =  2.0

     negative rho (up, down):  1.053E-03 0.000E+00

     total cpu time spent up to now is       51.3 secs

     total energy              =   -2246.29083302 Ry
     estimated scf accuracy    <       0.00490846 Ry

     iteration #  8     ecut=    80.00 Ry     beta= 0.70
     Davidson diagonalization with overlap
     ethr =  1.57E-06,  avg # of iterations =  7.0

     negative rho (up, down):  2.369E-02 0.000E+00

     total cpu time spent up to now is       57.2 secs

     total energy              =   -2246.29055670 Ry
     estimated scf accuracy    <       0.00261601 Ry

     iteration #  9     ecut=    80.00 Ry     beta= 0.70
     Davidson diagonalization with overlap
     ethr =  8.38E-07,  avg # of iterations =  2.0

     negative rho (up, down):  2.777E-02 0.000E+00

     total cpu time spent up to now is       63.2 secs

     total energy              =   -2246.29051048 Ry
     estimated scf accuracy    <       0.00125967 Ry

     iteration # 10     ecut=    80.00 Ry     beta= 0.70
     Davidson diagonalization with overlap
     ethr =  4.04E-07,  avg # of iterations =  2.0

     negative rho (up, down):  1.886E-02 0.000E+00

     total cpu time spent up to now is       70.9 secs

     total energy              =   -2246.29052111 Ry
     estimated scf accuracy    <       0.00028650 Ry

     iteration # 11     ecut=    80.00 Ry     beta= 0.70
     Davidson diagonalization with overlap
     ethr =  9.18E-08,  avg # of iterations = 13.0

     negative rho (up, down):  7.909E-03 0.000E+00

     total cpu time spent up to now is       78.5 secs

     total energy              =   -2246.29052623 Ry
     estimated scf accuracy    <       0.00004986 Ry

     iteration # 12     ecut=    80.00 Ry     beta= 0.70
     Davidson diagonalization with overlap
     ethr =  1.60E-08,  avg # of iterations =  4.0

     negative rho (up, down):  1.195E-03 0.000E+00

     total cpu time spent up to now is       87.9 secs

     total energy              =   -2246.29055620 Ry
     estimated scf accuracy    <       0.00001051 Ry

     iteration # 13     ecut=    80.00 Ry     beta= 0.70
     Davidson diagonalization with overlap
     ethr =  3.37E-09,  avg # of iterations =  5.0

     negative rho (up, down):  3.513E-04 0.000E+00

     total cpu time spent up to now is       97.9 secs

     total energy              =   -2246.29055843 Ry
     estimated scf accuracy    <       0.00000227 Ry

     iteration # 14     ecut=    80.00 Ry     beta= 0.70
     Davidson diagonalization with overlap
     ethr =  7.27E-10,  avg # of iterations =  4.0

     negative rho (up, down):  2.163E-04 0.000E+00

     total cpu time spent up to now is      101.5 secs

     End of self-consistent calculation

          k = 0.0000 0.0000 0.0000 (105382 PWs)   bands (ev):

   -62.9739 -62.9594 -62.9470 -62.9397 -62.9122 -62.8671 -62.8575 -62.8417
   -62.8221 -62.8190 -62.8089 -62.6467 -37.2998 -37.2383 -37.2341 -37.2201
   -37.1922 -37.1844 -37.1710 -37.1467 -37.1364 -37.1229 -37.1184 -37.1106
   -37.1039 -37.0956 -37.0688 -37.0633 -37.0558 -37.0396 -37.0297 -37.0253
   -37.0204 -37.0012 -36.9941 -36.9828 -36.9708 -36.9620 -36.9551 -36.9538
   -36.9385 -36.9015 -36.8828 -36.8638 -36.8282 -36.8005 -36.7642 -36.7280
   -24.7807 -15.9782 -15.2270 -15.1594 -14.9768 -14.9353 -14.8123 -14.5531
   -14.5204 -14.4597 -14.4446 -14.4105 -14.3762 -14.3332 -14.2719 -14.1897
   -14.1658 -14.1492 -14.0682 -14.0026 -13.8989 -13.8624 -13.8449 -13.5351
    -8.6779  -8.5583  -8.0895  -7.5804  -7.4704  -7.3259  -7.2861  -7.2346
    -7.2054  -7.0841  -6.9675  -6.8491  -6.8336  -6.7406  -6.7122  -6.6284
    -6.5355  -6.4959  -6.3749  -6.3424  -6.1300  -6.1079  -5.9604  -5.8985
    -5.8476  -5.8112  -5.7718  -5.7355  -5.6914  -5.6754  -5.6396  -5.6272
    -5.5756  -5.5625  -5.4480  -5.4326  -5.2748  -5.2339  -5.1139  -5.0615
    -5.0410  -5.0076  -4.8963  -4.8436  -4.7550  -4.7051  -4.5498  -4.3645
    -4.3045  -4.2668  -4.2044  -4.1976  -4.1230  -3.9683  -3.9187  -3.8422
    -3.8381  -3.7572  -3.6705  -3.6574  -3.5988  -3.5630  -3.5366  -3.4946
    -3.4481  -3.4330  -3.3080  -3.2292  -3.2100  -3.1070  -3.0124  -2.8623
    -2.8316  -2.7934  -2.7756  -2.7278  -2.6739  -2.6443  -2.6036  -2.3364
    -2.3053  -2.0285  -1.9573  -1.8255  -0.8937  -0.7609  -0.5317  -0.2348
    -0.1786  -0.1299  -0.0586   0.0408   0.1049   0.1614   0.1937   0.2510
     0.2919   0.3347   0.3872   0.4605   0.4960   0.5194   0.5637   0.5777
     0.6774   0.7057   0.7277   0.7503   0.7593   0.7911   0.8802   0.9166
     0.9525   1.1014   1.1767

     the Fermi energy is    -1.3596 ev

!    total energy              =   -2246.29056052 Ry
     estimated scf accuracy    <       0.00000057 Ry
     smearing contrib. (-TS)   =      -0.00000009 Ry
     internal energy E=F+TS    =   -2246.29056043 Ry

     The total energy is F=E-TS. E is the sum of the following terms:
     one-electron contribution =  -18445.60429721 Ry
     hartree contribution      =    9210.86358145 Ry
     xc contribution           =    -392.31693925 Ry
     ewald contribution        =    7390.61453524 Ry
     one-center paw contrib.   =      -9.84744066 Ry

     convergence has been achieved in  14 iterations

     negative rho (up, down):  2.163E-04 0.000E+00

     Forces acting on atoms (cartesian axes, Ry/au):

     atom    1 type  1   force =     0.01402748   -0.02772868    0.01268322
     atom    2 type  2   force =    -0.01733533    0.01761597   -0.00145742
     atom    3 type  2   force =    -0.00993963    0.00626878   -0.00706734
     atom    4 type  1   force =     0.00417319    0.00239112   -0.00102843
     atom    5 type  2   force =    -0.00113965   -0.00496218   -0.00616914
     atom    6 type  2   force =     0.00094741    0.01179643   -0.00037433
     atom    7 type  1   force =     0.00666637   -0.01634221   -0.00742418
     atom    8 type  2   force =     0.00146876   -0.00377016    0.01730472
     atom    9 type  2   force =     0.01249586    0.00695521    0.01245979
     atom   10 type  1   force =    -0.00865955    0.00659670   -0.02851837
     atom   11 type  2   force =     0.00477230   -0.00159955   -0.00713724
     atom   12 type  2   force =    -0.00090490    0.00111165    0.00534394
     atom   13 type  1   force =     0.01309018    0.00726112    0.00672092
     atom   14 type  2   force =     0.00838671    0.00099116    0.01085978
     atom   15 type  2   force =    -0.01339501    0.00010818   -0.01011042
     atom   16 type  1   force =     0.00096336    0.01184841    0.00391747
     atom   17 type  2   force =     0.00733939    0.00582267    0.00187418
     atom   18 type  2   force =    -0.00361945   -0.00246906    0.01028410
     atom   19 type  1   force =     0.00762771   -0.01029269   -0.00616593
     atom   20 type  2   force =     0.00282867   -0.00364916    0.00157803
     atom   21 type  1   force =    -0.00692003    0.00537141    0.00009477
     atom   22 type  2   force =     0.00320794   -0.01205980   -0.01025148
     atom   23 type  2   force =     0.00216154    0.00072898    0.01056661
     atom   24 type  1   force =    -0.02680432   -0.00053578    0.00932284
     atom   25 type  2   force =    -0.02014496    0.17383718   -0.36557208
     atom   26 type  2   force =    -0.01185178   -0.00152196   -0.00214723
     atom   27 type  1   force =    -0.00000362   -0.00054549    0.00946195
     atom   28 type  2   force =    -0.00162006    0.00655793   -0.00636481
     atom   29 type  2   force =     0.00337570    0.00198949   -0.00494887
     atom   30 type  1   force =    -0.00714629    0.01186916   -0.00626900
     atom   31 type  2   force =     0.00105320   -0.00088108    0.01759281
     atom   32 type  2   force =    -0.00853857    0.00608855    0.00795973
     atom   33 type  1   force =     0.00006376   -0.01302633   -0.07482265
     atom   34 type  2   force =    -0.00045761   -0.04758959   -0.01113421
     atom   35 type  2   force =    -0.00963626    0.00632676    0.01600435
     atom   36 type  3   force =     0.05346749   -0.14456315    0.40293389
     The non-local contrib.  to forces
     atom    1 type  1   force =    -0.00310146    0.04003495   -0.00797805
     atom    2 type  2   force =    -0.00224159    0.01050290   -0.27489864
     atom    3 type  2   force =    -0.01618783    0.00204649    0.26665308
     atom    4 type  1   force =    -0.00091916    0.00940993    0.00663699
     atom    5 type  2   force =     0.00546786   -0.03459828   -0.25591285
     atom    6 type  2   force =    -0.00158763    0.00938793    0.26409949
     atom    7 type  1   force =    -0.01914947    0.00786406   -0.02178334
     atom    8 type  2   force =     0.00383305   -0.00488818   -0.25618455
     atom    9 type  2   force =     0.00596718   -0.00931220    0.27947705
     atom   10 type  1   force =     0.00601782   -0.00100791   -0.00170914
     atom   11 type  2   force =     0.01441582    0.00539453   -0.25962303
     atom   12 type  2   force =    -0.01183498   -0.01641986    0.26423858
     atom   13 type  1   force =    -0.02099378    0.00304457    0.00615293
     atom   14 type  2   force =     0.01161661   -0.00065594   -0.26711632
     atom   15 type  2   force =    -0.01155572   -0.00265366    0.25550353
     atom   16 type  1   force =     0.00036180    0.02980577   -0.02779434
     atom   17 type  2   force =     0.00107193   -0.03322092   -0.24903658
     atom   18 type  2   force =    -0.00628256    0.00184829    0.27123198
     atom   19 type  1   force =     0.01220803    0.00569002   -0.01727017
     atom   20 type  2   force =     0.00012891   -0.02288787    0.26814411
     atom   21 type  1   force =     0.00273790    0.02489191    0.00625555
     atom   22 type  2   force =     0.01818053   -0.01716156   -0.26068591
     atom   23 type  2   force =     0.01214644   -0.01585736    0.26610806
     atom   24 type  1   force =     0.02256810    0.00135790   -0.00126627
     atom   25 type  2   force =     0.01429759   -0.01574699    0.01202774
     atom   26 type  2   force =    -0.00270150   -0.00996026    0.26701513
     atom   27 type  1   force =    -0.00331761    0.01413301    0.00861734
     atom   28 type  2   force =    -0.00373694   -0.02719782   -0.27388200
     atom   29 type  2   force =     0.00611608    0.00378570    0.26356001
     atom   30 type  1   force =    -0.00038433    0.02129562    0.00900578
     atom   31 type  2   force =    -0.00698362   -0.00026792   -0.25322885
     atom   32 type  2   force =    -0.00274951   -0.01084036    0.27521302
     atom   33 type  1   force =    -0.00736166    0.03710763    0.04078866
     atom   34 type  2   force =    -0.01711154   -0.04997163   -0.27725310
     atom   35 type  2   force =    -0.00563694   -0.01038021    0.27085355
     atom   36 type  3   force =    -0.48305476    1.61178923   -1.70278301
     The ionic contribution  to forces
     atom    1 type  1   force =     0.54716039    0.78209191    4.30439016
     atom    2 type  2   force =    -1.63467778    0.73708451   38.75278111
     atom    3 type  2   force =    -0.33295993    0.09916345  -36.82841033
     atom    4 type  1   force =    -0.14177040    0.90924842   -0.34753074
     atom    5 type  2   force =    -0.90508121    1.78793896   38.51740624
     atom    6 type  2   force =     0.36207146   -0.38298537  -38.54290941
     atom    7 type  1   force =    -2.52461950   -3.23403179    1.50044535
     atom    8 type  2   force =    -1.13000536   -0.15704948   37.15370274
     atom    9 type  2   force =     0.29329841   -0.09897017  -38.49271969
     atom   10 type  1   force =    -2.11630869   -0.83276035    3.79190438
     atom   11 type  2   force =    -0.41359954   -1.98220163   38.82105778
     atom   12 type  2   force =     0.46386909    0.56997625  -38.46331070
     atom   13 type  1   force =     1.69595190    2.71949271   -0.43777859
     atom   14 type  2   force =     1.48095336    0.47572644   37.74244246
     atom   15 type  2   force =     0.35552496    0.03041484  -37.59293746
     atom   16 type  1   force =     0.26930869    4.31132136   -0.60421517
     atom   17 type  2   force =     1.11950367    2.30335993   37.50156970
     atom   18 type  2   force =    -0.08681248   -0.45546391  -39.20337849
     atom   19 type  1   force =     3.09503226   -3.39343334   -0.88234498
     atom   20 type  2   force =     0.29059123   -0.26746754  -38.98380832
     atom   21 type  1   force =     1.31974742   -0.56747606   -1.04846685
     atom   22 type  2   force =     1.77084696   -3.68952495   37.15994664
     atom   23 type  2   force =     0.05076679    0.43559309  -39.17232821
     atom   24 type  1   force =    -1.94823479    2.64453506    2.98294364
     atom   25 type  2   force =    -1.31639224    6.54707227   30.62672128
     atom   26 type  2   force =    -0.33092146    0.23303405  -38.49908881
     atom   27 type  1   force =    -0.03092827    1.01938873   -3.59052900
     atom   28 type  2   force =    -0.30868434    1.70795476   37.83092548
     atom   29 type  2   force =    -0.36103958   -0.24099792  -37.88626484
     atom   30 type  1   force =    -0.79182608   -1.77630633   -1.46929036
     atom   31 type  2   force =     1.19589893   -0.45465540   36.98917808
     atom   32 type  2   force =    -0.49166960   -0.10522608  -39.20531831
     atom   33 type  1   force =     0.34563642   -2.64872356   -3.42594944
     atom   34 type  2   force =    -1.25611174   -3.04946017   38.31100210
     atom   35 type  2   force =    -0.46833316    0.26262947  -38.64662762
     atom   36 type  3   force =     1.93381422   -4.23929217   51.33679018
     The local contribution  to forces
     atom    1 type  1   force =    -0.53009780   -0.85005225   -4.28450643
     atom    2 type  2   force =     1.61995484   -0.72949822  -38.50048304
     atom    3 type  2   force =     0.33847368   -0.09479636   36.57504641
     atom    4 type  1   force =     0.14701646   -0.91606844    0.33888928
     atom    5 type  2   force =     0.89909782   -1.76028743  -38.28843744
     atom    6 type  2   force =    -0.35980190    0.38641892   38.29892781
     atom    7 type  1   force =     2.55061154    3.21006127   -1.48709061
     atom    8 type  2   force =     1.12779072    0.15764970  -36.90103265
     atom    9 type  2   force =    -0.28670584    0.11475556   38.24645142
     atom   10 type  1   force =     2.10166895    0.84026315   -3.81941916
     atom   11 type  2   force =     0.40464361    1.97577134  -38.58946427
     atom   12 type  2   force =    -0.45405132   -0.55386524   38.22497246
     atom   13 type  1   force =    -1.66171363   -2.71545711    0.43756507
     atom   14 type  2   force =    -1.48374478   -0.47371215  -37.48558254
     atom   15 type  2   force =    -0.35801968   -0.02791472   37.34728402
     atom   16 type  1   force =    -0.26875087   -4.32931428    0.63485075
     atom   17 type  2   force =    -1.11338346   -2.26621704  -37.27102679
     atom   18 type  2   force =     0.08931488    0.45193113   38.96288804
     atom   19 type  1   force =    -3.09988357    3.37781766    0.89246410
     atom   20 type  2   force =    -0.28802553    0.28587042   38.73800163
     atom   21 type  1   force =    -1.32953697    0.54793368    1.04153217
     atom   22 type  2   force =    -1.78471085    3.69393591  -36.93069226
     atom   23 type  2   force =    -0.05989807   -0.42046592   38.93720069
     atom   24 type  1   force =     1.89875995   -2.64660007   -2.97304852
     atom   25 type  2   force =     1.28195539   -6.35713796  -31.01277147
     atom   26 type  2   force =     0.32194330   -0.22517152   38.25063595
     atom   27 type  1   force =     0.03413917   -1.03382732    3.59039564
     atom   28 type  2   force =     0.31060984   -1.67629348  -37.58454434
     atom   29 type  2   force =     0.35881820    0.23995248   37.63793120
     atom   30 type  1   force =     0.78515739    1.76697790    1.45309333
     atom   31 type  2   force =    -1.18828806    0.45402859  -36.73915728
     atom   32 type  2   force =     0.48604826    0.12161123   38.95877934
     atom   33 type  1   force =    -0.33811444    2.59827389    3.30967821
     atom   34 type  2   force =     1.27156427    3.05011760  -38.06654502
     atom   35 type  2   force =     0.46420391   -0.24695108   38.41244679
     atom   36 type  3   force =    -1.40194246    2.49863409  -49.24636728
     The core correction contribution to forces
     atom    1 type  1   force =     0.00000000    0.00000000    0.00000000
     atom    2 type  2   force =    -0.00030899   -0.00059778    0.02092690
     atom    3 type  2   force =     0.00073743   -0.00021875   -0.02071799
     atom    4 type  1   force =     0.00000000    0.00000000    0.00000000
     atom    5 type  2   force =    -0.00058501    0.00193686    0.02052473
     atom    6 type  2   force =     0.00026834   -0.00098877   -0.02094991
     atom    7 type  1   force =     0.00000000    0.00000000    0.00000000
     atom    8 type  2   force =    -0.00010512    0.00063329    0.02051026
     atom    9 type  2   force =    -0.00005373    0.00055657   -0.02113560
     atom   10 type  1   force =     0.00000000    0.00000000    0.00000000
     atom   11 type  2   force =    -0.00067292   -0.00054143    0.02065876
     atom   12 type  2   force =     0.00111175    0.00134191   -0.02092403
     atom   13 type  1   force =     0.00000000    0.00000000    0.00000000
     atom   14 type  2   force =    -0.00051484   -0.00048804    0.02089265
     atom   15 type  2   force =     0.00060702    0.00020573   -0.02032010
     atom   16 type  1   force =     0.00000000    0.00000000    0.00000000
     atom   17 type  2   force =     0.00009354    0.00181067    0.02015542
     atom   18 type  2   force =     0.00017272   -0.00078185   -0.02092324
     atom   19 type  1   force =     0.00000000    0.00000000    0.00000000
     atom   20 type  2   force =     0.00010082    0.00093484   -0.02130054
     atom   21 type  1   force =     0.00000000    0.00000000    0.00000000
     atom   22 type  2   force =    -0.00120126    0.00072995    0.02093442
     atom   23 type  2   force =    -0.00089794    0.00135792   -0.02076636
     atom   24 type  1   force =     0.00000000    0.00000000    0.00000000
     atom   25 type  2   force =     0.00000358   -0.00042033    0.00840854
     atom   26 type  2   force =    -0.00013935    0.00048903   -0.02113151
     atom   27 type  1   force =     0.00000000    0.00000000    0.00000000
     atom   28 type  2   force =     0.00020083    0.00206799    0.02089051
     atom   29 type  2   force =    -0.00053448   -0.00069005   -0.02058594
     atom   30 type  1   force =     0.00000000    0.00000000    0.00000000
     atom   31 type  2   force =     0.00042216    0.00018851    0.02052523
     atom   32 type  2   force =    -0.00014486    0.00066628   -0.02111114
     atom   33 type  1   force =     0.00000000    0.00000000    0.00000000
     atom   34 type  2   force =     0.00127319    0.00175653    0.02147029
     atom   35 type  2   force =     0.00017319    0.00096157   -0.02103869
     atom   36 type  3   force =     0.00461695   -0.01570967    0.01499969
     The Hubbard contrib.    to forces
     atom    1 type  1   force =     0.00000000    0.00000000    0.00000000
     atom    2 type  2   force =     0.00000000    0.00000000    0.00000000
     atom    3 type  2   force =     0.00000000    0.00000000    0.00000000
     atom    4 type  1   force =     0.00000000    0.00000000    0.00000000
     atom    5 type  2   force =     0.00000000    0.00000000    0.00000000
     atom    6 type  2   force =     0.00000000    0.00000000    0.00000000
     atom    7 type  1   force =     0.00000000    0.00000000    0.00000000
     atom    8 type  2   force =     0.00000000    0.00000000    0.00000000
     atom    9 type  2   force =     0.00000000    0.00000000    0.00000000
     atom   10 type  1   force =     0.00000000    0.00000000    0.00000000
     atom   11 type  2   force =     0.00000000    0.00000000    0.00000000
     atom   12 type  2   force =     0.00000000    0.00000000    0.00000000
     atom   13 type  1   force =     0.00000000    0.00000000    0.00000000
     atom   14 type  2   force =     0.00000000    0.00000000    0.00000000
     atom   15 type  2   force =     0.00000000    0.00000000    0.00000000
     atom   16 type  1   force =     0.00000000    0.00000000    0.00000000
     atom   17 type  2   force =     0.00000000    0.00000000    0.00000000
     atom   18 type  2   force =     0.00000000    0.00000000    0.00000000
     atom   19 type  1   force =     0.00000000    0.00000000    0.00000000
     atom   20 type  2   force =     0.00000000    0.00000000    0.00000000
     atom   21 type  1   force =     0.00000000    0.00000000    0.00000000
     atom   22 type  2   force =     0.00000000    0.00000000    0.00000000
     atom   23 type  2   force =     0.00000000    0.00000000    0.00000000
     atom   24 type  1   force =     0.00000000    0.00000000    0.00000000
     atom   25 type  2   force =     0.00000000    0.00000000    0.00000000
     atom   26 type  2   force =     0.00000000    0.00000000    0.00000000
     atom   27 type  1   force =     0.00000000    0.00000000    0.00000000
     atom   28 type  2   force =     0.00000000    0.00000000    0.00000000
     atom   29 type  2   force =     0.00000000    0.00000000    0.00000000
     atom   30 type  1   force =     0.00000000    0.00000000    0.00000000
     atom   31 type  2   force =     0.00000000    0.00000000    0.00000000
     atom   32 type  2   force =     0.00000000    0.00000000    0.00000000
     atom   33 type  1   force =     0.00000000    0.00000000    0.00000000
     atom   34 type  2   force =     0.00000000    0.00000000    0.00000000
     atom   35 type  2   force =     0.00000000    0.00000000    0.00000000
     atom   36 type  3   force =     0.00000000    0.00000000    0.00000000
     The SCF correction term to forces
     atom    1 type  1   force =     0.00006584    0.00019713    0.00076110
     atom    2 type  2   force =    -0.00006232    0.00012499    0.00019981
     atom    3 type  2   force =    -0.00000349    0.00007438    0.00034504
     atom    4 type  1   force =    -0.00015423   -0.00019836    0.00095960
     atom    5 type  2   force =    -0.00003962    0.00004815    0.00023372
     atom    6 type  2   force =    -0.00000336   -0.00003584    0.00044124
     atom    7 type  1   force =    -0.00017670   -0.00023531    0.00098797
     atom    8 type  2   force =    -0.00004504   -0.00011505    0.00029247
     atom    9 type  2   force =    -0.00001066   -0.00007413    0.00037016
     atom   10 type  1   force =    -0.00003814    0.00010224    0.00068911
     atom   11 type  2   force =    -0.00001517   -0.00002192    0.00021707
     atom   12 type  2   force =     0.00000007    0.00007903    0.00035119
     atom   13 type  1   force =    -0.00015480    0.00018138    0.00076507
     atom   14 type  2   force =     0.00007585    0.00012128    0.00020710
     atom   15 type  2   force =     0.00004791    0.00005641    0.00034314
     atom   16 type  1   force =     0.00004324    0.00003600    0.00105979
     atom   17 type  2   force =     0.00005319    0.00009046    0.00019598
     atom   18 type  2   force =    -0.00001252   -0.00000230    0.00044936
     atom   19 type  1   force =     0.00027049   -0.00036660    0.00096868
     atom   20 type  2   force =     0.00003274   -0.00009858    0.00052471
     atom   21 type  1   force =     0.00013110    0.00002232    0.00075746
     atom   22 type  2   force =     0.00009205   -0.00003873    0.00022919
     atom   23 type  2   force =     0.00004381    0.00010168    0.00033598
     atom   24 type  1   force =     0.00010191    0.00017177    0.00067755
     atom   25 type  2   force =    -0.00000979    0.00007063    0.00002540
     atom   26 type  2   force =    -0.00003329    0.00008717    0.00040555
     atom   27 type  1   force =     0.00010258   -0.00023948    0.00096153
     atom   28 type  2   force =    -0.00000996    0.00002692    0.00022910
     atom   29 type  2   force =     0.00001496   -0.00006028    0.00039425
     atom   30 type  1   force =    -0.00009378   -0.00009760    0.00090580
     atom   31 type  2   force =     0.00000328   -0.00017443    0.00025919
     atom   32 type  2   force =    -0.00002337   -0.00012209    0.00038039
     atom   33 type  1   force =    -0.00009706    0.00031614    0.00064348
     atom   34 type  2   force =    -0.00007229   -0.00003149    0.00017508
     atom   35 type  2   force =    -0.00004376    0.00006745    0.00035388
     atom   36 type  3   force =     0.00003303    0.00001581    0.00027786

     Total force =     0.605675     Total SCF correction =     0.003490

     BFGS Geometry Optimization
     Energy error            =      0.0E+00 Ry
     Gradient error          =      4.0E-01 Ry/Bohr

     number of scf cycles    =   1
     number of bfgs steps    =   0

     energy             new  =   -2246.2905605235 Ry

     new trust radius        =       0.4314081525 bohr
     new conv_thr            =       0.0000010000 Ry


ATOMIC_POSITIONS (angstrom)
Mo            6.5819714303        1.7731328430        2.8303547046
S             8.1675358772        0.8190259961        4.4337671214
S             8.1879732586        0.8145590404        1.2741435532
Mo            8.0973709196        4.4963222704        2.7172741712
S             6.4993061794        3.7197856166        4.3433960806
S             6.5538511469        3.5179799574        1.1210821414
Mo            6.4935093873        7.2097893574        2.6679557772
S             8.0825049604        6.3418759124        4.2516188271
S             8.0875301730        6.3083828539        1.0904564343
Mo            8.1560366118        9.9056712361        2.8283704921
S             6.4976929863        8.9420803700        4.3793286677
S             6.6174683494        9.0492994744        1.1427351956
Mo            3.4285866883        1.7507982712        2.7800277222
S             4.9796035441        0.8174657088        4.3562798413
S             5.0507454211        0.8463193537        1.2213082559
Mo            4.9802664718        4.5194479129        2.6349575839
S             3.4317254988        3.6746809093        4.2807013508
S             3.4360052488        3.5469221263        1.0637937924
Mo            3.4578981490        7.2108778812        2.6274139901
S             4.9847310619        6.3250012314        1.0380887904
Mo            5.0086019967        9.9044424802        2.7434511114
S             3.4726556876        8.9373694969        4.3201664613
S             3.4095730048        9.0653757441        1.1016599059
Mo            0.2819062526        1.7472260090        2.8543781459
S             1.8398019614        0.8846846802        4.2047570264
S             1.8545283434        0.8536205294        1.2082645883
Mo            1.8606893934        4.4953781024        2.6652044304
S             0.2713565485        3.6578691358        4.3342159893
S             0.2330175513        3.5283020217        1.1693990549
Mo            0.2673704963        7.2229269825        2.6983790160
S             1.9027955779        6.3123325887        4.2317538370
S             1.8577197997        6.3135657328        1.0487713917
Mo            1.8443804038        9.9332459144        2.7333518110
S             0.2956707451        9.0648145009        4.4079774975
S             0.2716721104        9.0468736917        1.1588699190
O             2.1297959973       10.8524004769        5.6911068574



     Writing config-only to output data dir ./MoS2-V-O.save/
     NEW-OLD atomic charge density approx. for the potential

     negative rho (up, down):  1.811E-04 0.000E+00

     total cpu time spent up to now is      108.8 secs

     Self-consistent Calculation

     iteration #  1     ecut=    80.00 Ry     beta= 0.70
     Davidson diagonalization with overlap
     ethr =  1.00E-06,  avg # of iterations = 17.0

     negative rho (up, down):  4.616E-03 0.000E+00

     total cpu time spent up to now is      124.6 secs

     total energy              =   -2246.27720091 Ry
     estimated scf accuracy    <       0.11628425 Ry

     iteration #  2     ecut=    80.00 Ry     beta= 0.70
     Davidson diagonalization with overlap
     ethr =  3.73E-05,  avg # of iterations =  6.0

     negative rho (up, down):  7.167E-03 0.000E+00

     total cpu time spent up to now is      137.5 secs

     total energy              =   -2246.29110015 Ry
     estimated scf accuracy    <       0.07701431 Ry

     iteration #  3     ecut=    80.00 Ry     beta= 0.70
     Davidson diagonalization with overlap
     ethr =  2.47E-05,  avg # of iterations =  3.0

     negative rho (up, down):  1.331E-02 0.000E+00

     total cpu time spent up to now is      147.9 secs

     total energy              =   -2246.29212618 Ry
     estimated scf accuracy    <       0.01176989 Ry

     iteration #  4     ecut=    80.00 Ry     beta= 0.70
     Davidson diagonalization with overlap
     ethr =  3.77E-06,  avg # of iterations =  5.0

     negative rho (up, down):  1.466E-02 0.000E+00

     total cpu time spent up to now is      159.9 secs

     total energy              =   -2246.29332875 Ry
     estimated scf accuracy    <       0.00615583 Ry

     iteration #  5     ecut=    80.00 Ry     beta= 0.70
     Davidson diagonalization with overlap
     ethr =  1.97E-06,  avg # of iterations =  2.0

     negative rho (up, down):  1.496E-02 0.000E+00

     total cpu time spent up to now is      169.9 secs

     total energy              =   -2246.29306867 Ry
     estimated scf accuracy    <       0.00186207 Ry

     iteration #  6     ecut=    80.00 Ry     beta= 0.70
     Davidson diagonalization with overlap
     ethr =  5.97E-07,  avg # of iterations =  6.0

     negative rho (up, down):  1.319E-02 0.000E+00

     total cpu time spent up to now is      179.9 secs

     total energy              =   -2246.29333603 Ry
     estimated scf accuracy    <       0.00071489 Ry

     iteration #  7     ecut=    80.00 Ry     beta= 0.70
     Davidson diagonalization with overlap
     ethr =  2.29E-07,  avg # of iterations =  4.0

     negative rho (up, down):  9.127E-03 0.000E+00

     total cpu time spent up to now is      189.4 secs

     total energy              =   -2246.29330367 Ry
     estimated scf accuracy    <       0.00010305 Ry

     iteration #  8     ecut=    80.00 Ry     beta= 0.70
     Davidson diagonalization with overlap
     ethr =  3.30E-08,  avg # of iterations =  6.0

     negative rho (up, down):  7.898E-03 0.000E+00

     total cpu time spent up to now is      198.5 secs

     total energy              =   -2246.29331253 Ry
     estimated scf accuracy    <       0.00014687 Ry

     iteration #  9     ecut=    80.00 Ry     beta= 0.70
     Davidson diagonalization with overlap
     ethr =  3.30E-08,  avg # of iterations =  2.0

     negative rho (up, down):  3.861E-03 0.000E+00

     total cpu time spent up to now is      206.0 secs

     total energy              =   -2246.29325523 Ry
     estimated scf accuracy    <       0.00005828 Ry

     iteration # 10     ecut=    80.00 Ry     beta= 0.70
     Davidson diagonalization with overlap
     ethr =  1.87E-08,  avg # of iterations =  5.0

     negative rho (up, down):  2.791E-03 0.000E+00

     total cpu time spent up to now is      215.9 secs

     total energy              =   -2246.29325377 Ry
     estimated scf accuracy    <       0.00001435 Ry

     iteration # 11     ecut=    80.00 Ry     beta= 0.70
     Davidson diagonalization with overlap
     ethr =  4.60E-09,  avg # of iterations =  4.0

     negative rho (up, down):  1.090E-03 0.000E+00

     total cpu time spent up to now is      224.7 secs

     total energy              =   -2246.29324348 Ry
     estimated scf accuracy    <       0.00000323 Ry

     iteration # 12     ecut=    80.00 Ry     beta= 0.70
     Davidson diagonalization with overlap
     ethr =  1.04E-09,  avg # of iterations =  4.0

     negative rho (up, down):  6.489E-04 0.000E+00

     total cpu time spent up to now is      233.0 secs

     total energy              =   -2246.29324136 Ry
     estimated scf accuracy    <       0.00000201 Ry

     iteration # 13     ecut=    80.00 Ry     beta= 0.70
     Davidson diagonalization with overlap
     ethr =  6.44E-10,  avg # of iterations =  2.0

     negative rho (up, down):  1.907E-04 0.000E+00

     total cpu time spent up to now is      236.3 secs

     End of self-consistent calculation

          k = 0.0000 0.0000 0.0000 (105382 PWs)   bands (ev):

   -63.1000 -63.0851 -63.0830 -63.0755 -63.0415 -63.0115 -62.9926 -62.9825
   -62.9758 -62.9330 -62.9147 -62.8698 -37.4470 -37.4122 -37.3641 -37.3572
   -37.3370 -37.3229 -37.3011 -37.2967 -37.2708 -37.2599 -37.2542 -37.2480
   -37.2442 -37.2251 -37.2184 -37.2086 -37.1946 -37.1893 -37.1732 -37.1667
   -37.1535 -37.1357 -37.1205 -37.1116 -37.1068 -37.0990 -37.0889 -37.0843
   -37.0715 -37.0615 -37.0345 -37.0231 -37.0071 -36.9563 -36.9459 -36.8788
   -19.3913 -16.1344 -15.3766 -15.3287 -15.1455 -15.0968 -14.9261 -14.7285
   -14.6708 -14.5958 -14.5843 -14.5653 -14.5114 -14.4833 -14.4593 -14.3515
   -14.3052 -14.2895 -14.2432 -14.1824 -14.0756 -14.0465 -14.0147 -13.9486
    -7.9225  -7.8339  -7.7186  -7.5861  -7.5220  -7.4455  -7.3980  -7.3605
    -7.2077  -7.0341  -6.9680  -6.9523  -6.9048  -6.8013  -6.7010  -6.6786
    -6.6259  -6.5668  -6.4903  -6.4335  -6.1872  -6.1464  -6.0795  -6.0353
    -5.9605  -5.9314  -5.9103  -5.8641  -5.8318  -5.7945  -5.7455  -5.6989
    -5.6797  -5.6531  -5.5540  -5.4974  -5.3228  -5.2409  -5.2088  -5.1624
    -5.1552  -5.1240  -5.0211  -4.8653  -4.8518  -4.6969  -4.6465  -4.4683
    -4.4328  -4.3428  -4.2732  -4.2437  -4.0547  -4.0076  -3.9927  -3.9513
    -3.9389  -3.8792  -3.7830  -3.7646  -3.7079  -3.6956  -3.6636  -3.6348
    -3.5811  -3.5680  -3.3759  -3.3025  -3.1594  -3.0911  -3.0436  -3.0058
    -2.9698  -2.9499  -2.8922  -2.8416  -2.8338  -2.7617  -2.5118  -2.4526
    -2.2721  -2.1657  -2.0648  -1.8599  -1.0167  -0.8945  -0.6886  -0.3873
    -0.3417  -0.2502  -0.2010  -0.0924  -0.0259   0.0393   0.0749   0.1045
     0.1373   0.2089   0.2563   0.3214   0.3738   0.3865   0.4183   0.4239
     0.5104   0.5744   0.6045   0.6181   0.6343   0.6512   0.7488   0.8166
     0.8382   0.9455   1.0201

     the Fermi energy is    -1.4383 ev

!    total energy              =   -2246.29323944 Ry
     estimated scf accuracy    <       0.00000094 Ry
     smearing contrib. (-TS)   =      -0.00000076 Ry
     internal energy E=F+TS    =   -2246.29323868 Ry

     The total energy is F=E-TS. E is the sum of the following terms:
     one-electron contribution =  -18426.66400216 Ry
     hartree contribution      =    9200.43178457 Ry
     xc contribution           =    -391.99245030 Ry
     ewald contribution        =    7381.80191928 Ry
     one-center paw contrib.   =      -9.87049008 Ry

     convergence has been achieved in  13 iterations

     negative rho (up, down):  1.907E-04 0.000E+00

     Forces acting on atoms (cartesian axes, Ry/au):

     atom    1 type  1   force =     0.00392494   -0.01558958   -0.00183734
     atom    2 type  2   force =    -0.01255726    0.00859499    0.00292601
     atom    3 type  2   force =    -0.01096935    0.00433541   -0.00972075
     atom    4 type  1   force =     0.00596932    0.00324048   -0.00158827
     atom    5 type  2   force =    -0.00017183   -0.00525500   -0.00398981
     atom    6 type  2   force =     0.00075284    0.00728192    0.00271749
     atom    7 type  1   force =     0.00499128   -0.01062337   -0.00098879
     atom    8 type  2   force =     0.00170900   -0.00305849    0.01296548
     atom    9 type  2   force =     0.01062948    0.00527399    0.00715391
     atom   10 type  1   force =    -0.00347820    0.00524041   -0.01072931
     atom   11 type  2   force =     0.00431867   -0.00215564   -0.00896763
     atom   12 type  2   force =    -0.00310608   -0.00065373    0.00082441
     atom   13 type  1   force =     0.03564114    0.02578146   -0.03318721
     atom   14 type  2   force =     0.00353545   -0.00149363    0.01193655
     atom   15 type  2   force =    -0.00789720    0.00049297   -0.00585882
     atom   16 type  1   force =    -0.00001219    0.00844527    0.00255006
     atom   17 type  2   force =     0.00709867    0.00645291    0.00566708
     atom   18 type  2   force =    -0.00203543   -0.00093861    0.01047596
     atom   19 type  1   force =     0.00687445   -0.01011169   -0.00075202
     atom   20 type  2   force =     0.00365791   -0.00393272   -0.00306901
     atom   21 type  1   force =    -0.00486614    0.00170072    0.00276798
     atom   22 type  2   force =    -0.00845808    0.00099062   -0.01051192
     atom   23 type  2   force =     0.00478898   -0.00214343    0.00020560
     atom   24 type  1   force =    -0.05975597    0.03207413   -0.04988727
     atom   25 type  2   force =     0.08013735   -0.16063726    0.20906889
     atom   26 type  2   force =    -0.00968272    0.00400620   -0.01666076
     atom   27 type  1   force =    -0.00062691   -0.00098134    0.00370326
     atom   28 type  2   force =    -0.00187370    0.00647355   -0.00071333
     atom   29 type  2   force =     0.00192063    0.00296565   -0.00227763
     atom   30 type  1   force =    -0.00608804    0.00209774    0.00234265
     atom   31 type  2   force =     0.00064570    0.00111484    0.01197299
     atom   32 type  2   force =    -0.00740749    0.00481840    0.00606645
     atom   33 type  1   force =     0.00352098   -0.02264531   -0.02062196
     atom   34 type  2   force =     0.00776531   -0.02759520   -0.01640423
     atom   35 type  2   force =    -0.01163819    0.00454265    0.00079180
     atom   36 type  3   force =    -0.03725730    0.13189070   -0.09637051
     The non-local contrib.  to forces
     atom    1 type  1   force =    -0.00260377    0.03243708   -0.00642880
     atom    2 type  2   force =    -0.00392290    0.00374469   -0.27595259
     atom    3 type  2   force =    -0.01523267   -0.00319235    0.26097169
     atom    4 type  1   force =    -0.00030148    0.01224925    0.00716487
     atom    5 type  2   force =     0.00639066   -0.03570200   -0.25833288
     atom    6 type  2   force =    -0.00197471    0.00678731    0.26713733
     atom    7 type  1   force =    -0.01774633    0.00765094   -0.02269259
     atom    8 type  2   force =     0.00491327   -0.00396833   -0.26045576
     atom    9 type  2   force =     0.00409096   -0.01065520    0.27667512
     atom   10 type  1   force =     0.00462238   -0.00271856   -0.00147760
     atom   11 type  2   force =     0.01261348    0.00481651   -0.26520967
     atom   12 type  2   force =    -0.01324611   -0.01808802    0.26291302
     atom   13 type  1   force =    -0.00725766    0.00852639   -0.00011083
     atom   14 type  2   force =     0.01198480   -0.00317269   -0.27322278
     atom   15 type  2   force =    -0.00832826   -0.00462229    0.25500172
     atom   16 type  1   force =     0.00042623    0.03292704   -0.02931043
     atom   17 type  2   force =     0.00209307   -0.03137939   -0.25306941
     atom   18 type  2   force =    -0.00475678    0.00224894    0.27146399
     atom   19 type  1   force =     0.01350511    0.01107360   -0.01596435
     atom   20 type  2   force =     0.00067280   -0.02225052    0.26524298
     atom   21 type  1   force =     0.00220106    0.02335161    0.00572254
     atom   22 type  2   force =     0.00773751   -0.00075472   -0.26280744
     atom   23 type  2   force =     0.00983249   -0.01581085    0.26209051
     atom   24 type  1   force =     0.01328451    0.00021675   -0.00438344
     atom   25 type  2   force =     0.07460992   -0.22996548    0.37374881
     atom   26 type  2   force =    -0.00000090   -0.00762834    0.26585086
     atom   27 type  1   force =    -0.00349220    0.01694314    0.00860835
     atom   28 type  2   force =    -0.00530812   -0.02700075   -0.27715075
     atom   29 type  2   force =     0.00633041    0.00375721    0.26473881
     atom   30 type  1   force =    -0.00151508    0.02578189    0.00918836
     atom   31 type  2   force =    -0.00802424   -0.00192690   -0.25847416
     atom   32 type  2   force =    -0.00141201   -0.01187919    0.27456923
     atom   33 type  1   force =    -0.00610377    0.01131059    0.02559139
     atom   34 type  2   force =    -0.01380944   -0.03096448   -0.28764241
     atom   35 type  2   force =    -0.00433214   -0.00962204    0.26266506
     atom   36 type  3   force =    -0.25694943    0.92564939   -1.21602988
     The ionic contribution  to forces
     atom    1 type  1   force =     0.19186202    1.08138019    4.55082152
     atom    2 type  2   force =    -1.36186542    0.46692088   38.98192971
     atom    3 type  2   force =    -0.33047415    0.16520537  -36.96361326
     atom    4 type  1   force =    -0.20592856    0.85724975   -0.33503554
     atom    5 type  2   force =    -0.92105953    1.75879003   38.45654272
     atom    6 type  2   force =     0.30941762   -0.47112980  -38.44289157
     atom    7 type  1   force =    -2.58870988   -2.98156481    1.49018092
     atom    8 type  2   force =    -1.11804193   -0.12155696   37.29511251
     atom    9 type  2   force =     0.29099487   -0.14977679  -38.47583578
     atom   10 type  1   force =    -1.88142837   -0.85203399    3.64451918
     atom   11 type  2   force =    -0.39537315   -1.95965626   38.75919135
     atom   12 type  2   force =     0.35419915    0.51628183  -38.40856555
     atom   13 type  1   force =     2.29941770    2.69347784   -0.21097383
     atom   14 type  2   force =     1.20597977    0.38453867   37.90847480
     atom   15 type  2   force =     0.38006939    0.09999750  -37.61201588
     atom   16 type  1   force =     0.31450012    4.07177813   -0.45188540
     atom   17 type  2   force =     1.12593223    2.24349901   37.61104402
     atom   18 type  2   force =    -0.06397318   -0.43682528  -39.13612628
     atom   19 type  1   force =     2.98057370   -3.25132972   -0.82108200
     atom   20 type  2   force =     0.27509292   -0.26315079  -39.04123208
     atom   21 type  1   force =     1.17548837   -0.60354111   -0.68776120
     atom   22 type  2   force =     1.46702492   -3.33311255   37.04127630
     atom   23 type  2   force =     0.20504791    0.34254489  -39.13789635
     atom   24 type  1   force =    -2.43774102    2.75354884    3.16017060
     atom   25 type  2   force =    -0.20820330    2.78094503   32.53286489
     atom   26 type  2   force =    -0.28514990    0.41782303  -38.54079666
     atom   27 type  1   force =    -0.02711273    1.11796378   -3.31440025
     atom   28 type  2   force =    -0.28586020    1.67824875   37.91638756
     atom   29 type  2   force =    -0.32693745   -0.22853357  -37.90898256
     atom   30 type  1   force =    -0.62476243   -1.88912986   -1.36152370
     atom   31 type  2   force =     1.18172055   -0.35885287   37.05780940
     atom   32 type  2   force =    -0.47486671   -0.16034087  -39.12790687
     atom   33 type  1   force =     0.42125443   -2.50532162   -3.77025965
     atom   34 type  2   force =    -0.96230816   -2.50495129   38.22990567
     atom   35 type  2   force =    -0.54714193    0.18495314  -38.64093911
     atom   36 type  3   force =     0.86836232   -1.54433853   47.75349237
     The local contribution  to forces
     atom    1 type  1   force =    -0.18536829   -1.12946895   -4.54736957
     atom    2 type  2   force =     1.35317841   -0.46163522  -38.72463280
     atom    3 type  2   force =     0.33401241   -0.15775473   36.71305415
     atom    4 type  1   force =     0.21224586   -0.86629968    0.32521555
     atom    5 type  2   force =     0.91513494   -1.73032446  -38.22310003
     atom    6 type  2   force =    -0.30694900    0.47253441   38.19900943
     atom    7 type  1   force =     2.61144526    2.96344564   -1.46948696
     atom    8 type  2   force =     1.11498145    0.12189502  -37.04266170
     atom    9 type  2   force =    -0.28450187    0.16513578   38.22690727
     atom   10 type  1   force =     1.87325201    0.85995405   -3.65474900
     atom   11 type  2   force =     0.38762181    1.95322921  -38.52413675
     atom   12 type  2   force =    -0.34516523   -0.50020215   38.16689290
     atom   13 type  1   force =    -2.25602489   -2.67608786    0.17639150
     atom   14 type  2   force =    -1.21349830   -0.38246633  -37.64508020
     atom   15 type  2   force =    -0.38012461   -0.09520944   37.37102887
     atom   16 type  1   force =    -0.31496716   -4.09630824    0.48268622
     atom   17 type  2   force =    -1.12095708   -2.20731034  -37.37305279
     atom   18 type  2   force =     0.06660265    0.43437028   38.89562278
     atom   19 type  1   force =    -2.98722479    3.23024629    0.83530052
     atom   20 type  2   force =    -0.27218679    0.28058706   38.79364720
     atom   21 type  1   force =    -1.18247418    0.58184881    0.68374218
     atom   22 type  2   force =    -1.48209999    3.33443822  -36.81048549
     atom   23 type  2   force =    -0.20947585   -0.33014357   38.89624170
     atom   24 type  1   force =     2.36414859   -2.72147731   -3.20719046
     atom   25 type  2   force =     0.21743364   -2.72418420  -32.68592326
     atom   26 type  2   force =     0.27572511   -0.40677084   38.27866055
     atom   27 type  1   force =     0.02995368   -1.13582460    3.30839992
     atom   28 type  2   force =     0.28897660   -1.64676242  -37.66141722
     atom   29 type  2   force =     0.32301939    0.22841142   37.66213288
     atom   30 type  1   force =     0.62020474    1.86550120    1.35367455
     atom   31 type  2   force =    -1.17348353    0.36157387  -36.80834762
     atom   32 type  2   force =     0.46908872    0.17636302   38.88000388
     atom   33 type  1   force =    -0.41161592    2.47101177    3.72287155
     atom   34 type  2   force =     0.98238402    2.50689162  -37.98107829
     atom   35 type  2   force =     0.53985480   -0.17163972   38.39941825
     atom   36 type  3   force =    -0.65145803    0.76081805  -46.64671767
     The core correction contribution to forces
     atom    1 type  1   force =     0.00000000    0.00000000    0.00000000
     atom    2 type  2   force =    -0.00003264   -0.00049658    0.02131599
     atom    3 type  2   force =     0.00071429    0.00008195   -0.02057904
     atom    4 type  1   force =     0.00000000    0.00000000    0.00000000
     atom    5 type  2   force =    -0.00063507    0.00196112    0.02063871
     atom    6 type  2   force =     0.00026137   -0.00095185   -0.02098976
     atom    7 type  1   force =     0.00000000    0.00000000    0.00000000
     atom    8 type  2   force =    -0.00012996    0.00061005    0.02072275
     atom    9 type  2   force =     0.00005488    0.00059083   -0.02109662
     atom   10 type  1   force =     0.00000000    0.00000000    0.00000000
     atom   11 type  2   force =    -0.00054972   -0.00052549    0.02091894
     atom   12 type  2   force =     0.00108868    0.00136792   -0.02086053
     atom   13 type  1   force =     0.00000000    0.00000000    0.00000000
     atom   14 type  2   force =    -0.00083658   -0.00045884    0.02149272
     atom   15 type  2   force =     0.00051733    0.00031773   -0.02031174
     atom   16 type  1   force =     0.00000000    0.00000000    0.00000000
     atom   17 type  2   force =     0.00005567    0.00170812    0.02048744
     atom   18 type  2   force =     0.00009628   -0.00074845   -0.02097199
     atom   19 type  1   force =     0.00000000    0.00000000    0.00000000
     atom   20 type  2   force =     0.00007380    0.00092060   -0.02123761
     atom   21 type  1   force =     0.00000000    0.00000000    0.00000000
     atom   22 type  2   force =    -0.00109321    0.00040595    0.02133846
     atom   23 type  2   force =    -0.00055816    0.00123228   -0.02071898
     atom   24 type  1   force =     0.00000000    0.00000000    0.00000000
     atom   25 type  2   force =    -0.00365873    0.01237242   -0.01158232
     atom   26 type  2   force =    -0.00026861    0.00061772   -0.02094446
     atom   27 type  1   force =     0.00000000    0.00000000    0.00000000
     atom   28 type  2   force =     0.00028353    0.00204574    0.02119242
     atom   29 type  2   force =    -0.00050171   -0.00068808   -0.02062983
     atom   30 type  1   force =     0.00000000    0.00000000    0.00000000
     atom   31 type  2   force =     0.00043580    0.00036534    0.02072904
     atom   32 type  2   force =    -0.00022441    0.00068902   -0.02107853
     atom   33 type  1   force =     0.00000000    0.00000000    0.00000000
     atom   34 type  2   force =     0.00146496    0.00139409    0.02222310
     atom   35 type  2   force =    -0.00007095    0.00081727   -0.02085785
     atom   36 type  3   force =     0.00293228   -0.01069239    0.01349257
     The Hubbard contrib.    to forces
     atom    1 type  1   force =     0.00000000    0.00000000    0.00000000
     atom    2 type  2   force =     0.00000000    0.00000000    0.00000000
     atom    3 type  2   force =     0.00000000    0.00000000    0.00000000
     atom    4 type  1   force =     0.00000000    0.00000000    0.00000000
     atom    5 type  2   force =     0.00000000    0.00000000    0.00000000
     atom    6 type  2   force =     0.00000000    0.00000000    0.00000000
     atom    7 type  1   force =     0.00000000    0.00000000    0.00000000
     atom    8 type  2   force =     0.00000000    0.00000000    0.00000000
     atom    9 type  2   force =     0.00000000    0.00000000    0.00000000
     atom   10 type  1   force =     0.00000000    0.00000000    0.00000000
     atom   11 type  2   force =     0.00000000    0.00000000    0.00000000
     atom   12 type  2   force =     0.00000000    0.00000000    0.00000000
     atom   13 type  1   force =     0.00000000    0.00000000    0.00000000
     atom   14 type  2   force =     0.00000000    0.00000000    0.00000000
     atom   15 type  2   force =     0.00000000    0.00000000    0.00000000
     atom   16 type  1   force =     0.00000000    0.00000000    0.00000000
     atom   17 type  2   force =     0.00000000    0.00000000    0.00000000
     atom   18 type  2   force =     0.00000000    0.00000000    0.00000000
     atom   19 type  1   force =     0.00000000    0.00000000    0.00000000
     atom   20 type  2   force =     0.00000000    0.00000000    0.00000000
     atom   21 type  1   force =     0.00000000    0.00000000    0.00000000
     atom   22 type  2   force =     0.00000000    0.00000000    0.00000000
     atom   23 type  2   force =     0.00000000    0.00000000    0.00000000
     atom   24 type  1   force =     0.00000000    0.00000000    0.00000000
     atom   25 type  2   force =     0.00000000    0.00000000    0.00000000
     atom   26 type  2   force =     0.00000000    0.00000000    0.00000000
     atom   27 type  1   force =     0.00000000    0.00000000    0.00000000
     atom   28 type  2   force =     0.00000000    0.00000000    0.00000000
     atom   29 type  2   force =     0.00000000    0.00000000    0.00000000
     atom   30 type  1   force =     0.00000000    0.00000000    0.00000000
     atom   31 type  2   force =     0.00000000    0.00000000    0.00000000
     atom   32 type  2   force =     0.00000000    0.00000000    0.00000000
     atom   33 type  1   force =     0.00000000    0.00000000    0.00000000
     atom   34 type  2   force =     0.00000000    0.00000000    0.00000000
     atom   35 type  2   force =     0.00000000    0.00000000    0.00000000
     atom   36 type  3   force =     0.00000000    0.00000000    0.00000000
     The SCF correction term to forces
     atom    1 type  1   force =     0.00003432    0.00006015    0.00112205
     atom    2 type  2   force =     0.00008461    0.00005926    0.00024823
     atom    3 type  2   force =     0.00001010   -0.00000677    0.00042825
     atom    4 type  1   force =    -0.00004717    0.00003922    0.00104939
     atom    5 type  2   force =    -0.00000349    0.00001836    0.00024423
     atom    6 type  2   force =    -0.00000310    0.00003991    0.00043460
     atom    7 type  1   force =     0.00000157   -0.00015709    0.00099238
     atom    8 type  2   force =    -0.00001448   -0.00004023    0.00023023
     atom    9 type  2   force =    -0.00001003   -0.00002257    0.00048647
     atom   10 type  1   force =     0.00007512    0.00003697    0.00096064
     atom   11 type  2   force =     0.00000559   -0.00002156    0.00025104
     atom   12 type  2   force =     0.00001676   -0.00001526    0.00042711
     atom   13 type  1   force =    -0.00049467   -0.00013686    0.00148850
     atom   14 type  2   force =    -0.00009491    0.00006361    0.00025455
     atom   15 type  2   force =    -0.00003172    0.00000753    0.00042075
     atom   16 type  1   force =     0.00002796    0.00004640    0.00104222
     atom   17 type  2   force =    -0.00002589   -0.00006644    0.00024037
     atom   18 type  2   force =    -0.00000506    0.00001395    0.00047001
     atom   19 type  1   force =     0.00001977   -0.00010381    0.00097635
     atom   20 type  2   force =     0.00000451   -0.00004101    0.00049304
     atom   21 type  1   force =    -0.00008206    0.00003947    0.00104701
     atom   22 type  2   force =    -0.00002798    0.00001177    0.00014879
     atom   23 type  2   force =    -0.00005807    0.00003187    0.00047125
     atom   24 type  1   force =     0.00055129   -0.00021609    0.00149858
     atom   25 type  2   force =    -0.00004484    0.00019301   -0.00005668
     atom   26 type  2   force =     0.00001091   -0.00003732    0.00055150
     atom   27 type  1   force =     0.00002367   -0.00006560    0.00107779
     atom   28 type  2   force =     0.00003383   -0.00005971    0.00025721
     atom   29 type  2   force =     0.00000933    0.00001672    0.00044561
     atom   30 type  1   force =    -0.00001594   -0.00005744    0.00098597
     atom   31 type  2   force =    -0.00000355   -0.00004654    0.00023887
     atom   32 type  2   force =     0.00000626   -0.00001553    0.00046128
     atom   33 type  1   force =    -0.00001443    0.00035201    0.00115730
     atom   34 type  2   force =     0.00003327    0.00003291    0.00017024
     atom   35 type  2   force =     0.00005136    0.00003204    0.00048799
     atom   36 type  3   force =    -0.00014510    0.00045223   -0.00062536

     Total force =     0.346086     Total SCF correction =     0.004473
     Energy error            =      2.7E-03 Ry
     Gradient error          =      2.1E-01 Ry/Bohr

     number of scf cycles    =   2
     number of bfgs steps    =   1

     energy             old  =   -2246.2905605235 Ry
     energy             new  =   -2246.2932394448 Ry

     CASE: energy            _new > energy            _old

     new trust radius        =       0.2172908757 bohr
     new conv_thr            =       0.0000010000 Ry


ATOMIC_POSITIONS (angstrom)
Mo            6.5782872226        1.7804155648        2.8270235550
S             8.1720888663        0.8143992983        4.4341499003
S             8.1905838257        0.8129125942        1.2759997337
Mo            8.0962748650        4.4956942616        2.7175442806
S             6.4996054998        3.7210888937        4.3450163569
S             6.5536023166        3.5148817172        1.1211804561
Mo            6.4917585173        7.2140815120        2.6699056804
S             8.0821192031        6.3428661142        4.2470738773
S             8.0842482322        6.3065561229        1.0871839684
Mo            8.1583109750        9.9039386645        2.8358606181
S             6.4964395799        8.9425004789        4.3812032086
S             6.6177060132        9.0490075074        1.1413316506
Mo            3.4251486545        1.7488911941        2.7782625240
S             4.9774008415        0.8172053882        4.3534276046
S             5.0542635155        0.8462909418        1.2239636793
Mo            4.9800134517        4.5163360198        2.6339286915
S             3.4297978658        3.6731516308        4.2802091131
S             3.4369558699        3.5475706062        1.0610927543
Mo            3.4558947911        7.2135811760        2.6290334245
S             4.9839881332        6.3259596558        1.0376743322
Mo            5.0104194892        9.9030317207        2.7434262205
S             3.4718131463        8.9405369095        4.3228589331
S             3.4090052925        9.0651842829        1.0988846694
Mo            0.2889461976        1.7473667273        2.8519295735
S             1.8450928766        0.8390277023        4.3007716786
S             1.8576411204        0.8540202614        1.2088285419
Mo            1.8606903443        4.4955213701        2.6627193221
S             0.2717820456        3.6561467455        4.3358876559
S             0.2321309500        3.5277794964        1.1706988368
Mo            0.2692474140        7.2198096406        2.7000255199
S             1.9025189628        6.3125639969        4.2271332220
S             1.8599623875        6.3119666233        1.0466808303
Mo            1.8443636573        9.9366671794        2.7530033956
S             0.2957909315        9.0773135351        4.4109018099
S             0.2742029990        9.0452120176        1.1546665004
O             2.1157531795       10.8903688589        5.5852794173



     Writing config-only to output data dir ./MoS2-V-O.save/
     NEW-OLD atomic charge density approx. for the potential

     negative rho (up, down):  1.728E-04 0.000E+00

     total cpu time spent up to now is      243.6 secs

     Self-consistent Calculation

     iteration #  1     ecut=    80.00 Ry     beta= 0.70
     Davidson diagonalization with overlap
     ethr =  1.00E-06,  avg # of iterations =  9.0

     negative rho (up, down):  2.775E-05 0.000E+00

     total cpu time spent up to now is      256.7 secs

     total energy              =   -2246.34384368 Ry
     estimated scf accuracy    <       0.02618329 Ry

     iteration #  2     ecut=    80.00 Ry     beta= 0.70
     Davidson diagonalization with overlap
     ethr =  8.39E-06,  avg # of iterations =  5.0

     negative rho (up, down):  2.537E-05 0.000E+00

     total cpu time spent up to now is      267.2 secs

     total energy              =   -2246.34933752 Ry
     estimated scf accuracy    <       0.01761001 Ry

     iteration #  3     ecut=    80.00 Ry     beta= 0.70
     Davidson diagonalization with overlap
     ethr =  5.64E-06,  avg # of iterations =  2.0

     negative rho (up, down):  1.200E-05 0.000E+00

     total cpu time spent up to now is      280.2 secs

     total energy              =   -2246.34923737 Ry
     estimated scf accuracy    <       0.00391749 Ry

     iteration #  4     ecut=    80.00 Ry     beta= 0.70
     Davidson diagonalization with overlap
     ethr =  1.26E-06,  avg # of iterations =  5.0

     negative rho (up, down):  1.115E-05 0.000E+00

     total cpu time spent up to now is      290.7 secs

     total energy              =   -2246.34969670 Ry
     estimated scf accuracy    <       0.00063446 Ry

     iteration #  5     ecut=    80.00 Ry     beta= 0.70
     Davidson diagonalization with overlap
     ethr =  2.03E-07,  avg # of iterations =  4.0

     negative rho (up, down):  9.444E-06 0.000E+00

     total cpu time spent up to now is      300.2 secs

     total energy              =   -2246.34978441 Ry
     estimated scf accuracy    <       0.00020495 Ry

     iteration #  6     ecut=    80.00 Ry     beta= 0.70
     Davidson diagonalization with overlap
     ethr =  6.57E-08,  avg # of iterations =  2.0

     negative rho (up, down):  6.268E-06 0.000E+00

     total cpu time spent up to now is      309.1 secs

     total energy              =   -2246.34978813 Ry
     estimated scf accuracy    <       0.00008488 Ry

     iteration #  7     ecut=    80.00 Ry     beta= 0.70
     Davidson diagonalization with overlap
     ethr =  2.72E-08,  avg # of iterations =  4.0

     negative rho (up, down):  2.460E-06 0.000E+00

     total cpu time spent up to now is      318.9 secs

     total energy              =   -2246.34980636 Ry
     estimated scf accuracy    <       0.00001613 Ry

     iteration #  8     ecut=    80.00 Ry     beta= 0.70
     Davidson diagonalization with overlap
     ethr =  5.17E-09,  avg # of iterations =  5.0

     negative rho (up, down):  2.100E-06 0.000E+00

     total cpu time spent up to now is      327.6 secs

     total energy              =   -2246.34981420 Ry
     estimated scf accuracy    <       0.00001065 Ry

     iteration #  9     ecut=    80.00 Ry     beta= 0.70
     Davidson diagonalization with overlap
     ethr =  3.41E-09,  avg # of iterations =  2.0

     negative rho (up, down):  1.241E-05 0.000E+00

     total cpu time spent up to now is      336.6 secs

     total energy              =   -2246.34982114 Ry
     estimated scf accuracy    <       0.00000353 Ry

     iteration # 10     ecut=    80.00 Ry     beta= 0.70
     Davidson diagonalization with overlap
     ethr =  1.13E-09,  avg # of iterations =  5.0

     negative rho (up, down):  4.879E-05 0.000E+00

     total cpu time spent up to now is      347.6 secs

     total energy              =   -2246.34982351 Ry
     estimated scf accuracy    <       0.00000242 Ry

     iteration # 11     ecut=    80.00 Ry     beta= 0.70
     Davidson diagonalization with overlap
     ethr =  7.75E-10,  avg # of iterations =  3.0

     negative rho (up, down):  1.958E-04 0.000E+00

     total cpu time spent up to now is      351.1 secs

     End of self-consistent calculation

          k = 0.0000 0.0000 0.0000 (105382 PWs)   bands (ev):

   -63.0476 -63.0315 -63.0264 -63.0187 -62.9890 -62.9408 -62.9342 -62.9305
   -62.9196 -62.8893 -62.8727 -62.7805 -37.3801 -37.3333 -37.3101 -37.3008
   -37.2749 -37.2625 -37.2469 -37.2316 -37.2145 -37.2033 -37.1973 -37.1901
   -37.1839 -37.1714 -37.1519 -37.1387 -37.1363 -37.1316 -37.1187 -37.1108
   -37.0996 -37.0807 -37.0693 -37.0546 -37.0453 -37.0428 -37.0358 -37.0277
   -37.0251 -36.9927 -36.9675 -36.9603 -36.9427 -36.8957 -36.8710 -36.8255
   -21.5773 -16.0635 -15.3053 -15.2472 -15.0604 -15.0272 -14.8778 -14.6232
   -14.6090 -14.5325 -14.5240 -14.4959 -14.4467 -14.4089 -14.3644 -14.2644
   -14.2437 -14.2327 -14.1388 -14.0750 -14.0069 -13.9802 -13.9446 -13.9095
    -7.9142  -7.9025  -7.8251  -7.5516  -7.4866  -7.4012  -7.3292  -7.2966
    -7.2777  -7.0398  -6.9406  -6.9181  -6.8699  -6.8030  -6.7156  -6.6715
    -6.5975  -6.5617  -6.4394  -6.4072  -6.1573  -6.1296  -6.0345  -5.9726
    -5.9126  -5.8784  -5.8462  -5.8120  -5.7717  -5.7406  -5.6956  -5.6607
    -5.6412  -5.6219  -5.5040  -5.4772  -5.2984  -5.2244  -5.1690  -5.1237
    -5.1127  -5.0771  -4.9633  -4.8908  -4.8057  -4.6672  -4.5835  -4.4310
    -4.3699  -4.2940  -4.2529  -4.2146  -4.1239  -3.9869  -3.9774  -3.9134
    -3.9013  -3.8306  -3.7268  -3.7161  -3.6623  -3.6437  -3.6138  -3.5826
    -3.5258  -3.5123  -3.3383  -3.2805  -3.1782  -3.1502  -3.0905  -2.9452
    -2.9230  -2.8817  -2.8539  -2.8013  -2.7694  -2.7220  -2.6570  -2.4055
    -2.3232  -2.1147  -2.0380  -1.8926  -0.9609  -0.8388  -0.5664  -0.3206
    -0.2704  -0.1995  -0.1402  -0.0351   0.0314   0.0863   0.1257   0.1690
     0.2075   0.2634   0.3073   0.3781   0.4256   0.4421   0.4826   0.4861
     0.5846   0.6320   0.6546   0.6767   0.6863   0.7043   0.8086   0.8574
     0.8855   1.0158   1.0879

     the Fermi energy is    -1.4268 ev

!    total energy              =   -2246.34982495 Ry
     estimated scf accuracy    <       0.00000030 Ry
     smearing contrib. (-TS)   =      -0.00000009 Ry
     internal energy E=F+TS    =   -2246.34982486 Ry

     The total energy is F=E-TS. E is the sum of the following terms:
     one-electron contribution =  -18435.47656899 Ry
     hartree contribution      =    9205.30791791 Ry
     xc contribution           =    -392.09396500 Ry
     ewald contribution        =    7385.77490197 Ry
     one-center paw contrib.   =      -9.86211074 Ry

     convergence has been achieved in  11 iterations

     negative rho (up, down):  1.958E-04 0.000E+00

     Forces acting on atoms (cartesian axes, Ry/au):

     atom    1 type  1   force =     0.00906054   -0.02169112    0.00544888
     atom    2 type  2   force =    -0.01511540    0.01313294    0.00056478
     atom    3 type  2   force =    -0.01038950    0.00534182   -0.00836094
     atom    4 type  1   force =     0.00511775    0.00273511   -0.00130908
     atom    5 type  2   force =    -0.00068560   -0.00516273   -0.00511268
     atom    6 type  2   force =     0.00083498    0.00943984    0.00123167
     atom    7 type  1   force =     0.00582030   -0.01342519   -0.00414538
     atom    8 type  2   force =     0.00160558   -0.00344922    0.01509256
     atom    9 type  2   force =     0.01155628    0.00611188    0.00980880
     atom   10 type  1   force =    -0.00583291    0.00611577   -0.01942235
     atom   11 type  2   force =     0.00456387   -0.00186327   -0.00811767
     atom   12 type  2   force =    -0.00197645    0.00020550    0.00313534
     atom   13 type  1   force =     0.02179458    0.01541343   -0.01172938
     atom   14 type  2   force =     0.00631108   -0.00013932    0.01112869
     atom   15 type  2   force =    -0.01069404    0.00042908   -0.00797025
     atom   16 type  1   force =     0.00048862    0.01009905    0.00328387
     atom   17 type  2   force =     0.00713646    0.00603595    0.00372059
     atom   18 type  2   force =    -0.00272824   -0.00183568    0.01045383
     atom   19 type  1   force =     0.00725003   -0.01023516   -0.00313110
     atom   20 type  2   force =     0.00322917   -0.00379823   -0.00076886
     atom   21 type  1   force =    -0.00607037    0.00367237    0.00150815
     atom   22 type  2   force =    -0.00260574   -0.00587278   -0.01109923
     atom   23 type  2   force =     0.00320227   -0.00062820    0.00559595
     atom   24 type  1   force =    -0.03954582    0.01443380   -0.01828113
     atom   25 type  2   force =     0.06341298   -0.09954700    0.06881297
     atom   26 type  2   force =    -0.01073683    0.00130114   -0.00854063
     atom   27 type  1   force =    -0.00032274   -0.00086977    0.00656507
     atom   28 type  2   force =    -0.00164005    0.00635168   -0.00354796
     atom   29 type  2   force =     0.00259028    0.00240211   -0.00351111
     atom   30 type  1   force =    -0.00660642    0.00710779   -0.00166839
     atom   31 type  2   force =     0.00085146    0.00014445    0.01475100
     atom   32 type  2   force =    -0.00801254    0.00539745    0.00694077
     atom   33 type  1   force =     0.00201244   -0.01821611   -0.04713386
     atom   34 type  2   force =     0.00365215   -0.03782040   -0.01444088
     atom   35 type  2   force =    -0.01036231    0.00555745    0.00855581
     atom   36 type  3   force =    -0.02716584    0.10312557    0.00169215
     The non-local contrib.  to forces
     atom    1 type  1   force =    -0.00277554    0.03677091   -0.00668272
     atom    2 type  2   force =    -0.00379172    0.00738650   -0.27636051
     atom    3 type  2   force =    -0.01572238   -0.00047559    0.26403561
     atom    4 type  1   force =    -0.00060792    0.01065415    0.00698719
     atom    5 type  2   force =     0.00594582   -0.03518471   -0.25724960
     atom    6 type  2   force =    -0.00181129    0.00804665    0.26576027
     atom    7 type  1   force =    -0.01834528    0.00773297   -0.02226082
[...]
     atom   28 type  2   force =    -0.00026154   -0.01234312   -0.27769389
     atom   29 type  2   force =     0.00056969   -0.00763617    0.26573315
     atom   30 type  1   force =    -0.00477464    0.01792352    0.00436405
     atom   31 type  2   force =    -0.00706627    0.00063701   -0.26828748
     atom   32 type  2   force =     0.00635416   -0.01303010    0.27186238
     atom   33 type  1   force =    -0.00153528    0.01735076    0.01721047
     atom   34 type  2   force =     0.00280003   -0.00621721   -0.27861681
     atom   35 type  2   force =     0.00034467   -0.01391248    0.26531996
     atom   36 type  3   force =     0.00475776   -0.01762011   -2.31964248
     The ionic contribution  to forces
     atom    1 type  1   force =    -0.19614665    1.07838093    1.33380932
     atom    2 type  2   force =    -1.18560638   -0.03765628   38.15714041
     atom    3 type  2   force =     0.00666793   -0.06203455  -38.31703962
     atom    4 type  1   force =    -0.55601438    0.88965362   -0.09656697
     atom    5 type  2   force =    -0.82314936    1.44002866   38.06838066
     atom    6 type  2   force =     0.18139253   -0.22815928  -38.32652917
     atom    7 type  1   force =    -2.64623124   -2.02768513    1.68705076
     atom    8 type  2   force =    -1.30480354    0.18408097   38.09456273
     atom    9 type  2   force =     0.29423516   -0.04491102  -38.34450647
     atom   10 type  1   force =    -1.02645205   -0.99750355    1.14750654
     atom   11 type  2   force =    -0.45815911   -1.70175507   38.15215099
     atom   12 type  2   force =     0.20319658    0.18939365  -38.44926494
     atom   13 type  1   force =     1.14311611    1.25622283   -1.35700858
     atom   14 type  2   force =     0.98552961   -0.16670194   37.84224120
     atom   15 type  2   force =     0.04639185   -0.08377216  -38.35494844
     atom   16 type  1   force =     0.40308533    3.86348659    1.24753666
     atom   17 type  2   force =     1.33914759    2.13423286   37.82405581
     atom   18 type  2   force =    -0.16831317   -0.17244113  -38.72760930
     atom   19 type  1   force =     2.81251166   -2.35330584    1.62026685
     atom   20 type  2   force =     0.04798901   -0.06150047  -39.09172578
     atom   21 type  1   force =     0.53690790   -0.82832666   -0.88701333
     atom   22 type  2   force =     1.01378658   -2.30428275   37.89945284
     atom   23 type  2   force =    -0.12995191    0.20662623  -38.74604502
     atom   24 type  1   force =    -0.95628469    0.97049325   -1.62780454
     atom   25 type  2   force =     0.22774848   -0.08773798   28.70234807
     atom   26 type  2   force =    -0.04990208   -0.06074454  -38.12290605
     atom   27 type  1   force =     0.14906146    1.26821330   -0.57679070
     atom   28 type  2   force =    -0.52171284    1.54254681   37.65455398
     atom   29 type  2   force =    -0.00998472    0.09034279  -38.35671469
     atom   30 type  1   force =    -0.17198068   -1.17970173    1.01602835
     atom   31 type  2   force =     1.17273106    0.19592166   37.94110273
     atom   32 type  2   force =    -0.34559529   -0.02955602  -38.29770646
     atom   33 type  1   force =     0.47890557   -1.60779001   -1.10425592
     atom   34 type  2   force =    -0.57932396   -1.43828710   38.23925300
     atom   35 type  2   force =    -0.07165479    0.04353583  -38.33758427
     atom   36 type  3   force =     0.15886244    0.12069323   50.49457935
     The local contribution  to forces
     atom    1 type  1   force =     0.19677380   -1.10259593   -1.33669403
     atom    2 type  2   force =     1.18602254    0.04373238  -37.90576386
     atom    3 type  2   force =    -0.00318876    0.07209932   38.07356571
     atom    4 type  1   force =     0.55236435   -0.89670422    0.09088720
     atom    5 type  2   force =     0.81883070   -1.41667842  -37.83038849
     atom    6 type  2   force =    -0.18140034    0.23379999   38.07881415
     atom    7 type  1   force =     2.66059378    2.02409042   -1.66144601
     atom    8 type  2   force =     1.29580671   -0.18449107  -37.84776258
     atom    9 type  2   force =    -0.28797673    0.05637781   38.09671431
     atom   10 type  1   force =     1.02372723    0.99158181   -1.14947878
     atom   11 type  2   force =     0.45324005    1.70090329  -37.91061131
     atom   12 type  2   force =    -0.19538104   -0.17672910   38.20429909
     atom   13 type  1   force =    -1.13575239   -1.26832453    1.34535709
     atom   14 type  2   force =    -0.98564869    0.17043533  -37.58913969
     atom   15 type  2   force =    -0.04705657    0.09417026   38.11573292
     atom   16 type  1   force =    -0.40310041   -3.89818443   -1.21239443
     atom   17 type  2   force =    -1.33455434   -2.11382888  -37.58637463
     atom   18 type  2   force =     0.16794998    0.17451154   38.48286536
     atom   19 type  1   force =    -2.83072155    2.35290353   -1.59365161
     atom   20 type  2   force =    -0.04830261    0.07346796   38.85022373
     atom   21 type  1   force =    -0.53641494    0.79945458    0.88378607
     atom   22 type  2   force =    -1.00707240    2.30322265  -37.65781789
     atom   23 type  2   force =     0.12252668   -0.19370002   38.50300153
     atom   24 type  1   force =     0.94961394   -0.97815532    1.60861629
     atom   25 type  2   force =    -0.22184775    0.08306715  -28.98914106
     atom   26 type  2   force =     0.04748316    0.07139334   37.86533055
     atom   27 type  1   force =    -0.14460147   -1.27118546    0.57429763
     atom   28 type  2   force =     0.52152502   -1.52979240  -37.39823601
     atom   29 type  2   force =     0.01011374   -0.08281131   38.11006646
     atom   30 type  1   force =     0.17663904    1.16106626   -1.02029483
     atom   31 type  2   force =    -1.16608171   -0.19591480  -37.69434949
     atom   32 type  2   force =     0.33946390    0.04229671   38.04772607
     atom   33 type  1   force =    -0.47720093    1.58950017    1.08781663
     atom   34 type  2   force =     0.57701481    1.44425241  -37.98205014
     atom   35 type  2   force =     0.07129711   -0.03086878   38.09353225
     atom   36 type  3   force =    -0.16414963   -0.10348076  -48.20076245
     The core correction contribution to forces
     atom    1 type  1   force =     0.00000000    0.00000000    0.00000000
     atom    2 type  2   force =     0.00009055    0.00015700    0.02130732
     atom    3 type  2   force =     0.00022296    0.00042772   -0.02074576
     atom    4 type  1   force =     0.00000000    0.00000000    0.00000000
     atom    5 type  2   force =    -0.00040978    0.00104097    0.02057908
     atom    6 type  2   force =     0.00015119   -0.00018735   -0.02089686
     atom    7 type  1   force =     0.00000000    0.00000000    0.00000000
     atom    8 type  2   force =    -0.00049306    0.00030684    0.02099973
     atom    9 type  2   force =     0.00067714    0.00061338   -0.02101816
     atom   10 type  1   force =     0.00000000    0.00000000    0.00000000
     atom   11 type  2   force =    -0.00007525   -0.00026665    0.02073992
     atom   12 type  2   force =     0.00069915    0.00091562   -0.02090332
     atom   13 type  1   force =     0.00000000    0.00000000    0.00000000
     atom   14 type  2   force =    -0.00004845   -0.00022137    0.02137355
     atom   15 type  2   force =    -0.00005772    0.00048448   -0.02060723
     atom   16 type  1   force =     0.00000000    0.00000000    0.00000000
     atom   17 type  2   force =     0.00036146    0.00094036    0.02069642
     atom   18 type  2   force =    -0.00018258   -0.00025059   -0.02083401
     atom   19 type  1   force =     0.00000000    0.00000000    0.00000000
     atom   20 type  2   force =    -0.00008842    0.00053094   -0.02122276
     atom   21 type  1   force =     0.00000000    0.00000000    0.00000000
     atom   22 type  2   force =     0.00024076   -0.00022559    0.02093152
     atom   23 type  2   force =    -0.00066110    0.00098672   -0.02086305
     atom   24 type  1   force =     0.00000000    0.00000000    0.00000000
     atom   25 type  2   force =     0.00024774   -0.00030857   -0.00981855
     atom   26 type  2   force =    -0.00013525    0.00050549   -0.02133425
     atom   27 type  1   force =     0.00000000    0.00000000    0.00000000
     atom   28 type  2   force =     0.00004597    0.00081262    0.02146497
     atom   29 type  2   force =     0.00001563    0.00026620   -0.02078317
     atom   30 type  1   force =     0.00000000    0.00000000    0.00000000
     atom   31 type  2   force =     0.00035276    0.00026955    0.02098036
     atom   32 type  2   force =    -0.00062798    0.00066904   -0.02104208
     atom   33 type  1   force =     0.00000000    0.00000000    0.00000000
     atom   34 type  2   force =    -0.00016237    0.00027253    0.02160425
     atom   35 type  2   force =    -0.00004317    0.00080433   -0.02090250
     atom   36 type  3   force =    -0.00004673    0.00017092    0.02461370
     The Hubbard contrib.    to forces
     atom    1 type  1   force =     0.00000000    0.00000000    0.00000000
     atom    2 type  2   force =     0.00000000    0.00000000    0.00000000
     atom    3 type  2   force =     0.00000000    0.00000000    0.00000000
     atom    4 type  1   force =     0.00000000    0.00000000    0.00000000
     atom    5 type  2   force =     0.00000000    0.00000000    0.00000000
     atom    6 type  2   force =     0.00000000    0.00000000    0.00000000
     atom    7 type  1   force =     0.00000000    0.00000000    0.00000000
     atom    8 type  2   force =     0.00000000    0.00000000    0.00000000
     atom    9 type  2   force =     0.00000000    0.00000000    0.00000000
     atom   10 type  1   force =     0.00000000    0.00000000    0.00000000
     atom   11 type  2   force =     0.00000000    0.00000000    0.00000000
     atom   12 type  2   force =     0.00000000    0.00000000    0.00000000
     atom   13 type  1   force =     0.00000000    0.00000000    0.00000000
     atom   14 type  2   force =     0.00000000    0.00000000    0.00000000
     atom   15 type  2   force =     0.00000000    0.00000000    0.00000000
     atom   16 type  1   force =     0.00000000    0.00000000    0.00000000
     atom   17 type  2   force =     0.00000000    0.00000000    0.00000000
     atom   18 type  2   force =     0.00000000    0.00000000    0.00000000
     atom   19 type  1   force =     0.00000000    0.00000000    0.00000000
     atom   20 type  2   force =     0.00000000    0.00000000    0.00000000
     atom   21 type  1   force =     0.00000000    0.00000000    0.00000000
     atom   22 type  2   force =     0.00000000    0.00000000    0.00000000
     atom   23 type  2   force =     0.00000000    0.00000000    0.00000000
     atom   24 type  1   force =     0.00000000    0.00000000    0.00000000
     atom   25 type  2   force =     0.00000000    0.00000000    0.00000000
     atom   26 type  2   force =     0.00000000    0.00000000    0.00000000
     atom   27 type  1   force =     0.00000000    0.00000000    0.00000000
     atom   28 type  2   force =     0.00000000    0.00000000    0.00000000
     atom   29 type  2   force =     0.00000000    0.00000000    0.00000000
     atom   30 type  1   force =     0.00000000    0.00000000    0.00000000
     atom   31 type  2   force =     0.00000000    0.00000000    0.00000000
     atom   32 type  2   force =     0.00000000    0.00000000    0.00000000
     atom   33 type  1   force =     0.00000000    0.00000000    0.00000000
     atom   34 type  2   force =     0.00000000    0.00000000    0.00000000
     atom   35 type  2   force =     0.00000000    0.00000000    0.00000000
     atom   36 type  3   force =     0.00000000    0.00000000    0.00000000
     The SCF correction term to forces
     atom    1 type  1   force =     0.00000613    0.00003067    0.00002508
     atom    2 type  2   force =    -0.00000198    0.00004358   -0.00000375
     atom    3 type  2   force =    -0.00000832    0.00001383    0.00000475
     atom    4 type  1   force =    -0.00001210   -0.00004772    0.00003685
     atom    5 type  2   force =    -0.00000445   -0.00001012    0.00000564
     atom    6 type  2   force =    -0.00000450   -0.00001069    0.00001966
     atom    7 type  1   force =    -0.00000401   -0.00004645   -0.00001393
     atom    8 type  2   force =    -0.00000017   -0.00003732    0.00000660
     atom    9 type  2   force =     0.00000101   -0.00001171   -0.00000226
     atom   10 type  1   force =    -0.00001073    0.00004419   -0.00001626
     atom   11 type  2   force =    -0.00000264    0.00001333    0.00000243
     atom   12 type  2   force =    -0.00000386    0.00001141   -0.00001500
     atom   13 type  1   force =     0.00000144    0.00004770    0.00004637
     atom   14 type  2   force =     0.00000237    0.00003889    0.00000003
     atom   15 type  2   force =     0.00000797    0.00000842    0.00000674
     atom   16 type  1   force =    -0.00000284   -0.00004307    0.00003901
     atom   17 type  2   force =     0.00000028   -0.00000672    0.00001456
     atom   18 type  2   force =     0.00000586   -0.00000090    0.00001695
     atom   19 type  1   force =     0.00000771   -0.00004028   -0.00001536
     atom   20 type  2   force =    -0.00000068   -0.00001692   -0.00000270
     atom   21 type  1   force =     0.00001465    0.00005155   -0.00001730
     atom   22 type  2   force =     0.00001389    0.00000113   -0.00000305
     atom   23 type  2   force =     0.00000717    0.00000127   -0.00001827
     atom   24 type  1   force =     0.00000301    0.00005458    0.00004458
     atom   25 type  2   force =     0.00000001    0.00006964   -0.00001253
     atom   26 type  2   force =    -0.00000386    0.00001890    0.00000598
     atom   27 type  1   force =     0.00000247   -0.00005370    0.00003762
     atom   28 type  2   force =     0.00000574   -0.00002080    0.00001249
     atom   29 type  2   force =     0.00000122   -0.00001302    0.00001871
     atom   30 type  1   force =    -0.00000937   -0.00004434   -0.00000589
     atom   31 type  2   force =    -0.00000095   -0.00004357    0.00000707
     atom   32 type  2   force =     0.00000231   -0.00001297   -0.00000528
     atom   33 type  1   force =     0.00000562    0.00006467   -0.00004085
     atom   34 type  2   force =    -0.00000962   -0.00000017   -0.00000211
     atom   35 type  2   force =    -0.00000550    0.00000536   -0.00001971
     atom   36 type  3   force =     0.00000870    0.00010928   -0.00002331

     Total force =     0.006263     Total SCF correction =     0.000265
     Energy error            =      9.4E-05 Ry
     Gradient error          =      1.7E-03 Ry/Bohr

     bfgs converged in  22 scf cycles and  20 bfgs steps
     (criteria: energy <  1.0E-04 Ry, force <  1.0E-02 Ry/Bohr)

     End of BFGS Geometry Optimization

     Final energy             =   -2246.4497756822 Ry

     File ./MoS2-V-O.bfgs deleted, as requested
Begin final coordinates

ATOMIC_POSITIONS (angstrom)
Mo            6.5713587770        1.7213106229        2.7637485167
S             8.1471966798        0.8232500535        4.3680811891
S             8.1397782286        0.8141363618        1.1698579060
Mo            8.1322862783        4.4755842680        2.7228753365
S             6.5322012174        3.6365593442        4.3172790267
S             6.5631737046        3.5389427240        1.1262062190
Mo            6.5237736436        7.1583182060        2.6684402160
S             8.0863196615        6.2862104822        4.3085642988
S             8.1467800297        6.3004327187        1.1171913479
Mo            8.1476319729        9.9125171375        2.7649363510
S             6.5285010761        8.9278212178        4.3181169087
S             6.5995537597        9.0027672372        1.1225269235
Mo            3.4582921204        1.7547149011        2.7509699130
S             4.9984617579        0.7886587860        4.3436665710
S             5.0108713276        0.8133268886        1.1580054740
Mo            5.0029935177        4.5220055331        2.6669824399
S             3.4791232339        3.6462010071        4.3223819052
S             3.4474567382        3.5603691137        1.1113855825
Mo            3.4834735694        7.1633474694        2.6710534733
S             5.0002680678        6.2902376619        1.0472327880
Mo            5.0009352098        9.8836988693        2.7219208886
S             3.4798946388        8.9236999862        4.3247046630
S             3.4141067431        8.9986009611        1.1137210269
Mo            0.2494357810        1.7431950632        2.7585115807
S             1.8624531051        0.8238843253        4.2762670421
S             1.8557161533        0.8271713625        1.1913712297
Mo            1.8750434973        4.4706603837        2.7227357182
S             0.2735426980        3.5856154119        4.3316574535
S             0.2698579150        3.5565052069        1.1476920805
Mo            0.2687236674        7.1972217788        2.7413571265
S             1.9130612024        6.2828469089        4.3076606455
S             1.8569340632        6.3014919617        1.1194205466
Mo            1.8588448560        9.8860530542        2.7562485772
S             0.2739505802        9.0035736982        4.3655685222
S             0.2637747620        9.0188958048        1.1605370087
O             1.8580789996       11.7700198993        5.7758850400
End final coordinates



     Writing all to output data dir ./MoS2-V-O.save/
 
     init_run     :      4.69s CPU      5.19s WALL (       1 calls)
     electrons    :   1991.95s CPU   2256.03s WALL (      22 calls)
     update_pot   :     64.24s CPU     68.54s WALL (      21 calls)
     forces       :     60.61s CPU     68.93s WALL (      22 calls)

     Called by init_run:
     wfcinit      :      0.48s CPU      0.53s WALL (       1 calls)
     potinit      :      2.44s CPU      2.68s WALL (       1 calls)
     hinit0       :      0.45s CPU      0.48s WALL (       1 calls)

     Called by electrons:
     c_bands      :    292.27s CPU    299.64s WALL (     204 calls)
     sum_band     :    114.91s CPU    147.71s WALL (     204 calls)
     v_of_rho     :    193.07s CPU    234.96s WALL (     220 calls)
     newd         :     68.48s CPU     99.64s WALL (     220 calls)
     PAW_pot      :      8.76s CPU      8.83s WALL (     241 calls)
     mix_rho      :   1336.40s CPU   1488.86s WALL (     204 calls)

     Called by c_bands:
     init_us_2    :      4.66s CPU      5.05s WALL (     430 calls)
     init_us_2:cp :      4.66s CPU      5.04s WALL (     430 calls)
     regterg      :    276.82s CPU    283.76s WALL (     204 calls)

     Called by *egterg:
     rdiaghg      :     19.00s CPU     19.21s WALL (    1073 calls)
     h_psi        :    179.50s CPU    181.13s WALL (    1101 calls)
     s_psi        :     17.02s CPU     17.08s WALL (    1101 calls)
     g_psi        :      0.86s CPU      0.87s WALL (     896 calls)

     Called by h_psi:
     h_psi:calbec :     19.40s CPU     19.51s WALL (    1101 calls)
     vloc_psi     :    141.06s CPU    142.48s WALL (    1101 calls)
     add_vuspsi   :     16.78s CPU     16.88s WALL (    1101 calls)

     General routines
     calbec       :     28.17s CPU     28.34s WALL (    1414 calls)
     fft          :    132.39s CPU    153.23s WALL (   14701 calls)
     ffts         :    600.51s CPU    747.66s WALL (  329816 calls)
     fftw         :     90.83s CPU     91.65s WALL (  124810 calls)
     interpolate  :      2.82s CPU      3.22s WALL (     220 calls)
 
     Parallel routines
 
     PWSCF        :  35m31.09s CPU  40m12.74s WALL

 
   This run was terminated on:  23:32:20   1Nov2023            

=------------------------------------------------------------------------------=
   JOB DONE.
=------------------------------------------------------------------------------=
