
     Program PWSCF v.7.2 starts on  1Nov2023 at 15:59:45 

     This program is part of the open-source Quantum ESPRESSO suite
     for quantum simulation of materials; please cite
         "P. Giannozzi et al., J. Phys.:Condens. Matter 21 395502 (2009);
         "P. Giannozzi et al., J. Phys.:Condens. Matter 29 465901 (2017);
         "P. Giannozzi et al., J. Chem. Phys. 152 154105 (2020);
          URL http://www.quantum-espresso.org", 
     in publications or presentations arising from this work. More details at
     http://www.quantum-espresso.org/quote

     Parallel version (MPI & OpenMP), running on      48 processor cores
     Number of MPI processes:                48
     Threads/MPI process:                     1

     MPI processes distributed on     1 nodes
     60553 MiB available memory on the printing compute node when the environment starts
 
     Waiting for input...
     Reading input from standard input
Warning: card &CELL ignored
Warning: card CELL_DYNAMICS = 'BFGS', ignored
Warning: card CELL_DOFREE = '2DXY' ignored
Warning: card / ignored

     Current dimensions of program PWSCF are:
     Max number of different atomic species (ntypx) = 10
     Max number of k-points (npk) =  40000
     Max angular momentum in pseudopotentials (lmaxx) =  4
     file O.pbe-n-kjpaw_psl.0.1.UPF: wavefunction(s)  2P renormalized

     IMPORTANT: XC functional enforced from input :
     Exchange-correlation= RVV10
                           (   1   4  13   4  26   0   0)
     Any further DFT definition will be discarded
     Please, verify this is what you really want


     gamma-point specific algorithms are used
     signal trapping enabled: kill the code with -SIGUSR1 to stop cleanly the simulation 
 
     R & G space division:  proc/nbgrp/npool/nimage =      48
     Subspace diagonalization in iterative solution of the eigenvalue problem:
     one sub-group per band group will be used
     scalapack distributed-memory algorithm (size of sub-group:  2*  2 procs)

 
     Parallelization info
     --------------------
     sticks:   dense  smooth     PW     G-vecs:    dense   smooth      PW
     Min         396     194     47               101632    35090    4376
     Max         398     196     50               101674    35128    4410
     Sum       19091    9389   2349              4879585  1685513  210763
 
     Using Slab Decomposition
 


     bravais-lattice index     =            0
     lattice parameter (alat)  =      17.8707  a.u.
     unit-cell volume          =   17436.2743 (a.u.)^3
     number of atoms/cell      =           36
     number of atomic types    =            3
     number of electrons       =       312.00
     number of Kohn-Sham states=          187
     kinetic-energy cutoff     =      80.0000  Ry
     charge density cutoff     =     650.0000  Ry
     scf convergence threshold =      1.0E-06
     mixing beta               =       0.7000
     number of iterations used =            8  local-TF  mixing
     energy convergence thresh.=      1.0E-04
     force convergence thresh. =      1.0E-02
     Exchange-correlation= RVV10
                           (   1   4  13   4  26   0   0)
     nstep                     =          200


     celldm(1)=  17.870686  celldm(2)=   0.000000  celldm(3)=   0.000000
     celldm(4)=   0.000000  celldm(5)=   0.000000  celldm(6)=   0.000000

     crystal axes: (cart. coord. in units of alat)
               a(1) = (   1.000000   0.000000   0.000000 )  
               a(2) = (   0.000000   1.155671   0.000000 )  
               a(3) = (   0.000000   0.000000   2.643601 )  

     reciprocal axes: (cart. coord. in units 2 pi/alat)
               b(1) = (  1.000000  0.000000  0.000000 )  
               b(2) = (  0.000000  0.865298  0.000000 )  
               b(3) = (  0.000000  0.000000  0.378272 )  


     PseudoPot. # 1 for Mo read from file:
     ../pseudo/Mo_ONCV_PBE-1.0.oncvpsp.upf
     MD5 check sum: 1b5d28e075c9ccadda658a603575cd1f
     Pseudo is Norm-conserving, Zval = 14.0
     Generated using ONCVPSP code by D. R. Hamann
     Using radial grid of 1526 points,  6 beta functions with: 
                l(1) =   0
                l(2) =   0
                l(3) =   1
                l(4) =   1
                l(5) =   2
                l(6) =   2

     PseudoPot. # 2 for S  read from file:
     ../pseudo/s_pbe_v1.4.uspp.F.UPF
     MD5 check sum: 88d86576ff6df21479756cfb9bdac1df
     Pseudo is Ultrasoft + core correction, Zval =  6.0
     Generated by new atomic code, or converted to UPF format
     Using radial grid of  907 points,  6 beta functions with: 
                l(1) =   0
                l(2) =   0
                l(3) =   1
                l(4) =   1
                l(5) =   2
                l(6) =   2
     Q(r) pseudized with  8 coefficients,  rinner =    1.300   1.300   1.300
                                                       1.300   1.300

     PseudoPot. # 3 for O  read from file:
     ../pseudo/O.pbe-n-kjpaw_psl.0.1.UPF
     MD5 check sum: 0234752ac141de4415c5fc33072bef88
     Pseudo is Projector augmented-wave + core cor, Zval =  6.0
     Generated using "atomic" code by A. Dal Corso  v.5.0.99 svn rev. 10869
     Shape of augmentation charge: BESSEL
     Using radial grid of 1095 points,  4 beta functions with: 
                l(1) =   0
                l(2) =   0
                l(3) =   1
                l(4) =   1
     Q(r) pseudized with 0 coefficients 


     atomic species   valence    mass     pseudopotential
        Mo            14.00    95.94000     Mo( 1.00)
        S              6.00    32.06500     S ( 1.00)
        O              6.00    15.99940     O ( 1.00)

     No symmetry found



   Cartesian axes

     site n.     atom                  positions (alat units)
         1           Mo  tau(   1) = (   0.6952221   0.1890506   0.2985846  )
         2           S   tau(   2) = (   0.8646417   0.0856217   0.4689279  )
         3           S   tau(   3) = (   0.8663890   0.0857843   0.1351291  )
         4           Mo  tau(   4) = (   0.8560186   0.4753274   0.2873942  )
         5           S   tau(   5) = (   0.6873294   0.3936244   0.4596353  )
         6           S   tau(   6) = (   0.6929804   0.3713468   0.1185692  )
         7           Mo  tau(   7) = (   0.6862796   0.7633098   0.2825370  )
         8           S   tau(   8) = (   0.8545980   0.6708292   0.4486168  )
         9           S   tau(   9) = (   0.8545123   0.6666874   0.1146125  )
        10           Mo  tau(  10) = (   0.8629403   1.0471007   0.3006803  )
        11           S   tau(  11) = (   0.6868280   0.9456650   0.4634891  )
        12           S   tau(  12) = (   0.6998113   0.9568511   0.1205389  )
        13           Mo  tau(  13) = (   0.3618216   0.1847309   0.2935964  )
        14           S   tau(  14) = (   0.5260962   0.0863870   0.4600448  )
        15           S   tau(  15) = (   0.5348379   0.0894875   0.1297123  )
        16           Mo  tau(  16) = (   0.5265817   0.4772436   0.2784130  )
        17           S   tau(  17) = (   0.3624753   0.3882513   0.4525556  )
        18           S   tau(  18) = (   0.3635411   0.3752055   0.1119148  )
        19           Mo  tau(  19) = (   0.3652268   0.7630864   0.2781795  )
        20           S   tau(  20) = (   0.5269494   0.6690381   0.1096838  )
        21           Mo  tau(  21) = (   0.5300192   1.0470394   0.2900995  )
        22           S   tau(  22) = (   0.3670346   0.9457522   0.4574073  )
        23           S   tau(  23) = (   0.3604225   0.9585725   0.1159032  )
        24           Mo  tau(  24) = (   0.0313099   0.1847895   0.3013130  )
        25           S   tau(  25) = (   0.1956761   0.0838230   0.4650863  )
        26           S   tau(  26) = (   0.1967693   0.0903508   0.1278874  )
        27           Mo  tau(  27) = (   0.1967578   0.4753919   0.2813011  )
        28           S   tau(  28) = (   0.0287851   0.3864324   0.4586755  )
        29           S   tau(  29) = (   0.0244514   0.3729871   0.1239344  )
        30           Mo  tau(  30) = (   0.0286728   0.7631204   0.2856894  )
        31           S   tau(  31) = (   0.2011512   0.6675435   0.4465001  )
        32           S   tau(  32) = (   0.1969214   0.6672839   0.1104564  )
        33           Mo  tau(  33) = (   0.1950294   1.0511147   0.2932237  )
        34           S   tau(  34) = (   0.0312912   0.9612169   0.4667423  )
        35           S   tau(  35) = (   0.0292670   0.9563028   0.1216485  )
        36           O   tau(  36) = (   0.3333333   0.0000000   0.5650415  )

     number of k points=     1  Gaussian smearing, width (Ry)=  0.0100
                       cart. coord. in units 2pi/alat
        k(    1) = (   0.0000000   0.0000000   0.0000000), wk =   2.0000000

     Dense  grid:  2439793 G-vectors     FFT dimensions: ( 150, 180, 384)

     Smooth grid:   842757 G-vectors     FFT dimensions: ( 108, 120, 270)

     Estimated max dynamical RAM per process >     269.22 MB

     Estimated total dynamical RAM >      12.62 GB

     Initial potential from superposition of free atoms

     starting charge     311.9873, renormalised to     312.0000

     negative rho (up, down):  2.748E-04 0.000E+00


---------------------------------------------------------------------------------
Carrying out rVV10 run using the following parameters:
Nqs =      20    Nr_points =    1024   r_max =   100.000
b_value =  6.30000    beta =  0.00901
     q_mesh =  0.00010000  0.00030000  0.00058939  0.00100810
               0.00161396  0.00249058  0.00375900  0.00559430
               0.00824984  0.01209221  0.01765183  0.02569619
               0.03733578  0.05417739  0.07854596  0.11380545
               0.16482331  0.23864234  0.34545298  0.50000000

Gradients computed in Reciprocal space

---------------------------------------------------------------------------------


     Starting wfcs are  216 randomized atomic wfcs
     Checking if some PAW data can be deallocated... 

     total cpu time spent up to now is        5.5 secs

     Self-consistent Calculation

     iteration #  1     ecut=    80.00 Ry     beta= 0.70
     Davidson diagonalization with overlap
     ethr =  1.00E-02,  avg # of iterations =  2.0

     Threshold (ethr) on eigenvalues was too large:
     Diagonalizing with lowered threshold

     Davidson diagonalization with overlap
     ethr =  4.42E-04,  avg # of iterations =  4.0

     negative rho (up, down):  4.379E-08 0.000E+00

     total cpu time spent up to now is       30.3 secs

     total energy              =   -2246.16841414 Ry
     estimated scf accuracy    <       1.63459675 Ry

     iteration #  2     ecut=    80.00 Ry     beta= 0.70
     Davidson diagonalization with overlap
     ethr =  5.24E-04,  avg # of iterations =  4.0

     total cpu time spent up to now is       35.5 secs

     total energy              =   -2246.16917659 Ry
     estimated scf accuracy    <       0.67372385 Ry

     iteration #  3     ecut=    80.00 Ry     beta= 0.70
     Davidson diagonalization with overlap
     ethr =  2.16E-04,  avg # of iterations =  4.0

     total cpu time spent up to now is       39.7 secs

     total energy              =   -2246.15263068 Ry
     estimated scf accuracy    <       0.22080893 Ry

     iteration #  4     ecut=    80.00 Ry     beta= 0.70
     Davidson diagonalization with overlap
     ethr =  7.08E-05,  avg # of iterations = 16.0

     total cpu time spent up to now is       44.6 secs

     total energy              =   -2246.19471525 Ry
     estimated scf accuracy    <       0.02719325 Ry

     iteration #  5     ecut=    80.00 Ry     beta= 0.70
     Davidson diagonalization with overlap
     ethr =  8.72E-06,  avg # of iterations =  8.0

     total cpu time spent up to now is       48.8 secs

     total energy              =   -2246.19560317 Ry
     estimated scf accuracy    <       0.01568105 Ry

     iteration #  6     ecut=    80.00 Ry     beta= 0.70
     Davidson diagonalization with overlap
     ethr =  5.03E-06,  avg # of iterations =  2.0

     total cpu time spent up to now is       52.6 secs

     total energy              =   -2246.19468905 Ry
     estimated scf accuracy    <       0.01029719 Ry

     iteration #  7     ecut=    80.00 Ry     beta= 0.70
     Davidson diagonalization with overlap
     ethr =  3.30E-06,  avg # of iterations =  8.0

     total cpu time spent up to now is       57.7 secs

     total energy              =   -2246.19357692 Ry
     estimated scf accuracy    <       0.00638170 Ry

     iteration #  8     ecut=    80.00 Ry     beta= 0.70
     Davidson diagonalization with overlap
     ethr =  2.05E-06,  avg # of iterations =  8.0

     negative rho (up, down):  7.716E-03 0.000E+00

     total cpu time spent up to now is       64.2 secs

     total energy              =   -2246.19309050 Ry
     estimated scf accuracy    <       0.00361739 Ry

     iteration #  9     ecut=    80.00 Ry     beta= 0.70
     Davidson diagonalization with overlap
     ethr =  1.16E-06,  avg # of iterations =  2.0

     negative rho (up, down):  2.527E-02 0.000E+00

     total cpu time spent up to now is       70.5 secs

     total energy              =   -2246.19288567 Ry
     estimated scf accuracy    <       0.00196116 Ry

     iteration # 10     ecut=    80.00 Ry     beta= 0.70
     Davidson diagonalization with overlap
     ethr =  6.29E-07,  avg # of iterations =  2.0

     negative rho (up, down):  2.198E-02 0.000E+00

     total cpu time spent up to now is       78.4 secs

     total energy              =   -2246.19287846 Ry
     estimated scf accuracy    <       0.00083431 Ry

     iteration # 11     ecut=    80.00 Ry     beta= 0.70
     Davidson diagonalization with overlap
     ethr =  2.67E-07,  avg # of iterations =  2.0

     negative rho (up, down):  1.274E-02 0.000E+00

     total cpu time spent up to now is       84.7 secs

     total energy              =   -2246.19289967 Ry
     estimated scf accuracy    <       0.00013261 Ry

     iteration # 12     ecut=    80.00 Ry     beta= 0.70
     Davidson diagonalization with overlap
     ethr =  4.25E-08,  avg # of iterations =  5.0

     negative rho (up, down):  3.241E-03 0.000E+00

     total cpu time spent up to now is       92.5 secs

     total energy              =   -2246.19293867 Ry
     estimated scf accuracy    <       0.00003412 Ry

     iteration # 13     ecut=    80.00 Ry     beta= 0.70
     Davidson diagonalization with overlap
     ethr =  1.09E-08,  avg # of iterations =  5.0

     negative rho (up, down):  8.483E-04 0.000E+00

     total cpu time spent up to now is      102.8 secs

     total energy              =   -2246.19294752 Ry
     estimated scf accuracy    <       0.00000832 Ry

     iteration # 14     ecut=    80.00 Ry     beta= 0.70
     Davidson diagonalization with overlap
     ethr =  2.67E-09,  avg # of iterations =  5.0

     negative rho (up, down):  4.665E-04 0.000E+00

     total cpu time spent up to now is      112.4 secs

     total energy              =   -2246.19295289 Ry
     estimated scf accuracy    <       0.00000211 Ry

     iteration # 15     ecut=    80.00 Ry     beta= 0.70
     Davidson diagonalization with overlap
     ethr =  6.76E-10,  avg # of iterations =  4.0

     negative rho (up, down):  2.663E-04 0.000E+00

     total cpu time spent up to now is      119.5 secs

     total energy              =   -2246.19295556 Ry
     estimated scf accuracy    <       0.00000101 Ry

     iteration # 16     ecut=    80.00 Ry     beta= 0.70
     Davidson diagonalization with overlap
     ethr =  3.25E-10,  avg # of iterations =  3.0

     negative rho (up, down):  2.124E-04 0.000E+00

     total cpu time spent up to now is      123.2 secs

     End of self-consistent calculation

          k = 0.0000 0.0000 0.0000 (105382 PWs)   bands (ev):

   -63.0947 -62.9911 -62.9678 -62.9219 -62.9078 -62.8904 -62.8773 -62.8735
   -62.8618 -62.8457 -62.7945 -62.7901 -37.3891 -37.3367 -37.2694 -37.2493
   -37.2391 -37.2253 -37.2031 -37.1652 -37.1621 -37.1452 -37.1421 -37.1378
   -37.1241 -37.1103 -37.0959 -37.0891 -37.0729 -37.0586 -37.0514 -37.0447
   -37.0379 -37.0248 -37.0162 -37.0151 -36.9981 -36.9904 -36.9797 -36.9756
   -36.9721 -36.9427 -36.9314 -36.9255 -36.9011 -36.8464 -36.8374 -36.7675
   -20.2142 -15.9979 -15.2947 -15.1912 -15.1188 -15.0005 -14.8215 -14.7171
   -14.5776 -14.5459 -14.4906 -14.4711 -14.4499 -14.3757 -14.3018 -14.2505
   -14.2290 -14.2073 -14.1420 -14.0370 -13.9382 -13.9362 -13.8965 -13.8731
    -7.8787  -7.7813  -7.6031  -7.4662  -7.4086  -7.3515  -7.3328  -7.2611
    -7.2180  -7.0622  -6.8887  -6.8623  -6.8473  -6.7819  -6.6737  -6.6239
    -6.5271  -6.4851  -6.3583  -6.3469  -6.1949  -6.1029  -6.0056  -5.9197
    -5.9136  -5.8839  -5.7930  -5.7807  -5.7200  -5.6854  -5.6630  -5.6010
    -5.5849  -5.5416  -5.4820  -5.4344  -5.2548  -5.1964  -5.1493  -5.0971
    -5.0672  -5.0078  -4.9049  -4.7882  -4.7111  -4.5515  -4.4447  -4.4044
    -4.3506  -4.3197  -4.1606  -4.1103  -4.0171  -3.9844  -3.8932  -3.8558
    -3.8206  -3.7916  -3.6987  -3.6591  -3.6247  -3.5796  -3.5654  -3.5363
    -3.4976  -3.4610  -3.3255  -3.2514  -3.0901  -3.0016  -2.9018  -2.8947
    -2.8519  -2.8179  -2.7550  -2.7302  -2.7157  -2.6452  -2.3594  -2.3455
    -2.1013  -2.0155  -1.9114  -1.8319  -1.4190  -0.8913  -0.7847  -0.2575
    -0.2270  -0.1727  -0.0805  -0.0569   0.0424   0.0636   0.1728   0.1918
     0.2538   0.2805   0.3352   0.3730   0.4562   0.4854   0.5128   0.5506
     0.5738   0.6381   0.6891   0.7106   0.7574   0.7718   0.8621   0.8824
     0.8974   0.9575   1.1763

     the Fermi energy is    -1.6237 ev

!    total energy              =   -2246.19295479 Ry
     estimated scf accuracy    <       0.00000031 Ry
     smearing contrib. (-TS)   =      -0.00119490 Ry
     internal energy E=F+TS    =   -2246.19175989 Ry

     The total energy is F=E-TS. E is the sum of the following terms:
     one-electron contribution =  -18460.39409814 Ry
     hartree contribution      =    9218.34849478 Ry
     xc contribution           =    -391.97670635 Ry
     ewald contribution        =    7397.70140485 Ry
     one-center paw contrib.   =      -9.87085503 Ry

     convergence has been achieved in  16 iterations

     negative rho (up, down):  2.124E-04 0.000E+00

     Forces acting on atoms (cartesian axes, Ry/au):

     atom    1 type  1   force =     0.02195649   -0.02399059   -0.00376848
     atom    2 type  2   force =    -0.02271694    0.01586185   -0.00119570
     atom    3 type  2   force =    -0.00910024    0.00812035   -0.00601106
     atom    4 type  1   force =     0.00432397    0.00710421   -0.00104925
     atom    5 type  2   force =    -0.00248339   -0.00696229   -0.00457407
     atom    6 type  2   force =     0.00138340    0.01199705   -0.00173884
     atom    7 type  1   force =     0.00801037   -0.01562313   -0.00787825
     atom    8 type  2   force =     0.00083889   -0.00308169    0.01705820
     atom    9 type  2   force =     0.01238600    0.00604050    0.01163194
     atom   10 type  1   force =    -0.00718000    0.00668482   -0.02686241
     atom   11 type  2   force =     0.00502753   -0.00168969   -0.00553748
     atom   12 type  2   force =     0.00185970    0.00060921    0.00395876
     atom   13 type  1   force =     0.01249284    0.02172567   -0.03011774
     atom   14 type  2   force =     0.02861530    0.01084503   -0.01328079
     atom   15 type  2   force =    -0.01128100    0.00358375   -0.00666282
     atom   16 type  1   force =    -0.00109964    0.01057164    0.00531819
     atom   17 type  2   force =     0.00619726    0.00057326    0.00315780
     atom   18 type  2   force =    -0.00131808   -0.00302108    0.01319887
     atom   19 type  1   force =     0.00866258   -0.02158452   -0.00773015
     atom   20 type  2   force =     0.00344297   -0.00274903    0.00061397
     atom   21 type  1   force =    -0.00714929    0.00691394   -0.00259016
     atom   22 type  2   force =    -0.00056141   -0.01058477   -0.02459432
     atom   23 type  2   force =    -0.00064419    0.00212138    0.01087947
     atom   24 type  1   force =    -0.01828334    0.02878704   -0.02714715
     atom   25 type  2   force =     0.12810831   -0.06636229    0.06749468
     atom   26 type  2   force =    -0.01194588   -0.00071822   -0.00386578
     atom   27 type  1   force =     0.00087281   -0.00843839    0.00543080
     atom   28 type  2   force =    -0.00233634    0.00234155   -0.00704141
     atom   29 type  2   force =     0.00000735   -0.00584580   -0.00345298
     atom   30 type  1   force =    -0.00497478    0.01256626   -0.00355558
     atom   31 type  2   force =     0.00130080   -0.00066366    0.01653671
     atom   32 type  2   force =    -0.01072242    0.00730473    0.00661959
     atom   33 type  1   force =    -0.00133631   -0.01734162   -0.03686987
     atom   34 type  2   force =     0.00379926   -0.04220249   -0.00594175
     atom   35 type  2   force =    -0.00969127    0.00700473    0.01552621
     atom   36 type  3   force =    -0.12646134    0.06010229    0.05404082
     The non-local contrib.  to forces
     atom    1 type  1   force =    -0.02537547    0.02574808   -0.00286692
     atom    2 type  2   force =    -0.01675187    0.00248977   -0.27020574
     atom    3 type  2   force =    -0.01165426   -0.00254866    0.27103836
     atom    4 type  1   force =    -0.00323811    0.00755549    0.00469285
     atom    5 type  2   force =     0.00499708   -0.03121560   -0.25553292
     atom    6 type  2   force =    -0.00305429    0.01428080    0.26064174
     atom    7 type  1   force =    -0.01902130    0.00514237   -0.01947788
     atom    8 type  2   force =     0.00413663   -0.00257243   -0.25604516
     atom    9 type  2   force =     0.00646288   -0.00724082    0.27860530
     atom   10 type  1   force =     0.00194121   -0.00050982    0.00046791
     atom   11 type  2   force =     0.01701207    0.00431588   -0.26110872
     atom   12 type  2   force =    -0.01096217   -0.01689468    0.26321517
     atom   13 type  1   force =     0.00050567    0.01887560    0.00936944
     atom   14 type  2   force =    -0.02169225   -0.02775912   -0.25359039
     atom   15 type  2   force =    -0.01406649   -0.00480263    0.25571371
     atom   16 type  1   force =     0.00531479    0.02398577   -0.02491841
     atom   17 type  2   force =     0.00357714   -0.03403378   -0.24959979
     atom   18 type  2   force =    -0.00443660   -0.00349187    0.27332672
     atom   19 type  1   force =     0.01287320    0.02697531   -0.00114039
     atom   20 type  2   force =    -0.00294489   -0.02301408    0.26879180
     atom   21 type  1   force =     0.00666689    0.02198157    0.01313903
     atom   22 type  2   force =     0.00706077    0.05115468   -0.21435029
     atom   23 type  2   force =     0.00709192   -0.01368343    0.26572612
     atom   24 type  1   force =    -0.01189357    0.00277411   -0.00875252
     atom   25 type  2   force =     0.37358213   -0.18251449    0.08971997
     atom   26 type  2   force =    -0.00384982   -0.01113343    0.26372260
     atom   27 type  1   force =    -0.00159775    0.01412964    0.00954854
     atom   28 type  2   force =    -0.00589817   -0.01968249   -0.27004594
     atom   29 type  2   force =     0.00602474   -0.00307306    0.26810656
     atom   30 type  1   force =    -0.00043438    0.01832683    0.01035560
     atom   31 type  2   force =    -0.00988740   -0.00302117   -0.24737878
     atom   32 type  2   force =    -0.00612388   -0.01028359    0.27484179
     atom   33 type  1   force =    -0.00781506    0.00788895    0.01390405
     atom   34 type  2   force =     0.00470630   -0.03578097   -0.27589315
     atom   35 type  2   force =    -0.00188232   -0.01125499    0.27152378
     atom   36 type  3   force =    -0.82989432    0.56725641   -0.68967574
     The ionic contribution  to forces
     atom    1 type  1   force =     1.23827131    0.99428626    4.06972511
     atom    2 type  2   force =    -0.86270202    0.61399391   38.96471193
     atom    3 type  2   force =    -0.20950450    0.08938002  -36.75766123
     atom    4 type  1   force =     0.04637239    0.87277976   -0.26104881
     atom    5 type  2   force =    -0.71988548    1.88233684   38.51960193
     atom    6 type  2   force =     0.42235900   -0.35831675  -38.56979981
     atom    7 type  1   force =    -2.25891022   -3.36243802    1.43728934
     atom    8 type  2   force =    -1.01104087   -0.12702977   37.19604383
     atom    9 type  2   force =     0.33260447   -0.09580021  -38.47644730
     atom   10 type  1   force =    -1.33030517   -0.71423453    4.18271392
     atom   11 type  2   force =     0.09591119   -2.18337421   38.76575432
     atom   12 type  2   force =     0.57024181    0.54079974  -38.51793717
     atom   13 type  1   force =     0.84627997    3.45682938   -1.36510253
     atom   14 type  2   force =     3.16284384    1.43515502   36.67103984
     atom   15 type  2   force =     0.41056609    0.07618852  -37.80028746
     atom   16 type  1   force =     0.29796889    4.45075742   -0.69861612
     atom   17 type  2   force =     0.89357105    2.50729334   37.49030826
     atom   18 type  2   force =    -0.14095052   -0.41864985  -39.24369600
     atom   19 type  1   force =     2.82613904   -3.61592845   -0.99810211
     atom   20 type  2   force =     0.29605841   -0.28885991  -39.01864330
     atom   21 type  1   force =     1.94085960   -1.11377726   -2.33304251
     atom   22 type  2   force =     0.98927471   -5.07726556   36.59918377
     atom   23 type  2   force =    -0.05117449    0.38029987  -39.28050888
     atom   24 type  1   force =    -1.75970663    2.12700621    3.88068218
     atom   25 type  2   force =    -3.74877705    3.00699527   35.92962250
     atom   26 type  2   force =    -0.49962133    0.22744745  -38.43829059
     atom   27 type  1   force =    -0.24502382    0.98466551   -3.49378569
     atom   28 type  2   force =    -0.26994381    1.48364321   37.94810491
     atom   29 type  2   force =    -0.36230912   -0.26779727  -37.83210735
     atom   30 type  1   force =    -0.78149706   -1.57712435   -1.23187534
     atom   31 type  2   force =     1.05846022   -0.41452885   37.04482027
     atom   32 type  2   force =    -0.53535556   -0.10409817  -39.19089016
     atom   33 type  1   force =    -1.09503519   -2.37546978   -2.43733016
     atom   34 type  2   force =    -0.75609606   -2.22458765   38.86703889
     atom   35 type  2   force =    -0.47038499    0.30042064  -38.53666249
     atom   36 type  3   force =     1.68044193   -1.11099778   46.91519398
     The local contribution  to forces
     atom    1 type  1   force =    -1.19088734   -1.04404153   -4.07131288
     atom    2 type  2   force =     0.85633619   -0.60043240  -38.71684296
     atom    3 type  2   force =     0.21164515   -0.07871158   36.50135358
     atom    4 type  1   force =    -0.03884382   -0.87322604    0.25467367
     atom    5 type  2   force =     0.71298194   -1.85979799  -38.28950430
     atom    6 type  2   force =    -0.41827810    0.35732763   38.32801344
     atom    7 type  1   force =     2.28594187    3.34166595   -1.42639992
     atom    8 type  2   force =     1.00787237    0.12602848  -36.94381537
     atom    9 type  2   force =    -0.32658150    0.10863382   38.23039684
     atom   10 type  1   force =     1.32117926    0.72145244   -4.21075225
     atom   11 type  2   force =    -0.10709489    2.17779724  -38.53125644
     atom   12 type  2   force =    -0.55846900   -0.52468001   38.27936185
     atom   13 type  1   force =    -0.83421435   -3.45395746    1.32481943
     atom   14 type  2   force =    -3.11260333   -1.39711097  -36.45177151
     atom   15 type  2   force =    -0.40852075   -0.06809355   37.55803175
     atom   16 type  1   force =    -0.30435243   -4.46414712    0.72814433
     atom   17 type  2   force =    -0.89095939   -2.47438375  -37.25815944
     atom   18 type  2   force =     0.14396910    0.41967701   39.00441409
     atom   19 type  1   force =    -2.83034202    3.56735103    0.99078156
     atom   20 type  2   force =    -0.28989318    0.30821441   38.77165329
     atom   21 type  1   force =    -1.95463868    1.09863505    2.31664028
     atom   22 type  2   force =    -0.99615009    5.01730675  -36.42870539
     atom   23 type  2   force =     0.04398275   -0.36572599   39.04625500
     atom   24 type  1   force =     1.75311734   -2.10091166   -3.89996635
     atom   25 type  2   force =     3.52371413   -2.90103821  -35.95407594
     atom   26 type  2   force =     0.49156621   -0.21758220   38.19140909
     atom   27 type  1   force =     0.24748754   -1.00714783    3.48902664
     atom   28 type  2   force =     0.27319422   -1.46332439  -37.70626283
     atom   29 type  2   force =     0.35684093    0.26531692   37.58117418
     atom   30 type  1   force =     0.77695826    1.57133875    1.21729584
     atom   31 type  2   force =    -1.04781940    0.41657773  -36.80152604
     atom   32 type  2   force =     0.53067659    0.12102155   38.94356703
     atom   33 type  1   force =     1.10150300    2.35014598    2.38576324
     atom   34 type  2   force =     0.75502424    2.21706486  -38.61871946
     atom   35 type  2   force =     0.46266137   -0.28313723   38.30160226
     atom   36 type  3   force =    -0.98643004    0.61028022  -46.17871627
     The core correction contribution to forces
     atom    1 type  1   force =     0.00000000    0.00000000    0.00000000
     atom    2 type  2   force =     0.00035929   -0.00016147    0.02078376
     atom    3 type  2   force =     0.00042317    0.00002732   -0.02091022
     atom    4 type  1   force =     0.00000000    0.00000000    0.00000000
     atom    5 type  2   force =    -0.00056339    0.00171936    0.02050548
     atom    6 type  2   force =     0.00035109   -0.00129138   -0.02074591
     atom    7 type  1   force =     0.00000000    0.00000000    0.00000000
     atom    8 type  2   force =    -0.00013840    0.00048910    0.02051481
     atom    9 type  2   force =    -0.00010267    0.00045360   -0.02108505
     atom   10 type  1   force =     0.00000000    0.00000000    0.00000000
     atom   11 type  2   force =    -0.00080919   -0.00044964    0.02073719
     atom   12 type  2   force =     0.00103783    0.00137219   -0.02085583
     atom   13 type  1   force =     0.00000000    0.00000000    0.00000000
     atom   14 type  2   force =     0.00010856    0.00056001    0.02071880
     atom   15 type  2   force =     0.00076204    0.00029538   -0.02032372
     atom   16 type  1   force =     0.00000000    0.00000000    0.00000000
     atom   17 type  2   force =     0.00001040    0.00175950    0.02026705
     atom   18 type  2   force =     0.00009069   -0.00053596   -0.02102723
     atom   19 type  1   force =     0.00000000    0.00000000    0.00000000
     atom   20 type  2   force =     0.00023396    0.00092554   -0.02131563
     atom   21 type  1   force =     0.00000000    0.00000000    0.00000000
     atom   22 type  2   force =    -0.00072863   -0.00178848    0.01895735
     atom   23 type  2   force =    -0.00054687    0.00122404   -0.02078634
     atom   24 type  1   force =     0.00000000    0.00000000    0.00000000
     atom   25 type  2   force =    -0.02038751    0.01016601    0.00187285
     atom   26 type  2   force =    -0.00007296    0.00056041   -0.02093325
     atom   27 type  1   force =     0.00000000    0.00000000    0.00000000
     atom   28 type  2   force =     0.00028846    0.00173532    0.02079503
     atom   29 type  2   force =    -0.00054005   -0.00030555   -0.02079191
     atom   30 type  1   force =     0.00000000    0.00000000    0.00000000
     atom   31 type  2   force =     0.00053707    0.00028606    0.02027563
     atom   32 type  2   force =     0.00006946    0.00065567   -0.02107266
     atom   33 type  1   force =     0.00000000    0.00000000    0.00000000
     atom   34 type  2   force =     0.00014646    0.00106352    0.02129632
     atom   35 type  2   force =    -0.00008130    0.00097110   -0.02111616
     atom   36 type  3   force =     0.00954647   -0.00652056    0.00707104
     The Hubbard contrib.    to forces
     atom    1 type  1   force =     0.00000000    0.00000000    0.00000000
     atom    2 type  2   force =     0.00000000    0.00000000    0.00000000
     atom    3 type  2   force =     0.00000000    0.00000000    0.00000000
     atom    4 type  1   force =     0.00000000    0.00000000    0.00000000
     atom    5 type  2   force =     0.00000000    0.00000000    0.00000000
     atom    6 type  2   force =     0.00000000    0.00000000    0.00000000
     atom    7 type  1   force =     0.00000000    0.00000000    0.00000000
     atom    8 type  2   force =     0.00000000    0.00000000    0.00000000
     atom    9 type  2   force =     0.00000000    0.00000000    0.00000000
     atom   10 type  1   force =     0.00000000    0.00000000    0.00000000
     atom   11 type  2   force =     0.00000000    0.00000000    0.00000000
     atom   12 type  2   force =     0.00000000    0.00000000    0.00000000
     atom   13 type  1   force =     0.00000000    0.00000000    0.00000000
     atom   14 type  2   force =     0.00000000    0.00000000    0.00000000
     atom   15 type  2   force =     0.00000000    0.00000000    0.00000000
     atom   16 type  1   force =     0.00000000    0.00000000    0.00000000
     atom   17 type  2   force =     0.00000000    0.00000000    0.00000000
     atom   18 type  2   force =     0.00000000    0.00000000    0.00000000
     atom   19 type  1   force =     0.00000000    0.00000000    0.00000000
     atom   20 type  2   force =     0.00000000    0.00000000    0.00000000
     atom   21 type  1   force =     0.00000000    0.00000000    0.00000000
     atom   22 type  2   force =     0.00000000    0.00000000    0.00000000
     atom   23 type  2   force =     0.00000000    0.00000000    0.00000000
     atom   24 type  1   force =     0.00000000    0.00000000    0.00000000
     atom   25 type  2   force =     0.00000000    0.00000000    0.00000000
     atom   26 type  2   force =     0.00000000    0.00000000    0.00000000
     atom   27 type  1   force =     0.00000000    0.00000000    0.00000000
     atom   28 type  2   force =     0.00000000    0.00000000    0.00000000
     atom   29 type  2   force =     0.00000000    0.00000000    0.00000000
     atom   30 type  1   force =     0.00000000    0.00000000    0.00000000
     atom   31 type  2   force =     0.00000000    0.00000000    0.00000000
     atom   32 type  2   force =     0.00000000    0.00000000    0.00000000
     atom   33 type  1   force =     0.00000000    0.00000000    0.00000000
     atom   34 type  2   force =     0.00000000    0.00000000    0.00000000
     atom   35 type  2   force =     0.00000000    0.00000000    0.00000000
     atom   36 type  3   force =     0.00000000    0.00000000    0.00000000
     The SCF correction term to forces
     atom    1 type  1   force =    -0.00005348    0.00001730    0.00066512
     atom    2 type  2   force =     0.00004000   -0.00002727    0.00033622
     atom    3 type  2   force =    -0.00001126   -0.00002607    0.00014735
     atom    4 type  1   force =     0.00003204   -0.00000431    0.00061194
     atom    5 type  2   force =    -0.00001501   -0.00000422    0.00033463
     atom    6 type  2   force =     0.00000425   -0.00000256    0.00013062
     atom    7 type  1   force =    -0.00000144    0.00000727    0.00068910
     atom    8 type  2   force =     0.00000770    0.00000360    0.00033900
     atom    9 type  2   force =     0.00000136   -0.00000521    0.00014104
     atom   10 type  1   force =     0.00000324   -0.00002258    0.00068691
     atom   11 type  2   force =     0.00000689    0.00002173    0.00031506
     atom   12 type  2   force =     0.00000976    0.00001266    0.00015363
     atom   13 type  1   force =    -0.00007991   -0.00002116    0.00077481
     atom   14 type  2   force =    -0.00004299    0.00000077    0.00030137
     atom   15 type  2   force =    -0.00002336   -0.00000328    0.00018180
     atom   16 type  1   force =    -0.00003236   -0.00002374    0.00068730
     atom   17 type  2   force =    -0.00000341   -0.00006136    0.00032062
     atom   18 type  2   force =     0.00000779   -0.00001973    0.00016018
     atom   19 type  1   force =    -0.00000911    0.00001827    0.00070968
     atom   20 type  2   force =    -0.00001280   -0.00001431    0.00010670
     atom   21 type  1   force =    -0.00003856    0.00007526    0.00065194
     atom   22 type  2   force =    -0.00001964    0.00000852    0.00029913
     atom   23 type  2   force =     0.00000104    0.00000757    0.00017247
     atom   24 type  1   force =     0.00019806   -0.00008093    0.00086843
     atom   25 type  2   force =    -0.00002486    0.00002983    0.00033419
     atom   26 type  2   force =     0.00003054   -0.00000976    0.00020527
     atom   27 type  1   force =     0.00000537   -0.00008502    0.00062020
     atom   28 type  2   force =     0.00002149   -0.00002942    0.00034632
     atom   29 type  2   force =    -0.00001062    0.00001385    0.00014443
     atom   30 type  1   force =    -0.00000307    0.00002571    0.00064722
     atom   31 type  2   force =     0.00000884    0.00002325    0.00032453
     atom   32 type  2   force =     0.00000951    0.00000996    0.00015250
     atom   33 type  1   force =     0.00000948    0.00009392    0.00077191
     atom   34 type  2   force =     0.00001685    0.00003844    0.00031454
     atom   35 type  2   force =    -0.00000550    0.00000589    0.00015772
     atom   36 type  3   force =    -0.00012683    0.00008468    0.00014671

     Total force =     0.252408     Total SCF correction =     0.002742

     BFGS Geometry Optimization
     Energy error            =      0.0E+00 Ry
     Gradient error          =      1.3E-01 Ry/Bohr

     number of scf cycles    =   1
     number of bfgs steps    =   0

     energy             new  =   -2246.1929547942 Ry

     new trust radius        =       0.1592834683 bohr
     new conv_thr            =       0.0000010000 Ry


ATOMIC_POSITIONS (angstrom)
Mo            6.5861672838        1.7751109582        2.8216488405
S             8.1646880496        0.8180977546        4.4339056168
S             8.1884174477        0.8155388483        1.2747025128
Mo            8.0974507090        4.4988163311        2.7172631564
S             6.4985951036        3.7187272021        4.3442401564
S             6.5540818626        3.5180861189        1.1203600757
Mo            6.4942206028        7.2101698802        2.6677154938
S             8.0821716509        6.3422402306        4.2514883733
S             8.0874720384        6.3078988099        1.0900183566
Mo            8.1568195557        9.9057178674        2.8292467877
S             6.4978280527        8.9420326714        4.3801752243
S             6.6189313108        9.0490335956        1.1420021902
Mo            3.4282705915        1.7584525823        2.7605335401
S             4.9903080579        0.8226801533        4.3435052012
S             5.0518641059        0.8481585489        1.2231326503
Mo            4.9791747789        4.5187722725        2.6356988146
S             3.4311211108        3.6719030396        4.2813806149
S             3.4372230838        3.5466300088        1.0653362220
Mo            3.4584457792        7.2049025023        2.6265862408
S             4.9850561322        6.3254775625        1.0375786300
Mo            5.0084806802        9.9052587484        2.7420303071
S             3.4706610326        8.9381500508        4.3125765576
S             3.4080882756        9.0661125688        1.1018254664
Mo            0.2864153623        1.7627429793        2.8350790550
S             1.9182542103        0.7575765969        4.4339260834
S             1.8544785464        0.8540458549        1.2073551725
Mo            1.8611531805        4.4912013566        2.6630712362
S             0.2709775120        3.6556379202        4.3338579474
S             0.2312350964        3.5241557614        1.1701906475
Mo            0.2685196088        7.2232958710        2.6998148981
S             1.9029266011        6.3124476398        4.2311949715
S             1.8565641543        6.3142093094        1.0480622210
Mo            1.8436395202        9.9309623629        2.7534355561
S             0.2979233831        9.0676652317        4.4107252256
S             0.2716429986        9.0472324579        1.1586168970
O             3.0853328750        0.0318047620        5.3720589307



     Writing config-only to output data dir ./MoS2-V-O.save/
     NEW-OLD atomic charge density approx. for the potential

     negative rho (up, down):  1.885E-04 0.000E+00

     total cpu time spent up to now is      130.8 secs

     Self-consistent Calculation

     iteration #  1     ecut=    80.00 Ry     beta= 0.70
     Davidson diagonalization with overlap
     ethr =  1.00E-06,  avg # of iterations = 15.0

     negative rho (up, down):  1.194E-04 0.000E+00

     total cpu time spent up to now is      145.2 secs

     total energy              =   -2246.24597445 Ry
     estimated scf accuracy    <       0.02318532 Ry

     iteration #  2     ecut=    80.00 Ry     beta= 0.70
     Davidson diagonalization with overlap
     ethr =  7.43E-06,  avg # of iterations =  6.0

     negative rho (up, down):  1.322E-04 0.000E+00

     total cpu time spent up to now is      160.4 secs

     total energy              =   -2246.24988693 Ry
     estimated scf accuracy    <       0.00935256 Ry

     iteration #  3     ecut=    80.00 Ry     beta= 0.70
     Davidson diagonalization with overlap
     ethr =  3.00E-06,  avg # of iterations =  4.0

     negative rho (up, down):  1.134E-04 0.000E+00

     total cpu time spent up to now is      174.4 secs

     total energy              =   -2246.25079410 Ry
     estimated scf accuracy    <       0.00052372 Ry

     iteration #  4     ecut=    80.00 Ry     beta= 0.70
     Davidson diagonalization with overlap
     ethr =  1.68E-07,  avg # of iterations =  5.0

     negative rho (up, down):  1.134E-04 0.000E+00

     total cpu time spent up to now is      187.0 secs

     total energy              =   -2246.25086244 Ry
     estimated scf accuracy    <       0.00003753 Ry

     iteration #  5     ecut=    80.00 Ry     beta= 0.70
     Davidson diagonalization with overlap
     ethr =  1.20E-08,  avg # of iterations =  5.0

     negative rho (up, down):  1.181E-04 0.000E+00

     total cpu time spent up to now is      202.2 secs

     total energy              =   -2246.25087245 Ry
     estimated scf accuracy    <       0.00000840 Ry

     iteration #  6     ecut=    80.00 Ry     beta= 0.70
     Davidson diagonalization with overlap
     ethr =  2.69E-09,  avg # of iterations =  2.0

     negative rho (up, down):  1.264E-04 0.000E+00

     total cpu time spent up to now is      214.0 secs

     total energy              =   -2246.25087343 Ry
     estimated scf accuracy    <       0.00000149 Ry

     iteration #  7     ecut=    80.00 Ry     beta= 0.70
     Davidson diagonalization with overlap
     ethr =  4.78E-10,  avg # of iterations =  4.0

     negative rho (up, down):  2.095E-04 0.000E+00

     total cpu time spent up to now is      217.8 secs

     End of self-consistent calculation

          k = 0.0000 0.0000 0.0000 (105382 PWs)   bands (ev):

   -63.1352 -62.9898 -62.9734 -62.9202 -62.9061 -62.8900 -62.8696 -62.8643
   -62.8429 -62.8332 -62.8133 -62.7993 -37.4139 -37.3635 -37.2768 -37.2557
   -37.2415 -37.2248 -37.2082 -37.1637 -37.1597 -37.1483 -37.1426 -37.1403
   -37.1163 -37.1014 -37.0926 -37.0854 -37.0741 -37.0553 -37.0496 -37.0414
   -37.0240 -37.0204 -37.0164 -37.0025 -37.0006 -36.9894 -36.9866 -36.9714
   -36.9698 -36.9436 -36.9356 -36.9260 -36.9013 -36.8661 -36.8328 -36.7749
   -21.0280 -16.0020 -15.2836 -15.1804 -15.0373 -15.0005 -14.8254 -14.6415
   -14.5650 -14.5327 -14.4871 -14.4650 -14.4518 -14.3744 -14.3123 -14.2509
   -14.2174 -14.2060 -14.1176 -14.0153 -13.9410 -13.9333 -13.8926 -13.7862
    -7.9693  -7.7923  -7.5970  -7.4946  -7.4203  -7.3632  -7.3468  -7.2698
    -7.2288  -7.0863  -6.8945  -6.8737  -6.8423  -6.7845  -6.6818  -6.6391
    -6.5338  -6.5007  -6.3836  -6.3487  -6.1661  -6.1082  -5.9959  -5.9188
    -5.9057  -5.8791  -5.7960  -5.7673  -5.7368  -5.6829  -5.6723  -5.6047
    -5.5900  -5.5104  -5.4602  -5.4360  -5.2441  -5.2039  -5.1396  -5.0902
    -5.0745  -5.0206  -4.9173  -4.7907  -4.7266  -4.5628  -4.4488  -4.4011
    -4.3466  -4.3122  -4.1721  -4.1454  -4.0209  -3.9869  -3.9204  -3.8600
    -3.8209  -3.7827  -3.6971  -3.6654  -3.6156  -3.5926  -3.5589  -3.5357
    -3.4749  -3.4653  -3.3259  -3.2548  -3.0622  -3.0184  -2.9173  -2.8936
    -2.8693  -2.8155  -2.7645  -2.7422  -2.7223  -2.6429  -2.4080  -2.3433
    -2.1377  -2.0490  -2.0209  -1.8623  -1.2629  -0.8710  -0.7858  -0.2534
    -0.2118  -0.1582  -0.0734  -0.0397   0.0516   0.0662   0.1793   0.1993
     0.2669   0.2886   0.3455   0.3796   0.4677   0.4891   0.5274   0.5557
     0.5852   0.6375   0.6920   0.7263   0.7599   0.7735   0.8663   0.9028
     0.9089   0.9485   1.1916

     the Fermi energy is    -1.5626 ev

!    total energy              =   -2246.25087325 Ry
     estimated scf accuracy    <       0.00000065 Ry
     smearing contrib. (-TS)   =      -0.00008827 Ry
     internal energy E=F+TS    =   -2246.25078498 Ry

     The total energy is F=E-TS. E is the sum of the following terms:
     one-electron contribution =  -18456.72167954 Ry
     hartree contribution      =    9216.48299798 Ry
     xc contribution           =    -392.03750970 Ry
     ewald contribution        =    7395.89113041 Ry
     one-center paw contrib.   =      -9.86572412 Ry

     convergence has been achieved in   7 iterations

     negative rho (up, down):  2.095E-04 0.000E+00

     Forces acting on atoms (cartesian axes, Ry/au):

     atom    1 type  1   force =     0.00790686   -0.01179157   -0.00295094
     atom    2 type  2   force =    -0.01200555    0.01253207   -0.00632075
     atom    3 type  2   force =    -0.00602542    0.00676083   -0.01249139
     atom    4 type  1   force =     0.00416066    0.00430029    0.00197676
     atom    5 type  2   force =     0.00012382   -0.00637510   -0.00501292
     atom    6 type  2   force =     0.00119273    0.00889523    0.00020926
     atom    7 type  1   force =     0.00599303   -0.00927269   -0.00123330
     atom    8 type  2   force =     0.00134258   -0.00295062    0.01239060
     atom    9 type  2   force =     0.01146122    0.00528236    0.00696798
     atom   10 type  1   force =    -0.00111377    0.00708005   -0.00833900
     atom   11 type  2   force =     0.00369438   -0.00177699   -0.00942250
     atom   12 type  2   force =    -0.00133854   -0.00042872    0.00037961
     atom   13 type  1   force =     0.00826922    0.01116612   -0.01742261
     atom   14 type  2   force =     0.02300888    0.01007493   -0.01317009
     atom   15 type  2   force =    -0.00678921    0.00202746   -0.01032883
     atom   16 type  1   force =    -0.00001088    0.00866356    0.00297641
     atom   17 type  2   force =     0.00538968    0.00033061    0.00303128
     atom   18 type  2   force =    -0.00021657    0.00187039    0.00700796
     atom   19 type  1   force =     0.00427632   -0.01395257   -0.00275780
     atom   20 type  2   force =     0.00460000   -0.00402600   -0.00359867
     atom   21 type  1   force =    -0.00305270    0.00447767   -0.00001030
     atom   22 type  2   force =     0.00006529   -0.01639514   -0.02381821
     atom   23 type  2   force =     0.00174270   -0.00135987    0.00310000
     atom   24 type  1   force =    -0.00302683    0.00799010    0.00332996
     atom   25 type  2   force =     0.10415494   -0.05531676    0.02415870
     atom   26 type  2   force =    -0.01074076    0.00217098   -0.00408034
     atom   27 type  1   force =    -0.00119879   -0.00489455    0.00711444
     atom   28 type  2   force =    -0.00206839    0.00203591   -0.00589730
     atom   29 type  2   force =    -0.00114830   -0.00170491   -0.00740057
     atom   30 type  1   force =    -0.00500025    0.00396450    0.00352984
     atom   31 type  2   force =     0.00144738   -0.00136900    0.01132145
     atom   32 type  2   force =    -0.00845289    0.00501577    0.00547691
     atom   33 type  1   force =    -0.00093437   -0.00933104   -0.01732452
     atom   34 type  2   force =     0.00114554   -0.03030793   -0.01250756
     atom   35 type  2   force =    -0.01121654    0.00486862    0.00392242
     atom   36 type  3   force =    -0.11563552    0.06174604    0.06719406
     The non-local contrib.  to forces
     atom    1 type  1   force =    -0.01725114    0.02323350   -0.00684457
     atom    2 type  2   force =    -0.00900501   -0.00040854   -0.27124925
     atom    3 type  2   force =    -0.00745258   -0.00186662    0.26703213
     atom    4 type  1   force =    -0.00253479    0.01122334    0.00446391
     atom    5 type  2   force =     0.00623324   -0.03199879   -0.25754905
     atom    6 type  2   force =    -0.00263866    0.01066631    0.26355025
     atom    7 type  1   force =    -0.01857501    0.00397433   -0.02099028
     atom    8 type  2   force =     0.00509349   -0.00271655   -0.25860117
     atom    9 type  2   force =     0.00541027   -0.00860654    0.27537117
     atom   10 type  1   force =     0.00065510   -0.00113459   -0.00125666
     atom   11 type  2   force =     0.01545713    0.00418411   -0.26417234
     atom   12 type  2   force =    -0.01260302   -0.01778651    0.26287219
     atom   13 type  1   force =    -0.00628381    0.01849531    0.01283823
     atom   14 type  2   force =     0.00220390   -0.01312048   -0.26238147
     atom   15 type  2   force =    -0.00999061   -0.00483594    0.25496968
     atom   16 type  1   force =     0.00172790    0.02584706   -0.02671909
     atom   17 type  2   force =     0.00208161   -0.03252226   -0.25049081
     atom   18 type  2   force =    -0.00407677    0.00136631    0.26884370
     atom   19 type  1   force =     0.01724783    0.02199737   -0.00877790
     atom   20 type  2   force =    -0.00039838   -0.02292227    0.26512366
     atom   21 type  1   force =     0.00546843    0.02223502    0.00953299
     atom   22 type  2   force =     0.00594053    0.01923943   -0.23771016
     atom   23 type  2   force =     0.00769925   -0.01665638    0.26309827
     atom   24 type  1   force =    -0.01834738    0.00338332   -0.01667491
     atom   25 type  2   force =     0.35922184   -0.18415011    0.12356819
     atom   26 type  2   force =    -0.00255133   -0.00958496    0.26624502
     atom   27 type  1   force =    -0.00127914    0.01261452    0.00830515
     atom   28 type  2   force =    -0.00450498   -0.01882289   -0.26900177
     atom   29 type  2   force =     0.00348467   -0.00185992    0.26780868
     atom   30 type  1   force =     0.00036482    0.01974036    0.00967735
     atom   31 type  2   force =    -0.00953378   -0.00276496   -0.25462935
     atom   32 type  2   force =    -0.00421022   -0.01249223    0.27439264
     atom   33 type  1   force =    -0.00790071    0.01192040    0.01835606
     atom   34 type  2   force =     0.00277304   -0.02717712   -0.28028504
     atom   35 type  2   force =    -0.00491310   -0.01231195    0.26371343
     atom   36 type  3   force =    -1.14702894    0.76714058   -0.93058047
     The ionic contribution  to forces
     atom    1 type  1   force =     0.97624243    1.25051944    3.98988477
     atom    2 type  2   force =    -0.54293599    0.47029472   39.01421870
     atom    3 type  2   force =    -0.14533348    0.05255188  -36.85406837
     atom    4 type  1   force =    -0.02540149    0.83611767   -0.16200029
     atom    5 type  2   force =    -0.71475726    1.82840555   38.46620790
     atom    6 type  2   force =     0.37036157   -0.38781177  -38.49195798
     atom    7 type  1   force =    -2.34719449   -3.06567665    1.42099059
     atom    8 type  2   force =    -1.00934994   -0.09951721   37.34985924
     atom    9 type  2   force =     0.34270827   -0.12209446  -38.46866581
     atom   10 type  1   force =    -1.10696060   -0.61140842    3.98032846
     atom   11 type  2   force =     0.06141023   -2.14381918   38.71949967
     atom   12 type  2   force =     0.46055586    0.49229707  -38.46272631
     atom   13 type  1   force =     0.53379733    3.05654287   -1.79130354
     atom   14 type  2   force =     2.85036963    1.26443454   36.71083482
     atom   15 type  2   force =     0.43443806    0.05843892  -37.82095446
     atom   16 type  1   force =     0.40943192    4.26247429   -0.43754439
     atom   17 type  2   force =     0.86384484    2.41914710   37.55727291
     atom   18 type  2   force =    -0.12693202   -0.32581014  -39.23208084
     atom   19 type  1   force =     2.76693175   -3.41055185   -1.02776306
     atom   20 type  2   force =     0.29754781   -0.26751972  -39.09176994
     atom   21 type  1   force =     1.84780072   -1.17995572   -2.05358033
     atom   22 type  2   force =     1.01782080   -4.83936545   36.53125013
     atom   23 type  2   force =     0.02959452    0.32333749  -39.21434959
     atom   24 type  1   force =    -1.04395212    1.40316511    3.98714207
     atom   25 type  2   force =    -4.70570941    3.51019658   35.14110440
     atom   26 type  2   force =    -0.49717652    0.22448604  -38.25934542
     atom   27 type  1   force =    -0.29116558    1.09309771   -3.21972708
     atom   28 type  2   force =    -0.22345440    1.35975583   37.99430088
     atom   29 type  2   force =    -0.33015719   -0.15247672  -37.91271457
     atom   30 type  1   force =    -0.65680490   -1.73864217   -1.13853683
     atom   31 type  2   force =     1.04511914   -0.38228375   37.11295918
     atom   32 type  2   force =    -0.53634144   -0.14382252  -39.12711970
     atom   33 type  1   force =    -1.16219707   -1.80622755   -2.92344809
     atom   34 type  2   force =    -0.77957577   -1.95719274   38.79714372
     atom   35 type  2   force =    -0.47599649    0.29299494  -38.51796137
     atom   36 type  3   force =     2.41342127   -1.56408170   47.43462053
     The local contribution  to forces
     atom    1 type  1   force =    -0.95099893   -1.28539693   -3.98679192
     atom    2 type  2   force =     0.53976698   -0.45720196  -38.77063690
     atom    3 type  2   force =     0.14649700   -0.04392630   36.59528358
     atom    4 type  1   force =     0.03211697   -0.84267741    0.15892928
     atom    5 type  2   force =     0.70930958   -1.80432793  -38.23454796
     atom    6 type  2   force =    -0.36678576    0.38725913   38.24930715
     atom    7 type  1   force =     2.37179049    3.05244344   -1.40184338
     atom    8 type  2   force =     1.00576812    0.09881405  -37.09985391
     atom    9 type  2   force =    -0.33663876    0.13555685   38.22122174
     atom   10 type  1   force =     1.10519882    0.61918735   -3.98818317
     atom   11 type  2   force =    -0.07242350    2.13810085  -38.48596088
     atom   12 type  2   force =    -0.45032240   -0.47643708   38.22093772
     atom   13 type  1   force =    -0.51927558   -3.06370118    1.76011747
     atom   14 type  2   force =    -2.82828859   -1.24107299  -36.48334088
     atom   15 type  2   force =    -0.43188501   -0.05190305   37.57576666
     atom   16 type  1   force =    -0.41116086   -4.27930162    0.46663098
     atom   17 type  2   force =    -0.86063531   -2.38776265  -37.32441844
     atom   18 type  2   force =     0.13067191    0.32705076   38.99103237
     atom   19 type  1   force =    -2.77992963    3.37457810    1.03317188
     atom   20 type  2   force =    -0.29269333    0.28559550   38.84415162
     atom   21 type  1   force =    -1.85629079    1.16170436    2.04314334
     atom   22 type  2   force =    -1.02296453    4.80366247  -36.33792086
     atom   23 type  2   force =    -0.03507482   -0.30944057   38.97490658
     atom   24 type  1   force =     1.05924201   -1.39844727   -3.96792728
     atom   25 type  2   force =     4.47101866   -3.39207248  -35.23999455
     atom   26 type  2   force =     0.48912331   -0.21327301   38.00990036
     atom   27 type  1   force =     0.29119195   -1.11020949    3.21792873
     atom   28 type  2   force =     0.22564115   -1.34040809  -37.75242476
     atom   29 type  2   force =     0.32592155    0.15294252   37.65830366
     atom   30 type  1   force =     0.65143420    1.72275037    1.13181177
     atom   31 type  2   force =    -1.03464686    0.38340693  -36.86787056
     atom   32 type  2   force =     0.53216895    0.16067582   38.87919198
     atom   33 type  1   force =     1.16911645    1.78454539    2.88678988
     atom   34 type  2   force =     0.77768561    1.95303972  -38.55124167
     atom   35 type  2   force =     0.46967483   -0.27689889   38.27893861
     atom   36 type  3   force =    -1.39526908    0.86744855  -46.44700623
     The core correction contribution to forces
     atom    1 type  1   force =     0.00000000    0.00000000    0.00000000
     atom    2 type  2   force =     0.00015172   -0.00013954    0.02088053
     atom    3 type  2   force =     0.00026267   -0.00004247   -0.02086506
     atom    4 type  1   force =     0.00000000    0.00000000    0.00000000
     atom    5 type  2   force =    -0.00062774    0.00170430    0.02052576
     atom    6 type  2   force =     0.00027270   -0.00112831   -0.02080164
     atom    7 type  1   force =     0.00000000    0.00000000    0.00000000
     atom    8 type  2   force =    -0.00016149    0.00052054    0.02062259
     atom    9 type  2   force =    -0.00002595    0.00050009   -0.02103415
     atom   10 type  1   force =     0.00000000    0.00000000    0.00000000
     atom   11 type  2   force =    -0.00071778   -0.00046269    0.02080875
     atom   12 type  2   force =     0.00102468    0.00136506   -0.02084514
     atom   13 type  1   force =     0.00000000    0.00000000    0.00000000
     atom   14 type  2   force =    -0.00111938   -0.00010474    0.02119151
     atom   15 type  2   force =     0.00061563    0.00029069   -0.02030579
     atom   16 type  1   force =     0.00000000    0.00000000    0.00000000
     atom   17 type  2   force =     0.00007586    0.00164561    0.02032034
     atom   18 type  2   force =     0.00009469   -0.00065959   -0.02093627
     atom   19 type  1   force =     0.00000000    0.00000000    0.00000000
     atom   20 type  2   force =     0.00013529    0.00092448   -0.02122853
     atom   21 type  1   force =     0.00000000    0.00000000    0.00000000
     atom   22 type  2   force =    -0.00071001   -0.00030418    0.02011797
     atom   23 type  2   force =    -0.00049707    0.00128990   -0.02070816
     atom   24 type  1   force =     0.00000000    0.00000000    0.00000000
     atom   25 type  2   force =    -0.02052547    0.01080931   -0.00116698
     atom   26 type  2   force =    -0.00013317    0.00049241   -0.02099944
     atom   27 type  1   force =     0.00000000    0.00000000    0.00000000
     atom   28 type  2   force =     0.00022356    0.00168376    0.02083507
     atom   29 type  2   force =    -0.00039496   -0.00021334   -0.02087981
     atom   30 type  1   force =     0.00000000    0.00000000    0.00000000
     atom   31 type  2   force =     0.00050272    0.00032189    0.02050873
     atom   32 type  2   force =    -0.00006554    0.00072234   -0.02105029
     atom   33 type  1   force =     0.00000000    0.00000000    0.00000000
     atom   34 type  2   force =     0.00021740    0.00078458    0.02144460
     atom   35 type  2   force =     0.00003007    0.00098266   -0.02090069
     atom   36 type  3   force =     0.01293715   -0.00868232    0.00974745
     The Hubbard contrib.    to forces
     atom    1 type  1   force =     0.00000000    0.00000000    0.00000000
     atom    2 type  2   force =     0.00000000    0.00000000    0.00000000
     atom    3 type  2   force =     0.00000000    0.00000000    0.00000000
     atom    4 type  1   force =     0.00000000    0.00000000    0.00000000
     atom    5 type  2   force =     0.00000000    0.00000000    0.00000000
     atom    6 type  2   force =     0.00000000    0.00000000    0.00000000
     atom    7 type  1   force =     0.00000000    0.00000000    0.00000000
     atom    8 type  2   force =     0.00000000    0.00000000    0.00000000
     atom    9 type  2   force =     0.00000000    0.00000000    0.00000000
     atom   10 type  1   force =     0.00000000    0.00000000    0.00000000
     atom   11 type  2   force =     0.00000000    0.00000000    0.00000000
     atom   12 type  2   force =     0.00000000    0.00000000    0.00000000
     atom   13 type  1   force =     0.00000000    0.00000000    0.00000000
     atom   14 type  2   force =     0.00000000    0.00000000    0.00000000
     atom   15 type  2   force =     0.00000000    0.00000000    0.00000000
     atom   16 type  1   force =     0.00000000    0.00000000    0.00000000
     atom   17 type  2   force =     0.00000000    0.00000000    0.00000000
     atom   18 type  2   force =     0.00000000    0.00000000    0.00000000
     atom   19 type  1   force =     0.00000000    0.00000000    0.00000000
     atom   20 type  2   force =     0.00000000    0.00000000    0.00000000
     atom   21 type  1   force =     0.00000000    0.00000000    0.00000000
     atom   22 type  2   force =     0.00000000    0.00000000    0.00000000
     atom   23 type  2   force =     0.00000000    0.00000000    0.00000000
     atom   24 type  1   force =     0.00000000    0.00000000    0.00000000
     atom   25 type  2   force =     0.00000000    0.00000000    0.00000000
     atom   26 type  2   force =     0.00000000    0.00000000    0.00000000
     atom   27 type  1   force =     0.00000000    0.00000000    0.00000000
     atom   28 type  2   force =     0.00000000    0.00000000    0.00000000
     atom   29 type  2   force =     0.00000000    0.00000000    0.00000000
     atom   30 type  1   force =     0.00000000    0.00000000    0.00000000
     atom   31 type  2   force =     0.00000000    0.00000000    0.00000000
     atom   32 type  2   force =     0.00000000    0.00000000    0.00000000
     atom   33 type  1   force =     0.00000000    0.00000000    0.00000000
     atom   34 type  2   force =     0.00000000    0.00000000    0.00000000
     atom   35 type  2   force =     0.00000000    0.00000000    0.00000000
     atom   36 type  3   force =     0.00000000    0.00000000    0.00000000
     The SCF correction term to forces
     atom    1 type  1   force =    -0.00008988   -0.00014490    0.00078601
     atom    2 type  2   force =     0.00001237   -0.00000992    0.00045140
     atom    3 type  2   force =    -0.00000340    0.00004702    0.00011156
     atom    4 type  1   force =    -0.00002441   -0.00036063    0.00056909
     atom    5 type  2   force =    -0.00003837   -0.00015555    0.00033564
     atom    6 type  2   force =    -0.00002151   -0.00008746    0.00009671
     atom    7 type  1   force =    -0.00003235   -0.00001113    0.00059500
     atom    8 type  2   force =    -0.00001198   -0.00004875    0.00034908
     atom    9 type  2   force =     0.00000301   -0.00007090    0.00006026
     atom   10 type  1   force =    -0.00001147    0.00043839    0.00075760
     atom   11 type  2   force =    -0.00003607    0.00022260    0.00038753
     atom   12 type  2   force =     0.00000196    0.00013542    0.00012638
     atom   13 type  1   force =     0.00002690   -0.00016819    0.00091046
     atom   14 type  2   force =    -0.00016105   -0.00005872    0.00051115
     atom   15 type  2   force =     0.00002834    0.00003952    0.00018030
     atom   16 type  1   force =    -0.00001422   -0.00035350    0.00059413
     atom   17 type  2   force =     0.00001830   -0.00017451    0.00033250
     atom   18 type  2   force =     0.00002125   -0.00007427    0.00013423
     atom   19 type  1   force =     0.00002198    0.00002648    0.00059651
     atom   20 type  2   force =     0.00000423   -0.00010132    0.00010975
     atom   21 type  1   force =    -0.00003545    0.00049668    0.00087893
     atom   22 type  2   force =    -0.00002587    0.00037527    0.00042995
     atom   23 type  2   force =     0.00001644    0.00011237    0.00013812
     atom   24 type  1   force =     0.00002628   -0.00010839    0.00077531
     atom   25 type  2   force =     0.00014494   -0.00009737    0.00063287
     atom   26 type  2   force =    -0.00000744    0.00005318    0.00010438
     atom   27 type  1   force =     0.00004961   -0.00039461    0.00059287
     atom   28 type  2   force =     0.00002190   -0.00017002    0.00037850
     atom   29 type  2   force =    -0.00000675   -0.00009477    0.00006670
     atom   30 type  1   force =     0.00000125    0.00011861    0.00056278
     atom   31 type  2   force =     0.00000179   -0.00004642    0.00033868
     atom   32 type  2   force =    -0.00000903   -0.00006496    0.00004751
     atom   33 type  1   force =     0.00004257    0.00043340    0.00096286
     atom   34 type  2   force =     0.00004088    0.00024032    0.00041606
     atom   35 type  2   force =    -0.00001623    0.00010454    0.00011767
     atom   36 type  3   force =     0.00029970   -0.00007638    0.00039801

     Total force =     0.207399     Total SCF correction =     0.003223
     Energy error            =      5.8E-02 Ry
     Gradient error          =      1.2E-01 Ry/Bohr

     number of scf cycles    =   2
     number of bfgs steps    =   1

     energy             old  =   -2246.1929547942 Ry
     energy             new  =   -2246.2508732479 Ry

     CASE: energy            _new < energy            _old

     new trust radius        =       0.1752118151 bohr
     new conv_thr            =       0.0000001156 Ry


ATOMIC_POSITIONS (angstrom)
Mo            6.5931746163        1.7659358892        2.8196783086
S             8.1555954160        0.8264455117        4.4306864468
S             8.1841891634        0.8199786857        1.2678092414
Mo            8.1000849339        4.5019227949        2.7180626205
S             6.4982930207        3.7146418741        4.3411589286
S             6.5548579660        3.5241188805        1.1202076036
Mo            6.4982745341        7.2034270943        2.6659737922
S             8.0829406283        6.3403698944        4.2599422371
S             8.0947976163        6.3113234432        1.0950694920
Mo            8.1552371499        9.9101023824        2.8213166707
S             6.5003401322        8.9409304902        4.3748293605
S             6.6185573595        9.0489158000        1.1427617069
Mo            3.4340739979        1.7669964325        2.7477532418
S             5.0055606814        0.8291134293        4.3352260442
S             5.0469502110        0.8496572886        1.2171862466
Mo            4.9790093631        4.5244858025        2.6379073471
S             3.4346202772        3.6721458095        4.2833008957
S             3.4369267594        3.5470910069        1.0706348572
Mo            3.4617676925        7.1950368493        2.6241316882
S             4.9877736802        6.3231376175        1.0359344105
Mo            5.0059686720        9.9084229490        2.7416480586
S             3.4706107123        8.9287099405        4.2975197465
S             3.4088339838        9.0657664606        1.1049036043
Mo            0.2822940111        1.7707853600        2.8327289475
S             1.9870910547        0.7212614495        4.4553958670
S             1.8475641583        0.8549871005        1.2048263835
Mo            1.8607028038        4.4876142680        2.6672896560
S             0.2696407546        3.6569597870        4.3299912747
S             0.2306829768        3.5224829134        1.1661224747
Mo            0.2653861166        7.2270361799        2.7009974757
S             1.9038133512        6.3116914574        4.2390578169
S             1.8509301486        6.3176896629        1.0516649297
Mo            1.8429947412        9.9239411472        2.7397189839
S             0.2990286514        9.0469171791        4.4038342592
S             0.2648278148        9.0505982242        1.1627680880
O             3.0112051949        0.0703053542        5.4123011652



     Writing config-only to output data dir ./MoS2-V-O.save/
     NEW-OLD atomic charge density approx. for the potential

     negative rho (up, down):  1.697E-04 0.000E+00

     total cpu time spent up to now is      225.2 secs

     Self-consistent Calculation

     iteration #  1     ecut=    80.00 Ry     beta= 0.70
     Davidson diagonalization with overlap
     ethr =  1.00E-06,  avg # of iterations = 12.0

     negative rho (up, down):  8.510E-05 0.000E+00

     total cpu time spent up to now is      240.2 secs

     total energy              =   -2246.28874883 Ry
     estimated scf accuracy    <       0.01843971 Ry

     iteration #  2     ecut=    80.00 Ry     beta= 0.70
     Davidson diagonalization with overlap
     ethr =  5.91E-06,  avg # of iterations =  5.0

     negative rho (up, down):  8.090E-05 0.000E+00

     total cpu time spent up to now is      250.6 secs

     total energy              =   -2246.29267824 Ry
     estimated scf accuracy    <       0.00842005 Ry

     iteration #  3     ecut=    80.00 Ry     beta= 0.70
     Davidson diagonalization with overlap
     ethr =  2.70E-06,  avg # of iterations =  3.0

     negative rho (up, down):  5.623E-05 0.000E+00

     total cpu time spent up to now is      265.2 secs

     total energy              =   -2246.29327963 Ry
     estimated scf accuracy    <       0.00065417 Ry

     iteration #  4     ecut=    80.00 Ry     beta= 0.70
     Davidson diagonalization with overlap
     ethr =  2.10E-07,  avg # of iterations =  5.0

     negative rho (up, down):  5.125E-05 0.000E+00

     total cpu time spent up to now is      280.7 secs

     total energy              =   -2246.29334944 Ry
     estimated scf accuracy    <       0.00005475 Ry

     iteration #  5     ecut=    80.00 Ry     beta= 0.70
     Davidson diagonalization with overlap
     ethr =  1.75E-08,  avg # of iterations =  5.0

     negative rho (up, down):  5.277E-05 0.000E+00

     total cpu time spent up to now is      293.9 secs

     total energy              =   -2246.29335811 Ry
     estimated scf accuracy    <       0.00000901 Ry

     iteration #  6     ecut=    80.00 Ry     beta= 0.70
     Davidson diagonalization with overlap
     ethr =  2.89E-09,  avg # of iterations =  5.0

     negative rho (up, down):  5.935E-05 0.000E+00

     total cpu time spent up to now is      306.1 secs

     total energy              =   -2246.29336016 Ry
     estimated scf accuracy    <       0.00000277 Ry

     iteration #  7     ecut=    80.00 Ry     beta= 0.70
     Davidson diagonalization with overlap
     ethr =  8.87E-10,  avg # of iterations =  2.0

     negative rho (up, down):  7.174E-05 0.000E+00

     total cpu time spent up to now is      314.7 secs

     total energy              =   -2246.29336051 Ry
     estimated scf accuracy    <       0.00000116 Ry

     iteration #  8     ecut=    80.00 Ry     beta= 0.70
     Davidson diagonalization with overlap
     ethr =  3.70E-10,  avg # of iterations =  5.0

     negative rho (up, down):  9.638E-05 0.000E+00

     total cpu time spent up to now is      329.3 secs

     total energy              =   -2246.29336079 Ry
     estimated scf accuracy    <       0.00000031 Ry

     iteration #  9     ecut=    80.00 Ry     beta= 0.70
     Davidson diagonalization with overlap
     ethr =  9.98E-11,  avg # of iterations =  2.0

     negative rho (up, down):  2.089E-04 0.000E+00

     total cpu time spent up to now is      332.9 secs

     End of self-consistent calculation

          k = 0.0000 0.0000 0.0000 (105382 PWs)   bands (ev):

   -63.1180 -62.9793 -62.9685 -62.9157 -62.8985 -62.8893 -62.8792 -62.8588
   -62.8558 -62.8147 -62.7907 -62.7663 -37.3861 -37.3467 -37.2720 -37.2445
   -37.2353 -37.2140 -37.2022 -37.1558 -37.1501 -37.1444 -37.1346 -37.1332
   -37.1081 -37.0913 -37.0830 -37.0770 -37.0720 -37.0664 -37.0509 -37.0457
   -37.0209 -37.0178 -37.0137 -36.9979 -36.9816 -36.9782 -36.9644 -36.9632
   -36.9506 -36.9454 -36.9322 -36.9029 -36.8829 -36.8531 -36.8169 -36.7813
   -22.1591 -16.0015 -15.2745 -15.1777 -15.0076 -14.9780 -14.8269 -14.5943
   -14.5412 -14.5171 -14.4722 -14.4492 -14.4362 -14.3701 -14.3081 -14.2401
   -14.2053 -14.1920 -14.1009 -14.0107 -13.9358 -13.9295 -13.8800 -13.5957
    -8.0912  -7.8483  -7.6637  -7.5127  -7.4631  -7.3641  -7.3452  -7.2694
    -7.2335  -7.1112  -6.9218  -6.8853  -6.8431  -6.7760  -6.7082  -6.6282
    -6.5326  -6.5169  -6.4016  -6.3557  -6.1501  -6.1082  -5.9866  -5.9183
    -5.9002  -5.8632  -5.7939  -5.7462  -5.7376  -5.6834  -5.6663  -5.6024
    -5.5923  -5.4941  -5.4522  -5.4333  -5.2397  -5.2039  -5.1260  -5.0824
    -5.0734  -5.0228  -4.9233  -4.7936  -4.7279  -4.5806  -4.4668  -4.3982
    -4.3421  -4.2968  -4.1972  -4.1655  -4.0438  -3.9912  -3.9304  -3.8580
    -3.8132  -3.7699  -3.6943  -3.6833  -3.6128  -3.5833  -3.5526  -3.5288
    -3.4708  -3.4446  -3.3061  -3.2567  -3.0569  -3.0335  -2.9281  -2.8905
    -2.8704  -2.8047  -2.7773  -2.7470  -2.7223  -2.6359  -2.4648  -2.3500
    -2.2892  -2.0658  -2.0296  -1.8848  -1.1295  -0.8471  -0.7774  -0.2463
    -0.2015  -0.1390  -0.0666  -0.0129   0.0709   0.0869   0.1883   0.2207
     0.2819   0.2999   0.3647   0.3956   0.4721   0.5043   0.5445   0.5610
     0.6059   0.6512   0.7024   0.7346   0.7722   0.7907   0.8800   0.8999
     0.9299   0.9640   1.2052

     the Fermi energy is    -1.5071 ev

!    total energy              =   -2246.29336077 Ry
     estimated scf accuracy    <       0.00000010 Ry
     smearing contrib. (-TS)   =      -0.00000509 Ry
     internal energy E=F+TS    =   -2246.29335568 Ry

     The total energy is F=E-TS. E is the sum of the following terms:
     one-electron contribution =  -18452.54759351 Ry
     hartree contribution      =    9214.38741297 Ry
     xc contribution           =    -392.12999475 Ry
     ewald contribution        =    7393.85630562 Ry
     one-center paw contrib.   =      -9.85948601 Ry

     convergence has been achieved in   9 iterations

     negative rho (up, down):  2.089E-04 0.000E+00

     Forces acting on atoms (cartesian axes, Ry/au):

     atom    1 type  1   force =    -0.00088985   -0.00244695   -0.00572146
     atom    2 type  2   force =    -0.00366362    0.00886175   -0.00636710
     atom    3 type  2   force =    -0.00252706    0.00527229   -0.01280460
     atom    4 type  1   force =     0.00346893    0.00169852    0.00183013
     atom    5 type  2   force =     0.00168581   -0.00536180   -0.00476342
     atom    6 type  2   force =     0.00126336    0.00685538    0.00192444
     atom    7 type  1   force =     0.00359077   -0.00483572    0.00130810
     atom    8 type  2   force =     0.00135066   -0.00311286    0.00941913
     atom    9 type  2   force =     0.00979564    0.00428981    0.00406826
     atom   10 type  1   force =    -0.00013600    0.00693883    0.00038597
     atom   11 type  2   force =     0.00267194   -0.00116313   -0.01011396
     atom   12 type  2   force =    -0.00325855   -0.00072544   -0.00057054
     atom   13 type  1   force =     0.00804312   -0.00017267   -0.00579807
     atom   14 type  2   force =     0.01672831    0.00768125   -0.00859224
     atom   15 type  2   force =    -0.00343662    0.00029623   -0.01203740
     atom   16 type  1   force =     0.00067430    0.00598771    0.00103122
     atom   17 type  2   force =     0.00468629    0.00022493    0.00279576
     atom   18 type  2   force =    -0.00021756    0.00632712    0.00209605
     atom   19 type  1   force =     0.00159956   -0.00785346   -0.00136037
     atom   20 type  2   force =     0.00505565   -0.00416705   -0.00528672
     atom   21 type  1   force =     0.00092046    0.00218797   -0.00197333
     atom   22 type  2   force =     0.00096848   -0.01741876   -0.01722157
     atom   23 type  2   force =     0.00336813   -0.00386257   -0.00188672
     atom   24 type  1   force =     0.00288057   -0.00510765    0.01576197
     atom   25 type  2   force =     0.03949290   -0.01663271   -0.04592704
     atom   26 type  2   force =    -0.00923748    0.00376309   -0.00217778
     atom   27 type  1   force =    -0.00255765   -0.00074191    0.00628011
     atom   28 type  2   force =    -0.00136615    0.00163793   -0.00246746
     atom   29 type  2   force =    -0.00050021    0.00104156   -0.00656821
     atom   30 type  1   force =    -0.00363762   -0.00152834    0.00587093
     atom   31 type  2   force =     0.00107929   -0.00204093    0.00740749
     atom   32 type  2   force =    -0.00638664    0.00270857    0.00523162
     atom   33 type  1   force =     0.00361085   -0.00489068   -0.00427584
     atom   34 type  2   force =    -0.00017974   -0.01977613   -0.01403091
     atom   35 type  2   force =    -0.01220998    0.00262044   -0.00318908
     atom   36 type  3   force =    -0.06273029    0.03344538    0.10772267
     The non-local contrib.  to forces
     atom    1 type  1   force =    -0.01039410    0.02240472   -0.00889966
     atom    2 type  2   force =    -0.00182495   -0.00323213   -0.26998025
     atom    3 type  2   force =    -0.00426509   -0.00181486    0.26540181
     atom    4 type  1   force =    -0.00139743    0.01347108    0.00470428
     atom    5 type  2   force =     0.00712996   -0.03204921   -0.25848579
     atom    6 type  2   force =    -0.00241413    0.00729886    0.26597241
     atom    7 type  1   force =    -0.01754062    0.00288191   -0.02232115
     atom    8 type  2   force =     0.00553096   -0.00287165   -0.25973069
     atom    9 type  2   force =     0.00357683   -0.00985219    0.27293193
     atom   10 type  1   force =     0.00073653   -0.00072993   -0.00177121
     atom   11 type  2   force =     0.01413744    0.00460573   -0.26510913
     atom   12 type  2   force =    -0.01341488   -0.01811731    0.26388977
     atom   13 type  1   force =    -0.01519711    0.01573474    0.01768329
     atom   14 type  2   force =     0.01787237   -0.00518638   -0.26935065
     atom   15 type  2   force =    -0.00668756   -0.00482639    0.25506479
     atom   16 type  1   force =    -0.00091512    0.02714786   -0.02898891
     atom   17 type  2   force =     0.00062434   -0.03113455   -0.25075418
     atom   18 type  2   force =    -0.00398444    0.00609297    0.26504204
     atom   19 type  1   force =     0.02017080    0.01571717   -0.01449393
     atom   20 type  2   force =     0.00146406   -0.02170880    0.26285828
     atom   21 type  1   force =     0.00361948    0.02411151    0.00666102
     atom   22 type  2   force =     0.00701571   -0.00285894   -0.25283320
     atom   23 type  2   force =     0.00782687   -0.01908798    0.26197492
     atom   24 type  1   force =    -0.01602954    0.00144810   -0.01748728
     atom   25 type  2   force =     0.28988407   -0.15065457    0.13092708
     atom   26 type  2   force =    -0.00005477   -0.00941817    0.26882712
     atom   27 type  1   force =    -0.00133778    0.01039117    0.00751851
     atom   28 type  2   force =    -0.00302081   -0.01886748   -0.26699296
     atom   29 type  2   force =     0.00224276   -0.00064718    0.26862856
     atom   30 type  1   force =     0.00044592    0.02048253    0.00895285
     atom   31 type  2   force =    -0.00970279   -0.00279371   -0.25953209
     atom   32 type  2   force =    -0.00221426   -0.01419183    0.27429935
     atom   33 type  1   force =    -0.00880575    0.01896819    0.02531966
     atom   34 type  2   force =     0.00163342   -0.01893099   -0.28065992
     atom   35 type  2   force =    -0.00715340   -0.01403695    0.25862277
     atom   36 type  3   force =    -1.35461037    0.90697660   -1.19003997
     The ionic contribution  to forces
[...]
     atom   28 type  2   force =     0.00048461   -0.01370140   -0.27775880
     atom   29 type  2   force =    -0.00011086   -0.00834280    0.26688943
     atom   30 type  1   force =    -0.00463886    0.01786647    0.00405205
     atom   31 type  2   force =    -0.00763178    0.00018918   -0.26783665
     atom   32 type  2   force =     0.00681619   -0.01416490    0.27144855
     atom   33 type  1   force =    -0.00122525    0.01686404    0.01755184
     atom   34 type  2   force =     0.00164633   -0.00690908   -0.27866830
     atom   35 type  2   force =     0.00046787   -0.01253601    0.26495679
     atom   36 type  3   force =     0.01125326    0.00619168   -2.31952252
     The ionic contribution  to forces
     atom    1 type  1   force =    -0.11708190    1.03711385    1.15236775
     atom    2 type  2   force =    -1.16727368   -0.00019971   38.11387162
     atom    3 type  2   force =     0.01719465   -0.09207161  -38.31157446
     atom    4 type  1   force =    -0.52460813    0.85160720   -0.44125463
     atom    5 type  2   force =    -0.80061432    1.44590977   38.02180200
     atom    6 type  2   force =     0.19706026   -0.23117756  -38.41938354
     atom    7 type  1   force =    -2.59738018   -2.01288811    1.79123356
     atom    8 type  2   force =    -1.30082709    0.15308334   38.09620394
     atom    9 type  2   force =     0.29758013   -0.00707972  -38.34883166
     atom   10 type  1   force =    -1.00564730   -0.97538820    1.32377483
     atom   11 type  2   force =    -0.44043425   -1.69775092   38.19711736
     atom   12 type  2   force =     0.21790373    0.19582696  -38.38704835
     atom   13 type  1   force =     1.07738036    1.29117929   -1.21026177
     atom   14 type  2   force =     1.01122561   -0.13610955   37.88918343
     atom   15 type  2   force =     0.04982776   -0.11747429  -38.32109651
     atom   16 type  1   force =     0.37249415    3.85308828    1.04893461
     atom   17 type  2   force =     1.31963874    2.13828743   37.81272246
     atom   18 type  2   force =    -0.18231731   -0.17669516  -38.73738879
     atom   19 type  1   force =     2.79164960   -2.37515388    1.72496396
     atom   20 type  2   force =     0.04153583   -0.04345336  -39.11544886
     atom   21 type  1   force =     0.59050020   -0.82395506   -0.59711175
     atom   22 type  2   force =     1.01382549   -2.31170358   37.92212721
     atom   23 type  2   force =    -0.13701749    0.20864983  -38.72472718
     atom   24 type  1   force =    -0.98002929    0.98817494   -1.74660502
     atom   25 type  2   force =     0.21202706    0.00710302   28.70441723
     atom   26 type  2   force =    -0.06388447   -0.07422925  -38.13846001
     atom   27 type  1   force =     0.13275960    1.22615163   -0.64279617
     atom   28 type  2   force =    -0.51537441    1.51265774   37.60199317
     atom   29 type  2   force =    -0.00012906    0.06913678  -38.42153869
     atom   30 type  1   force =    -0.19431693   -1.18105558    1.19836183
     atom   31 type  2   force =     1.16574977    0.15759035   37.94941593
     atom   32 type  2   force =    -0.34220959   -0.01130188  -38.26531360
     atom   33 type  1   force =     0.43060598   -1.57754511   -1.17316027
     atom   34 type  2   force =    -0.60485991   -1.43936164   38.24664547
     atom   35 type  2   force =    -0.09160150    0.06282585  -38.28481941
     atom   36 type  3   force =     0.12664789    0.08620792   50.49168432
     The local contribution  to forces
     atom    1 type  1   force =     0.11926462   -1.06268539   -1.15429417
     atom    2 type  2   force =     1.16793747    0.00688199  -37.86215822
     atom    3 type  2   force =    -0.01362815    0.10145406   38.06813971
     atom    4 type  1   force =     0.52093995   -0.85847603    0.43542386
     atom    5 type  2   force =     0.79651214   -1.42246347  -37.78394429
     atom    6 type  2   force =    -0.19732716    0.23675720   38.17192355
     atom    7 type  1   force =     2.61218184    2.00892565   -1.76566268
     atom    8 type  2   force =     1.29175099   -0.15418195  -37.84950873
     atom    9 type  2   force =    -0.29101837    0.01913705   38.10110500
     atom   10 type  1   force =     1.00247410    0.96922749   -1.32641741
     atom   11 type  2   force =     0.43570033    1.69682381  -37.95531991
     atom   12 type  2   force =    -0.20996102   -0.18302243   38.14182621
     atom   13 type  1   force =    -1.06981464   -1.30232123    1.19862925
     atom   14 type  2   force =    -1.01088911    0.14013703  -37.63603561
     atom   15 type  2   force =    -0.05055912    0.12731638   38.08134250
     atom   16 type  1   force =    -0.37276787   -3.88750580   -1.01430089
     atom   17 type  2   force =    -1.31506174   -2.11743208  -37.57506674
     atom   18 type  2   force =     0.18185161    0.17874511   38.49274445
     atom   19 type  1   force =    -2.81134365    2.37490941   -1.69806551
     atom   20 type  2   force =    -0.04205413    0.05588264   38.87414095
     atom   21 type  1   force =    -0.58987362    0.79428849    0.59420645
     atom   22 type  2   force =    -1.00740919    2.31104227  -37.67998284
     atom   23 type  2   force =     0.12961221   -0.19578726   38.48144683
     atom   24 type  1   force =     0.97144290   -0.99508867    1.72693831
     atom   25 type  2   force =    -0.20538189   -0.01078641  -28.99122315
     atom   26 type  2   force =     0.06172777    0.08492503   37.88122892
     atom   27 type  1   force =    -0.12779720   -1.22990964    0.64020019
     atom   28 type  2   force =     0.51495452   -1.49991194  -37.34581047
     atom   29 type  2   force =     0.00060497   -0.06171205   38.17562383
     atom   30 type  1   force =     0.19893204    1.16364953   -1.20247203
     atom   31 type  2   force =    -1.15919540   -0.15845603  -37.70246632
     atom   32 type  2   force =     0.33576882    0.02409131   38.01498270
     atom   33 type  1   force =    -0.42975312    1.56120866    1.15581250
     atom   34 type  2   force =     0.60285040    1.44586493  -37.98901080
     atom   35 type  2   force =     0.09090437   -0.05010066   38.04027427
     atom   36 type  3   force =    -0.13819958   -0.09130739  -48.19832044
     The core correction contribution to forces
     atom    1 type  1   force =     0.00000000    0.00000000    0.00000000
     atom    2 type  2   force =     0.00003670    0.00022343    0.02130886
     atom    3 type  2   force =     0.00021372    0.00036796   -0.02076109
     atom    4 type  1   force =     0.00000000    0.00000000    0.00000000
     atom    5 type  2   force =    -0.00037626    0.00104676    0.02056961
     atom    6 type  2   force =     0.00013295   -0.00020958   -0.02090204
     atom    7 type  1   force =     0.00000000    0.00000000    0.00000000
     atom    8 type  2   force =    -0.00050038    0.00025215    0.02099461
     atom    9 type  2   force =     0.00070217    0.00069993   -0.02101039
     atom   10 type  1   force =     0.00000000    0.00000000    0.00000000
     atom   11 type  2   force =    -0.00007819   -0.00031171    0.02073851
     atom   12 type  2   force =     0.00065164    0.00094561   -0.02090059
     atom   13 type  1   force =     0.00000000    0.00000000    0.00000000
     atom   14 type  2   force =    -0.00002688   -0.00016590    0.02137556
     atom   15 type  2   force =    -0.00010863    0.00045911   -0.02057314
     atom   16 type  1   force =     0.00000000    0.00000000    0.00000000
     atom   17 type  2   force =     0.00041335    0.00096355    0.02067950
     atom   18 type  2   force =    -0.00019743   -0.00029230   -0.02082530
     atom   19 type  1   force =     0.00000000    0.00000000    0.00000000
     atom   20 type  2   force =    -0.00006936    0.00056624   -0.02121487
     atom   21 type  1   force =     0.00000000    0.00000000    0.00000000
     atom   22 type  2   force =     0.00017023   -0.00019966    0.02092709
     atom   23 type  2   force =    -0.00060380    0.00097332   -0.02086454
     atom   24 type  1   force =     0.00000000    0.00000000    0.00000000
     atom   25 type  2   force =     0.00028565   -0.00017559   -0.00982789
     atom   26 type  2   force =    -0.00009334    0.00047704   -0.02134372
     atom   27 type  1   force =     0.00000000    0.00000000    0.00000000
     atom   28 type  2   force =     0.00000655    0.00087881    0.02146719
     atom   29 type  2   force =     0.00007246    0.00028660   -0.02081146
     atom   30 type  1   force =     0.00000000    0.00000000    0.00000000
     atom   31 type  2   force =     0.00038912    0.00028265    0.02095854
     atom   32 type  2   force =    -0.00064303    0.00075066   -0.02102730
     atom   33 type  1   force =     0.00000000    0.00000000    0.00000000
     atom   34 type  2   force =    -0.00009795    0.00031007    0.02160697
     atom   35 type  2   force =    -0.00006306    0.00074233   -0.02089102
     atom   36 type  3   force =    -0.00011708   -0.00008817    0.02461488
     The Hubbard contrib.    to forces
     atom    1 type  1   force =     0.00000000    0.00000000    0.00000000
     atom    2 type  2   force =     0.00000000    0.00000000    0.00000000
     atom    3 type  2   force =     0.00000000    0.00000000    0.00000000
     atom    4 type  1   force =     0.00000000    0.00000000    0.00000000
     atom    5 type  2   force =     0.00000000    0.00000000    0.00000000
     atom    6 type  2   force =     0.00000000    0.00000000    0.00000000
     atom    7 type  1   force =     0.00000000    0.00000000    0.00000000
     atom    8 type  2   force =     0.00000000    0.00000000    0.00000000
     atom    9 type  2   force =     0.00000000    0.00000000    0.00000000
     atom   10 type  1   force =     0.00000000    0.00000000    0.00000000
     atom   11 type  2   force =     0.00000000    0.00000000    0.00000000
     atom   12 type  2   force =     0.00000000    0.00000000    0.00000000
     atom   13 type  1   force =     0.00000000    0.00000000    0.00000000
     atom   14 type  2   force =     0.00000000    0.00000000    0.00000000
     atom   15 type  2   force =     0.00000000    0.00000000    0.00000000
     atom   16 type  1   force =     0.00000000    0.00000000    0.00000000
     atom   17 type  2   force =     0.00000000    0.00000000    0.00000000
     atom   18 type  2   force =     0.00000000    0.00000000    0.00000000
     atom   19 type  1   force =     0.00000000    0.00000000    0.00000000
     atom   20 type  2   force =     0.00000000    0.00000000    0.00000000
     atom   21 type  1   force =     0.00000000    0.00000000    0.00000000
     atom   22 type  2   force =     0.00000000    0.00000000    0.00000000
     atom   23 type  2   force =     0.00000000    0.00000000    0.00000000
     atom   24 type  1   force =     0.00000000    0.00000000    0.00000000
     atom   25 type  2   force =     0.00000000    0.00000000    0.00000000
     atom   26 type  2   force =     0.00000000    0.00000000    0.00000000
     atom   27 type  1   force =     0.00000000    0.00000000    0.00000000
     atom   28 type  2   force =     0.00000000    0.00000000    0.00000000
     atom   29 type  2   force =     0.00000000    0.00000000    0.00000000
     atom   30 type  1   force =     0.00000000    0.00000000    0.00000000
     atom   31 type  2   force =     0.00000000    0.00000000    0.00000000
     atom   32 type  2   force =     0.00000000    0.00000000    0.00000000
     atom   33 type  1   force =     0.00000000    0.00000000    0.00000000
     atom   34 type  2   force =     0.00000000    0.00000000    0.00000000
     atom   35 type  2   force =     0.00000000    0.00000000    0.00000000
     atom   36 type  3   force =     0.00000000    0.00000000    0.00000000
     The SCF correction term to forces
     atom    1 type  1   force =     0.00001027    0.00001153   -0.00000525
     atom    2 type  2   force =    -0.00000481    0.00000179   -0.00000264
     atom    3 type  2   force =    -0.00000778   -0.00000609   -0.00000300
     atom    4 type  1   force =    -0.00000885    0.00003127   -0.00000641
     atom    5 type  2   force =     0.00000786    0.00001083    0.00000166
     atom    6 type  2   force =     0.00000148    0.00001692   -0.00000677
     atom    7 type  1   force =     0.00002067   -0.00001751   -0.00004034
     atom    8 type  2   force =     0.00000209   -0.00000667   -0.00000407
     atom    9 type  2   force =    -0.00000675    0.00000228   -0.00000701
     atom   10 type  1   force =    -0.00001441   -0.00002957   -0.00002016
     atom   11 type  2   force =     0.00000894   -0.00000472   -0.00000521
     atom   12 type  2   force =     0.00000089   -0.00001178   -0.00001408
     atom   13 type  1   force =     0.00002901    0.00002524   -0.00002692
     atom   14 type  2   force =     0.00001559    0.00000067    0.00000287
     atom   15 type  2   force =     0.00000975   -0.00000787   -0.00001573
     atom   16 type  1   force =     0.00001843    0.00003262   -0.00001703
     atom   17 type  2   force =     0.00000380    0.00002007   -0.00000016
     atom   18 type  2   force =     0.00000389    0.00001907   -0.00001153
     atom   19 type  1   force =     0.00000444   -0.00002112   -0.00004226
     atom   20 type  2   force =     0.00000534    0.00000399   -0.00002225
     atom   21 type  1   force =     0.00002431   -0.00002762   -0.00003632
     atom   22 type  2   force =     0.00000125   -0.00000984    0.00000388
     atom   23 type  2   force =     0.00000878   -0.00001283   -0.00002145
     atom   24 type  1   force =    -0.00004279    0.00002684   -0.00001055
     atom   25 type  2   force =    -0.00000651   -0.00000578   -0.00000468
     atom   26 type  2   force =    -0.00000243   -0.00000242   -0.00001596
     atom   27 type  1   force =    -0.00001506    0.00004187   -0.00000977
     atom   28 type  2   force =    -0.00000929    0.00001686   -0.00000554
     atom   29 type  2   force =    -0.00000494    0.00001793    0.00000321
     atom   30 type  1   force =    -0.00001075   -0.00002130   -0.00001653
     atom   31 type  2   force =    -0.00001044   -0.00000592   -0.00000189
     atom   32 type  2   force =    -0.00000169   -0.00000053   -0.00000834
     atom   33 type  1   force =    -0.00001101   -0.00005408   -0.00002987
     atom   34 type  2   force =    -0.00000864   -0.00001371    0.00000141
     atom   35 type  2   force =    -0.00000929   -0.00001591   -0.00000570
     atom   36 type  3   force =    -0.00000191   -0.00003453    0.00004347

     Total force =     0.005226     Total SCF correction =     0.000181
     Energy error            =      6.3E-05 Ry
     Gradient error          =      1.5E-03 Ry/Bohr

     bfgs converged in  24 scf cycles and  23 bfgs steps
     (criteria: energy <  1.0E-04 Ry, force <  1.0E-02 Ry/Bohr)

     End of BFGS Geometry Optimization

     Final energy             =   -2246.4498677005 Ry

     File ./MoS2-V-O.bfgs deleted, as requested
Begin final coordinates

ATOMIC_POSITIONS (angstrom)
Mo            6.5976323992        1.7234505247        2.7564137680
S             8.1718621054        0.8278190271        4.3621728435
S             8.1677372968        0.8124469790        1.1648075686
Mo            8.1620175392        4.4757780582        2.7124461505
S             6.5630702235        3.6371390300        4.3080251628
S             6.5914515612        3.5374211310        1.1157277578
Mo            6.5530081797        7.1585635688        2.6670687535
S             8.1148576904        6.2832497459        4.3048212200
S             8.1765139225        6.3046918566        1.1134107737
Mo            8.1768070925        9.9131147482        2.7651097336
S             6.5574023439        8.9264334250        4.3185745778
S             6.6262313741        9.0059891088        1.1241031659
Mo            3.4845206120        1.7541217748        2.7494589849
S             5.0255151814        0.7936217047        4.3425475700
S             5.0345902579        0.8136708059        1.1589795378
Mo            5.0336780768        4.5202354886        2.6592861661
S             3.5102886659        3.6468257473        4.3165088851
S             3.4756303295        3.5579349321        1.1063568662
Mo            3.5182367806        7.1629409447        2.6697234631
S             5.0330492738        6.2905630106        1.0429673707
Mo            5.0298712289        9.8861428679        2.7239121783
S             3.5069370559        8.9253027933        4.3224831324
S             3.4490010784        8.9977110963        1.1132000548
Mo            0.2793117617        1.7437404490        2.7521732881
S             1.8883275613        0.8227142660        4.2725793758
S             1.8855040381        0.8231451630        1.1859234407
Mo            1.9052411118        4.4726729427        2.7170284944
S             0.3015287389        3.5901844485        4.3234828502
S             0.3025054772        3.5588369559        1.1365079395
Mo            0.2988010368        7.1953242778        2.7408601187
S             1.9474944493        6.2846621226        4.3040972584
S             1.8890199769        6.3069379556        1.1189682695
Mo            1.8889025354        9.8834455827        2.7528381434
S             0.3056612357        9.0034147541        4.3637358996
S             0.2922853553        9.0143522132        1.1616137860
O             1.8801067974        0.8263469102        5.7724253224
End final coordinates



     Writing all to output data dir ./MoS2-V-O.save/
 
     init_run     :      4.77s CPU      5.31s WALL (       1 calls)
     electrons    :   2286.90s CPU   2589.13s WALL (      24 calls)
     update_pot   :     71.04s CPU     75.86s WALL (      23 calls)
     forces       :     67.18s CPU     76.83s WALL (      24 calls)

     Called by init_run:
     wfcinit      :      0.51s CPU      0.57s WALL (       1 calls)
     potinit      :      2.42s CPU      2.68s WALL (       1 calls)
     hinit0       :      0.46s CPU      0.48s WALL (       1 calls)

     Called by electrons:
     c_bands      :    341.02s CPU    349.65s WALL (     226 calls)
     sum_band     :    136.39s CPU    173.60s WALL (     226 calls)
     v_of_rho     :    218.08s CPU    266.72s WALL (     243 calls)
     newd         :     80.05s CPU    117.04s WALL (     243 calls)
     PAW_pot      :      9.62s CPU      9.65s WALL (     266 calls)
     mix_rho      :   1526.83s CPU   1700.18s WALL (     226 calls)

     Called by c_bands:
     init_us_2    :      5.25s CPU      5.63s WALL (     476 calls)
     init_us_2:cp :      5.25s CPU      5.63s WALL (     476 calls)
     regterg      :    323.70s CPU    331.93s WALL (     226 calls)

     Called by *egterg:
     rdiaghg      :     21.98s CPU     22.20s WALL (    1216 calls)
     h_psi        :    205.78s CPU    207.59s WALL (    1247 calls)
     s_psi        :     21.55s CPU     21.63s WALL (    1247 calls)
     g_psi        :      1.05s CPU      1.05s WALL (    1020 calls)

     Called by h_psi:
     h_psi:calbec :     23.46s CPU     23.60s WALL (    1247 calls)
     vloc_psi     :    157.97s CPU    159.49s WALL (    1247 calls)
     add_vuspsi   :     21.74s CPU     21.87s WALL (    1247 calls)

     General routines
     calbec       :     34.22s CPU     34.42s WALL (    1592 calls)
     fft          :    145.44s CPU    169.07s WALL (   16221 calls)
     ffts         :    686.32s CPU    853.94s WALL (  365630 calls)
     fftw         :     99.86s CPU    100.70s WALL (  138798 calls)
     interpolate  :      3.02s CPU      3.47s WALL (     243 calls)
 
     Parallel routines
 
     PWSCF        :  40m40.79s CPU  46m 3.59s WALL

 
   This run was terminated on:  16:45:49   1Nov2023            

=------------------------------------------------------------------------------=
   JOB DONE.
=------------------------------------------------------------------------------=
