
     Program PWSCF v.7.2 starts on  1Nov2023 at 19:40:14 

     This program is part of the open-source Quantum ESPRESSO suite
     for quantum simulation of materials; please cite
         "P. Giannozzi et al., J. Phys.:Condens. Matter 21 395502 (2009);
         "P. Giannozzi et al., J. Phys.:Condens. Matter 29 465901 (2017);
         "P. Giannozzi et al., J. Chem. Phys. 152 154105 (2020);
          URL http://www.quantum-espresso.org", 
     in publications or presentations arising from this work. More details at
     http://www.quantum-espresso.org/quote

     Parallel version (MPI & OpenMP), running on      48 processor cores
     Number of MPI processes:                48
     Threads/MPI process:                     1

     MPI processes distributed on     1 nodes
     44291 MiB available memory on the printing compute node when the environment starts
 
     Waiting for input...
     Reading input from standard input
Warning: card &CELL ignored
Warning: card CELL_DYNAMICS = 'BFGS', ignored
Warning: card CELL_DOFREE = '2DXY' ignored
Warning: card / ignored

     Current dimensions of program PWSCF are:
     Max number of different atomic species (ntypx) = 10
     Max number of k-points (npk) =  40000
     Max angular momentum in pseudopotentials (lmaxx) =  4
     file O.pbe-n-kjpaw_psl.0.1.UPF: wavefunction(s)  2P renormalized

     IMPORTANT: XC functional enforced from input :
     Exchange-correlation= RVV10
                           (   1   4  13   4  26   0   0)
     Any further DFT definition will be discarded
     Please, verify this is what you really want


     gamma-point specific algorithms are used
     signal trapping enabled: kill the code with -SIGUSR1 to stop cleanly the simulation 
 
     R & G space division:  proc/nbgrp/npool/nimage =      48
     Subspace diagonalization in iterative solution of the eigenvalue problem:
     one sub-group per band group will be used
     scalapack distributed-memory algorithm (size of sub-group:  2*  2 procs)

 
     Parallelization info
     --------------------
     sticks:   dense  smooth     PW     G-vecs:    dense   smooth      PW
     Min         396     194     47               101632    35090    4376
     Max         398     196     50               101674    35128    4410
     Sum       19091    9389   2349              4879585  1685513  210763
 
     Using Slab Decomposition
 


     bravais-lattice index     =            0
     lattice parameter (alat)  =      17.8707  a.u.
     unit-cell volume          =   17436.2743 (a.u.)^3
     number of atoms/cell      =           36
     number of atomic types    =            3
     number of electrons       =       312.00
     number of Kohn-Sham states=          187
     kinetic-energy cutoff     =      80.0000  Ry
     charge density cutoff     =     650.0000  Ry
     scf convergence threshold =      1.0E-06
     mixing beta               =       0.7000
     number of iterations used =            8  local-TF  mixing
     energy convergence thresh.=      1.0E-04
     force convergence thresh. =      1.0E-02
     Exchange-correlation= RVV10
                           (   1   4  13   4  26   0   0)
     nstep                     =          200


     celldm(1)=  17.870686  celldm(2)=   0.000000  celldm(3)=   0.000000
     celldm(4)=   0.000000  celldm(5)=   0.000000  celldm(6)=   0.000000

     crystal axes: (cart. coord. in units of alat)
               a(1) = (   1.000000   0.000000   0.000000 )  
               a(2) = (   0.000000   1.155671   0.000000 )  
               a(3) = (   0.000000   0.000000   2.643601 )  

     reciprocal axes: (cart. coord. in units 2 pi/alat)
               b(1) = (  1.000000  0.000000  0.000000 )  
               b(2) = (  0.000000  0.865298  0.000000 )  
               b(3) = (  0.000000  0.000000  0.378272 )  


     PseudoPot. # 1 for Mo read from file:
     ../pseudo/Mo_ONCV_PBE-1.0.oncvpsp.upf
     MD5 check sum: 1b5d28e075c9ccadda658a603575cd1f
     Pseudo is Norm-conserving, Zval = 14.0
     Generated using ONCVPSP code by D. R. Hamann
     Using radial grid of 1526 points,  6 beta functions with: 
                l(1) =   0
                l(2) =   0
                l(3) =   1
                l(4) =   1
                l(5) =   2
                l(6) =   2

     PseudoPot. # 2 for S  read from file:
     ../pseudo/s_pbe_v1.4.uspp.F.UPF
     MD5 check sum: 88d86576ff6df21479756cfb9bdac1df
     Pseudo is Ultrasoft + core correction, Zval =  6.0
     Generated by new atomic code, or converted to UPF format
     Using radial grid of  907 points,  6 beta functions with: 
                l(1) =   0
                l(2) =   0
                l(3) =   1
                l(4) =   1
                l(5) =   2
                l(6) =   2
     Q(r) pseudized with  8 coefficients,  rinner =    1.300   1.300   1.300
                                                       1.300   1.300

     PseudoPot. # 3 for O  read from file:
     ../pseudo/O.pbe-n-kjpaw_psl.0.1.UPF
     MD5 check sum: 0234752ac141de4415c5fc33072bef88
     Pseudo is Projector augmented-wave + core cor, Zval =  6.0
     Generated using "atomic" code by A. Dal Corso  v.5.0.99 svn rev. 10869
     Shape of augmentation charge: BESSEL
     Using radial grid of 1095 points,  4 beta functions with: 
                l(1) =   0
                l(2) =   0
                l(3) =   1
                l(4) =   1
     Q(r) pseudized with 0 coefficients 


     atomic species   valence    mass     pseudopotential
        Mo            14.00    95.94000     Mo( 1.00)
        S              6.00    32.06500     S ( 1.00)
        O              6.00    15.99940     O ( 1.00)

     No symmetry found



   Cartesian axes

     site n.     atom                  positions (alat units)
         1           Mo  tau(   1) = (   0.6952221   0.1890506   0.2985846  )
         2           S   tau(   2) = (   0.8646417   0.0856217   0.4689279  )
         3           S   tau(   3) = (   0.8663890   0.0857843   0.1351291  )
         4           Mo  tau(   4) = (   0.8560186   0.4753274   0.2873942  )
         5           S   tau(   5) = (   0.6873294   0.3936244   0.4596353  )
         6           S   tau(   6) = (   0.6929804   0.3713468   0.1185692  )
         7           Mo  tau(   7) = (   0.6862796   0.7633098   0.2825370  )
         8           S   tau(   8) = (   0.8545980   0.6708292   0.4486168  )
         9           S   tau(   9) = (   0.8545123   0.6666874   0.1146125  )
        10           Mo  tau(  10) = (   0.8629403   1.0471007   0.3006803  )
        11           S   tau(  11) = (   0.6868280   0.9456650   0.4634891  )
        12           S   tau(  12) = (   0.6998113   0.9568511   0.1205389  )
        13           Mo  tau(  13) = (   0.3618216   0.1847309   0.2935964  )
        14           S   tau(  14) = (   0.5260962   0.0863870   0.4600448  )
        15           S   tau(  15) = (   0.5348379   0.0894875   0.1297123  )
        16           Mo  tau(  16) = (   0.5265817   0.4772436   0.2784130  )
        17           S   tau(  17) = (   0.3624753   0.3882513   0.4525556  )
        18           S   tau(  18) = (   0.3635411   0.3752055   0.1119148  )
        19           Mo  tau(  19) = (   0.3652268   0.7630864   0.2781795  )
        20           S   tau(  20) = (   0.5269494   0.6690381   0.1096838  )
        21           Mo  tau(  21) = (   0.5300192   1.0470394   0.2900995  )
        22           S   tau(  22) = (   0.3670346   0.9457522   0.4574073  )
        23           S   tau(  23) = (   0.3604225   0.9585725   0.1159032  )
        24           Mo  tau(  24) = (   0.0313099   0.1847895   0.3013130  )
        25           S   tau(  25) = (   0.1956761   0.0838230   0.4650863  )
        26           S   tau(  26) = (   0.1967693   0.0903508   0.1278874  )
        27           Mo  tau(  27) = (   0.1967578   0.4753919   0.2813011  )
        28           S   tau(  28) = (   0.0287851   0.3864324   0.4586755  )
        29           S   tau(  29) = (   0.0244514   0.3729871   0.1239344  )
        30           Mo  tau(  30) = (   0.0286728   0.7631204   0.2856894  )
        31           S   tau(  31) = (   0.2011512   0.6675435   0.4465001  )
        32           S   tau(  32) = (   0.1969214   0.6672839   0.1104564  )
        33           Mo  tau(  33) = (   0.1950294   1.0511147   0.2932237  )
        34           S   tau(  34) = (   0.0312912   0.9612169   0.4667423  )
        35           S   tau(  35) = (   0.0292670   0.9563028   0.1216485  )
        36           O   tau(  36) = (   0.7777778   0.7704471   0.5656742  )

     number of k points=     1  Gaussian smearing, width (Ry)=  0.0100
                       cart. coord. in units 2pi/alat
        k(    1) = (   0.0000000   0.0000000   0.0000000), wk =   2.0000000

     Dense  grid:  2439793 G-vectors     FFT dimensions: ( 150, 180, 384)

     Smooth grid:   842757 G-vectors     FFT dimensions: ( 108, 120, 270)

     Estimated max dynamical RAM per process >     269.22 MB

     Estimated total dynamical RAM >      12.62 GB

     Initial potential from superposition of free atoms

     starting charge     311.9873, renormalised to     312.0000

     negative rho (up, down):  2.756E-04 0.000E+00


---------------------------------------------------------------------------------
Carrying out rVV10 run using the following parameters:
Nqs =      20    Nr_points =    1024   r_max =   100.000
b_value =  6.30000    beta =  0.00901
     q_mesh =  0.00010000  0.00030000  0.00058939  0.00100810
               0.00161396  0.00249058  0.00375900  0.00559430
               0.00824984  0.01209221  0.01765183  0.02569619
               0.03733578  0.05417739  0.07854596  0.11380545
               0.16482331  0.23864234  0.34545298  0.50000000

Gradients computed in Reciprocal space

---------------------------------------------------------------------------------


     Starting wfcs are  216 randomized atomic wfcs
     Checking if some PAW data can be deallocated... 

     total cpu time spent up to now is        5.4 secs

     Self-consistent Calculation

     iteration #  1     ecut=    80.00 Ry     beta= 0.70
     Davidson diagonalization with overlap
     ethr =  1.00E-02,  avg # of iterations =  2.0

     Threshold (ethr) on eigenvalues was too large:
     Diagonalizing with lowered threshold

     Davidson diagonalization with overlap
     ethr =  4.22E-04,  avg # of iterations =  4.0

     negative rho (up, down):  3.697E-08 0.000E+00

     total cpu time spent up to now is       22.2 secs

     total energy              =   -2246.26754220 Ry
     estimated scf accuracy    <       1.57160134 Ry

     iteration #  2     ecut=    80.00 Ry     beta= 0.70
     Davidson diagonalization with overlap
     ethr =  5.04E-04,  avg # of iterations =  3.0

     total cpu time spent up to now is       27.6 secs

     total energy              =   -2246.25291086 Ry
     estimated scf accuracy    <       0.61060021 Ry

     iteration #  3     ecut=    80.00 Ry     beta= 0.70
     Davidson diagonalization with overlap
     ethr =  1.96E-04,  avg # of iterations =  4.0

     total cpu time spent up to now is       31.9 secs

     total energy              =   -2246.25042096 Ry
     estimated scf accuracy    <       0.16327124 Ry

     iteration #  4     ecut=    80.00 Ry     beta= 0.70
     Davidson diagonalization with overlap
     ethr =  5.23E-05,  avg # of iterations = 17.0

     total cpu time spent up to now is       37.2 secs

     total energy              =   -2246.28091496 Ry
     estimated scf accuracy    <       0.02616157 Ry

     iteration #  5     ecut=    80.00 Ry     beta= 0.70
     Davidson diagonalization with overlap
     ethr =  8.39E-06,  avg # of iterations = 14.0

     total cpu time spent up to now is       41.9 secs

     total energy              =   -2246.28147674 Ry
     estimated scf accuracy    <       0.01551748 Ry

     iteration #  6     ecut=    80.00 Ry     beta= 0.70
     Davidson diagonalization with overlap
     ethr =  4.97E-06,  avg # of iterations =  2.0

     total cpu time spent up to now is       46.1 secs

     total energy              =   -2246.28077652 Ry
     estimated scf accuracy    <       0.00982162 Ry

     iteration #  7     ecut=    80.00 Ry     beta= 0.70
     Davidson diagonalization with overlap
     ethr =  3.15E-06,  avg # of iterations =  2.0

     total cpu time spent up to now is       50.2 secs

     total energy              =   -2246.27990858 Ry
     estimated scf accuracy    <       0.00605726 Ry

     iteration #  8     ecut=    80.00 Ry     beta= 0.70
     Davidson diagonalization with overlap
     ethr =  1.94E-06,  avg # of iterations = 12.0

     negative rho (up, down):  6.235E-03 0.000E+00

     total cpu time spent up to now is       57.1 secs

     total energy              =   -2246.27910134 Ry
     estimated scf accuracy    <       0.00368977 Ry

     iteration #  9     ecut=    80.00 Ry     beta= 0.70
     Davidson diagonalization with overlap
     ethr =  1.18E-06,  avg # of iterations =  2.0

     negative rho (up, down):  2.138E-02 0.000E+00

     total cpu time spent up to now is       63.6 secs

     total energy              =   -2246.27893323 Ry
     estimated scf accuracy    <       0.00196118 Ry

     iteration # 10     ecut=    80.00 Ry     beta= 0.70
     Davidson diagonalization with overlap
     ethr =  6.29E-07,  avg # of iterations =  2.0

     negative rho (up, down):  2.237E-02 0.000E+00

     total cpu time spent up to now is       69.8 secs

     total energy              =   -2246.27891064 Ry
     estimated scf accuracy    <       0.00097393 Ry

     iteration # 11     ecut=    80.00 Ry     beta= 0.70
     Davidson diagonalization with overlap
     ethr =  3.12E-07,  avg # of iterations =  2.0

     negative rho (up, down):  1.640E-02 0.000E+00

     total cpu time spent up to now is       77.6 secs

     total energy              =   -2246.27895409 Ry
     estimated scf accuracy    <       0.00027587 Ry

     iteration # 12     ecut=    80.00 Ry     beta= 0.70
     Davidson diagonalization with overlap
     ethr =  8.84E-08,  avg # of iterations =  5.0

     negative rho (up, down):  4.684E-03 0.000E+00

     total cpu time spent up to now is       85.9 secs

     total energy              =   -2246.27897456 Ry
     estimated scf accuracy    <       0.00004006 Ry

     iteration # 13     ecut=    80.00 Ry     beta= 0.70
     Davidson diagonalization with overlap
     ethr =  1.28E-08,  avg # of iterations =  6.0

     negative rho (up, down):  1.064E-03 0.000E+00

     total cpu time spent up to now is       96.5 secs

     total energy              =   -2246.27899932 Ry
     estimated scf accuracy    <       0.00000860 Ry

     iteration # 14     ecut=    80.00 Ry     beta= 0.70
     Davidson diagonalization with overlap
     ethr =  2.76E-09,  avg # of iterations =  2.0

     negative rho (up, down):  4.195E-04 0.000E+00

     total cpu time spent up to now is      107.4 secs

     total energy              =   -2246.27899993 Ry
     estimated scf accuracy    <       0.00000246 Ry

     iteration # 15     ecut=    80.00 Ry     beta= 0.70
     Davidson diagonalization with overlap
     ethr =  7.87E-10,  avg # of iterations =  2.0

     negative rho (up, down):  2.001E-04 0.000E+00

     total cpu time spent up to now is      111.6 secs

     End of self-consistent calculation

          k = 0.0000 0.0000 0.0000 (105382 PWs)   bands (ev):

   -63.0251 -62.9613 -62.9477 -62.9265 -62.9088 -62.8913 -62.8819 -62.8719
   -62.8488 -62.8321 -62.8255 -62.8204 -37.3330 -37.2600 -37.2569 -37.2242
   -37.2203 -37.2036 -37.1748 -37.1586 -37.1510 -37.1461 -37.1287 -37.1270
   -37.1105 -37.1045 -37.0982 -37.0904 -37.0866 -37.0702 -37.0662 -37.0497
   -37.0405 -37.0289 -37.0193 -37.0093 -36.9907 -36.9860 -36.9744 -36.9699
   -36.9652 -36.9625 -36.9504 -36.9312 -36.9043 -36.8625 -36.8104 -36.7713
   -21.7076 -16.0070 -15.3473 -15.1738 -15.0143 -14.9907 -14.8156 -14.7504
   -14.5618 -14.5333 -14.4819 -14.4464 -14.3968 -14.3650 -14.2975 -14.2847
   -14.2016 -14.1868 -14.1146 -13.9923 -13.9564 -13.9272 -13.8869 -13.8262
    -8.4097  -7.8876  -7.6892  -7.5723  -7.4471  -7.3281  -7.2789  -7.2630
    -7.1716  -7.0125  -6.9917  -6.8767  -6.8416  -6.7810  -6.7128  -6.6575
    -6.5120  -6.4718  -6.3396  -6.3294  -6.1164  -6.0911  -5.9934  -5.9545
    -5.8818  -5.8404  -5.8200  -5.7728  -5.7505  -5.7169  -5.6347  -5.6188
    -5.6132  -5.5955  -5.5207  -5.2950  -5.2622  -5.1955  -5.1600  -5.0981
    -5.0549  -5.0035  -4.9740  -4.8361  -4.7634  -4.6333  -4.3964  -4.3699
    -4.3239  -4.3063  -4.2296  -4.1510  -4.1272  -4.0622  -3.8785  -3.8358
    -3.8114  -3.7720  -3.6869  -3.6421  -3.6172  -3.5600  -3.5532  -3.5319
    -3.5057  -3.4794  -3.3654  -3.2748  -3.1694  -3.0208  -2.9531  -2.9145
    -2.8544  -2.8229  -2.8119  -2.7682  -2.7368  -2.6751  -2.6613  -2.3562
    -2.2073  -2.0832  -2.0121  -1.5761  -1.0868  -0.7328  -0.6257  -0.2558
    -0.2172  -0.1511  -0.0704  -0.0245   0.0596   0.1497   0.1541   0.1846
     0.2441   0.2868   0.3383   0.3981   0.4541   0.4858   0.5259   0.5676
     0.6271   0.6359   0.6925   0.7122   0.7381   0.7858   0.8538   0.9017
     0.9683   1.0249   1.2186

     the Fermi energy is    -1.3315 ev

!    total energy              =   -2246.27900241 Ry
     estimated scf accuracy    <       0.00000089 Ry
     smearing contrib. (-TS)   =      -0.00044500 Ry
     internal energy E=F+TS    =   -2246.27855741 Ry

     The total energy is F=E-TS. E is the sum of the following terms:
     one-electron contribution =  -18449.97056281 Ry
     hartree contribution      =    9212.98696565 Ry
     xc contribution           =    -392.05013008 Ry
     ewald contribution        =    7392.62242664 Ry
     one-center paw contrib.   =      -9.86725681 Ry

     convergence has been achieved in  15 iterations

     negative rho (up, down):  2.001E-04 0.000E+00

     Forces acting on atoms (cartesian axes, Ry/au):

     atom    1 type  1   force =     0.01481694   -0.02699296    0.00620435
     atom    2 type  2   force =    -0.01581813    0.01832932    0.00148530
     atom    3 type  2   force =    -0.01164279    0.01439858   -0.00542803
     atom    4 type  1   force =    -0.00494189   -0.01482517    0.01480705
     atom    5 type  2   force =    -0.00542878   -0.00993281   -0.00685350
     atom    6 type  2   force =     0.00524186    0.00954803   -0.00448375
     atom    7 type  1   force =    -0.00377426   -0.00696990   -0.06020089
     atom    8 type  2   force =    -0.01328488    0.07549657    0.01891735
     atom    9 type  2   force =     0.01188858    0.00546274    0.01289615
     atom   10 type  1   force =    -0.01154772   -0.00245313   -0.02224931
     atom   11 type  2   force =    -0.00414602    0.02122396   -0.03468479
     atom   12 type  2   force =    -0.00191081   -0.00013578    0.00803530
     atom   13 type  1   force =     0.00516354    0.00606639   -0.00971987
     atom   14 type  2   force =     0.00922903   -0.00213718    0.01403479
     atom   15 type  2   force =    -0.01387711    0.00239823   -0.00833964
     atom   16 type  1   force =    -0.00976852    0.01630909    0.00616456
     atom   17 type  2   force =     0.00443753    0.00046742    0.00219565
     atom   18 type  2   force =    -0.00133012   -0.00680199    0.01420925
     atom   19 type  1   force =    -0.00013875   -0.02316911   -0.00723156
     atom   20 type  2   force =     0.00089109   -0.00328961    0.00349432
     atom   21 type  1   force =    -0.00786774    0.02602775   -0.01286121
     atom   22 type  2   force =    -0.00182210   -0.00082124   -0.00260084
     atom   23 type  2   force =    -0.00063678    0.00064576    0.00753434
     atom   24 type  1   force =    -0.00740406   -0.00373980   -0.01985575
     atom   25 type  2   force =     0.01640351    0.01815433    0.00643831
     atom   26 type  2   force =    -0.01225962   -0.00108502   -0.00236172
     atom   27 type  1   force =    -0.00031642    0.00170032    0.00992059
     atom   28 type  2   force =     0.00254540   -0.00533747   -0.00768188
     atom   29 type  2   force =     0.00125787   -0.00051100   -0.00361400
     atom   30 type  1   force =    -0.00631997    0.02625608    0.00725136
     atom   31 type  2   force =     0.00501293   -0.00132236    0.01459313
     atom   32 type  2   force =    -0.00437671    0.00541524    0.00747693
     atom   33 type  1   force =     0.01545398   -0.00676660   -0.00973248
     atom   34 type  2   force =     0.00233965   -0.04186887   -0.01097911
     atom   35 type  2   force =    -0.01121307    0.00619519    0.01428859
     atom   36 type  3   force =     0.05514434   -0.09593500    0.05893100
     The non-local contrib.  to forces
     atom    1 type  1   force =    -0.01123385    0.03025668   -0.01443209
     atom    2 type  2   force =    -0.00839983    0.00160544   -0.27268232
     atom    3 type  2   force =    -0.01459686    0.00031027    0.26988294
     atom    4 type  1   force =     0.00980866    0.01395509   -0.00878643
     atom    5 type  2   force =     0.01147905   -0.03107816   -0.25232507
     atom    6 type  2   force =     0.00266731    0.01229890    0.26780159
     atom    7 type  1   force =    -0.00919965    0.00055614    0.00715876
     atom    8 type  2   force =    -0.21051707    0.24580370    0.22840873
     atom    9 type  2   force =     0.00985774   -0.00885931    0.27889001
     atom   10 type  1   force =    -0.00657212    0.01162857   -0.00087570
     atom   11 type  2   force =     0.06623801   -0.04381137   -0.19211903
     atom   12 type  2   force =    -0.00946076   -0.02074785    0.26417034
     atom   13 type  1   force =    -0.00121227    0.01731046   -0.00462720
     atom   14 type  2   force =     0.01540076   -0.01082063   -0.26398063
     atom   15 type  2   force =    -0.01167373   -0.00397721    0.26169262
     atom   16 type  1   force =     0.00467446    0.03314705   -0.02663770
     atom   17 type  2   force =     0.00102777   -0.02480749   -0.25123045
     atom   18 type  2   force =    -0.00322281   -0.00153918    0.27367420
     atom   19 type  1   force =     0.02117286    0.00789192   -0.01117178
     atom   20 type  2   force =     0.00013568   -0.02143529    0.26714852
     atom   21 type  1   force =     0.00984934    0.00996679    0.01565710
     atom   22 type  2   force =    -0.01087333    0.00555322   -0.25434668
     atom   23 type  2   force =     0.00211474   -0.02152154    0.26824999
     atom   24 type  1   force =     0.01164660    0.00854225   -0.01014890
     atom   25 type  2   force =     0.00867249    0.00449764   -0.26451781
     atom   26 type  2   force =    -0.00479524   -0.01119465    0.26037423
     atom   27 type  1   force =     0.00501430    0.00888727    0.01134420
     atom   28 type  2   force =    -0.00720889   -0.02722764   -0.27327603
     atom   29 type  2   force =     0.00439072    0.00024430    0.26466697
     atom   30 type  1   force =     0.00307187   -0.00678586    0.01037124
     atom   31 type  2   force =    -0.00723877   -0.00128559   -0.25652285
     atom   32 type  2   force =    -0.00190663   -0.00925545    0.27403110
     atom   33 type  1   force =    -0.00129756    0.01378334    0.00595918
     atom   34 type  2   force =     0.00637009   -0.03630480   -0.27495014
     atom   35 type  2   force =    -0.00320250   -0.01096613    0.26664245
     atom   36 type  3   force =     0.82585031   -0.92930552   -1.12119794
     The ionic contribution  to forces
     atom    1 type  1   force =     0.23441407    0.24851525    4.57503381
     atom    2 type  2   force =    -0.52755240    0.89606091   39.02486059
     atom    3 type  2   force =    -0.11882470    0.15518179  -36.66657377
     atom    4 type  1   force =     0.55279741   -1.21007701   -1.68667045
     atom    5 type  2   force =    -1.22531516    0.47291095   38.32261533
     atom    6 type  2   force =     0.29512803   -0.70613083  -38.66827938
     atom    7 type  1   force =    -4.25318796   -2.90762402   -3.30910873
     atom    8 type  2   force =     2.35110428   -4.33842954   32.14753168
     atom    9 type  2   force =     0.45980121   -0.21737311  -39.11972097
     atom   10 type  1   force =    -0.49907754    1.71252729    3.10111243
     atom   11 type  2   force =    -2.34292591    1.88613461   37.00612438
     atom   12 type  2   force =     0.33985383    0.97120288  -38.85018342
     atom   13 type  1   force =     0.34041342    1.00776277    1.95975340
     atom   14 type  2   force =    -0.17087620    0.31082708   38.29265165
     atom   15 type  2   force =     0.07864460    0.04040682  -37.33538514
     atom   16 type  1   force =    -0.78717907    2.87956604   -1.21920854
     atom   17 type  2   force =     0.65426548    1.16398766   37.70412892
     atom   18 type  2   force =    -0.20592080   -0.76292343  -39.08010428
     atom   19 type  1   force =     2.04341268   -2.47044250   -1.08697844
     atom   20 type  2   force =     0.01575727   -0.31646605  -39.33742048
     atom   21 type  1   force =    -0.84418406    1.22967858   -0.62591879
     atom   22 type  2   force =     0.01442265   -1.30159751   38.07895391
     atom   23 type  2   force =    -0.16913411    0.79887809  -38.92653092
     atom   24 type  1   force =    -0.25363706    1.17243966    4.85156572
     atom   25 type  2   force =     0.76178568    0.48276259   39.09403866
     atom   26 type  2   force =    -0.25205338    0.14024345  -37.81339765
     atom   27 type  1   force =     0.33998796   -0.23679235   -3.49749863
     atom   28 type  2   force =     0.42120606    0.41294934   37.91025029
     atom   29 type  2   force =    -0.16836588   -0.59337503  -37.84425324
     atom   30 type  1   force =     1.58483352   -0.96298581   -3.11571115
     atom   31 type  2   force =     1.68312463   -0.32274506   36.91179853
     atom   32 type  2   force =    -0.38900132   -0.08726634  -39.31060033
     atom   33 type  1   force =     1.15221431   -0.17366577    0.81541709
     atom   34 type  2   force =     1.53460101   -0.34970286   38.69640329
     atom   35 type  2   force =    -0.10671296    0.67595308  -38.61138034
     atom   36 type  3   force =    -2.54381960    0.29960838   47.61268500
     The local contribution  to forces
     atom    1 type  1   force =    -0.20825959   -0.30563661   -4.55558842
     atom    2 type  2   force =     0.51994179   -0.87924351  -38.77193999
     atom    3 type  2   force =     0.12109095   -0.14095780   36.41161979
     atom    4 type  1   force =    -0.56761221    1.18142819    1.70913384
     atom    5 type  2   force =     1.20944608   -0.45334025  -38.09787809
     atom    6 type  2   force =    -0.29257022    0.70454739   38.41653017
     atom    7 type  1   force =     4.25876717    2.90019180    3.24069369
     atom    8 type  2   force =    -2.16626308    4.18246810  -32.35103573
     atom    9 type  2   force =    -0.45750811    0.23121922   38.87443222
     atom   10 type  1   force =     0.49404720   -1.72692896   -3.12353832
     atom   11 type  2   force =     2.27551173   -1.82251277  -36.86673890
     atom   12 type  2   force =    -0.33326920   -0.95221394   38.61446793
     atom   13 type  1   force =    -0.33391855   -1.01896815   -1.96613953
     atom   14 type  2   force =     0.16557964   -0.30224189  -38.03568827
     atom   15 type  2   force =    -0.08142845   -0.03425222   37.08537171
     atom   16 type  1   force =     0.77293954   -2.89631499    1.25079495
     atom   17 type  2   force =    -0.65088653   -1.14000834  -37.47137538
     atom   18 type  2   force =     0.20781661    0.75830127   38.84109012
     atom   19 type  1   force =    -2.06481350    2.43945848    1.08974940
     atom   20 type  2   force =    -0.01515111    0.33375739   39.09445376
     atom   21 type  1   force =     0.82665009   -1.21387822    0.59623612
     atom   22 type  2   force =    -0.00572373    1.29567715  -37.84796418
     atom   23 type  2   force =     0.16665340   -0.77840885   38.68617846
     atom   24 type  1   force =     0.23437711   -1.18466802   -4.86246696
     atom   25 type  2   force =    -0.75405227   -0.46875325  -38.84436571
     atom   26 type  2   force =     0.24460203   -0.13074112   37.57083126
     atom   27 type  1   force =    -0.34544979    0.22988341    3.49478533
     atom   28 type  2   force =    -0.41206860   -0.39279365  -37.66591747
     atom   29 type  2   force =     0.16564062    0.59323026   37.59605804
     atom   30 type  1   force =    -1.59431285    0.99608098    3.11152268
     atom   31 type  2   force =    -1.67151093    0.32261192  -36.66175750
     atom   32 type  2   force =     0.38668395    0.10141362   39.06463438
     atom   33 type  1   force =    -1.13561889    0.15277637   -0.83225231
     atom   34 type  2   force =    -1.53865131    0.34287688  -38.45413157
     atom   35 type  2   force =     0.09868868   -0.65987060   38.37943645
     atom   36 type  3   force =     1.78261068    0.52305693  -46.44443092
     The core correction contribution to forces
     atom    1 type  1   force =     0.00000000    0.00000000    0.00000000
     atom    2 type  2   force =     0.00015245   -0.00014666    0.02087732
     atom    3 type  2   force =     0.00064749   -0.00013339   -0.02088745
     atom    4 type  1   force =     0.00000000    0.00000000    0.00000000
     atom    5 type  2   force =    -0.00098594    0.00165888    0.02038182
     atom    6 type  2   force =     0.00003001   -0.00116018   -0.02107317
     atom    7 type  1   force =     0.00000000    0.00000000    0.00000000
     atom    8 type  2   force =     0.01239039   -0.01429942   -0.00619969
     atom    9 type  2   force =    -0.00027506    0.00053365   -0.02119062
     atom   10 type  1   force =     0.00000000    0.00000000    0.00000000
     atom   11 type  2   force =    -0.00291067    0.00130080    0.01774755
     atom   12 type  2   force =     0.00098189    0.00153641   -0.02089556
     atom   13 type  1   force =     0.00000000    0.00000000    0.00000000
     atom   14 type  2   force =    -0.00078659    0.00005699    0.02069051
     atom   15 type  2   force =     0.00063085    0.00022799   -0.02058850
     atom   16 type  1   force =     0.00000000    0.00000000    0.00000000
     atom   17 type  2   force =     0.00007638    0.00135204    0.02031392
     atom   18 type  2   force =     0.00002846   -0.00059745   -0.02103836
     atom   19 type  1   force =     0.00000000    0.00000000    0.00000000
     atom   20 type  2   force =     0.00017618    0.00089049   -0.02124568
     atom   21 type  1   force =     0.00000000    0.00000000    0.00000000
     atom   22 type  2   force =     0.00037785   -0.00056325    0.02039459
     atom   23 type  2   force =    -0.00026643    0.00161067   -0.02087130
     atom   24 type  1   force =     0.00000000    0.00000000    0.00000000
     atom   25 type  2   force =    -0.00004620   -0.00042621    0.02092171
     atom   26 type  2   force =    -0.00002216    0.00059307   -0.02074414
     atom   27 type  1   force =     0.00000000    0.00000000    0.00000000
     atom   28 type  2   force =     0.00052031    0.00184073    0.02090990
     atom   29 type  2   force =    -0.00045674   -0.00056316   -0.02063992
     atom   30 type  1   force =     0.00000000    0.00000000    0.00000000
     atom   31 type  2   force =     0.00056218    0.00020267    0.02066844
     atom   32 type  2   force =    -0.00015913    0.00057582   -0.02105474
     atom   33 type  1   force =     0.00000000    0.00000000    0.00000000
     atom   34 type  2   force =    -0.00005722    0.00113608    0.02135917
     atom   35 type  2   force =    -0.00000767    0.00099051   -0.02088633
     atom   36 type  3   force =    -0.00937835    0.01056944    0.01148764
     The Hubbard contrib.    to forces
     atom    1 type  1   force =     0.00000000    0.00000000    0.00000000
     atom    2 type  2   force =     0.00000000    0.00000000    0.00000000
     atom    3 type  2   force =     0.00000000    0.00000000    0.00000000
     atom    4 type  1   force =     0.00000000    0.00000000    0.00000000
     atom    5 type  2   force =     0.00000000    0.00000000    0.00000000
     atom    6 type  2   force =     0.00000000    0.00000000    0.00000000
     atom    7 type  1   force =     0.00000000    0.00000000    0.00000000
     atom    8 type  2   force =     0.00000000    0.00000000    0.00000000
     atom    9 type  2   force =     0.00000000    0.00000000    0.00000000
     atom   10 type  1   force =     0.00000000    0.00000000    0.00000000
     atom   11 type  2   force =     0.00000000    0.00000000    0.00000000
     atom   12 type  2   force =     0.00000000    0.00000000    0.00000000
     atom   13 type  1   force =     0.00000000    0.00000000    0.00000000
     atom   14 type  2   force =     0.00000000    0.00000000    0.00000000
     atom   15 type  2   force =     0.00000000    0.00000000    0.00000000
     atom   16 type  1   force =     0.00000000    0.00000000    0.00000000
     atom   17 type  2   force =     0.00000000    0.00000000    0.00000000
     atom   18 type  2   force =     0.00000000    0.00000000    0.00000000
     atom   19 type  1   force =     0.00000000    0.00000000    0.00000000
     atom   20 type  2   force =     0.00000000    0.00000000    0.00000000
     atom   21 type  1   force =     0.00000000    0.00000000    0.00000000
     atom   22 type  2   force =     0.00000000    0.00000000    0.00000000
     atom   23 type  2   force =     0.00000000    0.00000000    0.00000000
     atom   24 type  1   force =     0.00000000    0.00000000    0.00000000
     atom   25 type  2   force =     0.00000000    0.00000000    0.00000000
     atom   26 type  2   force =     0.00000000    0.00000000    0.00000000
     atom   27 type  1   force =     0.00000000    0.00000000    0.00000000
     atom   28 type  2   force =     0.00000000    0.00000000    0.00000000
     atom   29 type  2   force =     0.00000000    0.00000000    0.00000000
     atom   30 type  1   force =     0.00000000    0.00000000    0.00000000
     atom   31 type  2   force =     0.00000000    0.00000000    0.00000000
     atom   32 type  2   force =     0.00000000    0.00000000    0.00000000
     atom   33 type  1   force =     0.00000000    0.00000000    0.00000000
     atom   34 type  2   force =     0.00000000    0.00000000    0.00000000
     atom   35 type  2   force =     0.00000000    0.00000000    0.00000000
     atom   36 type  3   force =     0.00000000    0.00000000    0.00000000
     The SCF correction term to forces
     atom    1 type  1   force =    -0.00010434   -0.00012831    0.00116668
     atom    2 type  2   force =     0.00003921    0.00005311    0.00034534
     atom    3 type  2   force =     0.00003967   -0.00000232    0.00050609
     atom    4 type  1   force =     0.00006360   -0.00013147    0.00110572
     atom    5 type  2   force =    -0.00005347   -0.00008427    0.00032815
     atom    6 type  2   force =    -0.00001392   -0.00000729    0.00051269
     atom    7 type  1   force =    -0.00015447   -0.00009385    0.00103103
     atom    8 type  2   force =    -0.00000005   -0.00004630    0.00018799
     atom    9 type  2   force =     0.00001216   -0.00005774    0.00046115
     atom   10 type  1   force =     0.00005409    0.00031992    0.00102792
     atom   11 type  2   force =    -0.00005983    0.00011266    0.00027685
     atom   12 type  2   force =    -0.00001722    0.00008668    0.00045165
     atom   13 type  1   force =    -0.00011971   -0.00003873    0.00126911
     atom   14 type  2   force =    -0.00008922    0.00004123    0.00033717
     atom   15 type  2   force =    -0.00005103   -0.00000719    0.00054530
     atom   16 type  1   force =    -0.00020410   -0.00008904    0.00119149
     atom   17 type  2   force =    -0.00004622   -0.00005650    0.00033427
     atom   18 type  2   force =    -0.00003222   -0.00004323    0.00056321
     atom   19 type  1   force =     0.00008855   -0.00007706    0.00114490
     atom   20 type  2   force =    -0.00002759   -0.00003620    0.00053384
     atom   21 type  1   force =    -0.00018377    0.00026055    0.00113999
     atom   22 type  2   force =    -0.00002619    0.00010912    0.00033715
     atom   23 type  2   force =    -0.00000503    0.00008735    0.00048375
     atom   24 type  1   force =     0.00020863   -0.00005374    0.00117003
     atom   25 type  2   force =     0.00004317    0.00007352    0.00033710
     atom   26 type  2   force =     0.00000848    0.00001419    0.00055023
     atom   27 type  1   force =     0.00013046   -0.00027806    0.00126534
     atom   28 type  2   force =     0.00009588   -0.00010629    0.00032709
     atom   29 type  2   force =     0.00004850   -0.00004741    0.00052979
     atom   30 type  1   force =     0.00008684   -0.00005328    0.00104422
     atom   31 type  2   force =     0.00007517   -0.00010633    0.00038215
     atom   32 type  2   force =     0.00000578   -0.00005245    0.00044216
     atom   33 type  1   force =     0.00015546    0.00033942    0.00111920
     atom   34 type  2   force =     0.00007642    0.00012578    0.00031578
     atom   35 type  2   force =     0.00002072    0.00008829    0.00045200
     atom   36 type  3   force =    -0.00011935    0.00013572    0.00036285

     Total force =     0.198166     Total SCF correction =     0.004566

     BFGS Geometry Optimization
     Energy error            =      0.0E+00 Ry
     Gradient error          =      9.6E-02 Ry/Bohr

     number of scf cycles    =   1
     number of bfgs steps    =   0

     energy             new  =   -2246.2790024149 Ry

     new trust radius        =       0.1253685998 bohr
     new conv_thr            =       0.0000010000 Ry


ATOMIC_POSITIONS (angstrom)
Mo            6.5823891954        1.7735221725        2.8269262300
S             8.1683387462        0.8194034809        4.4353243384
S             8.1870719857        0.8188611459        1.2750110343
Mo            8.0925474297        4.4872118037        2.7256539464
S             6.4970364678        3.7171552694        4.3430339350
S             6.5561236717        3.5167901577        1.1189075316
Mo            6.4879844453        7.2147489729        2.6400275440
S             8.0746976742        6.3838220590        4.2524721933
S             8.0872088145        6.3075930748        1.0906873455
Mo            8.1545082599        9.9008822705        2.8316879332
S             6.4929736183        8.9541580509        4.3647511321
S             6.6169360407        9.0486393611        1.1441594019
Mo            3.4243920918        1.7501660454        2.7713276283
S             4.9800492838        0.8158102602        4.3579599853
S             5.0504903040        0.8475311984        1.2222453131
Mo            4.9745874027        4.5218084032        2.6361466921
S             3.4301899038        3.6718470321        4.2808714682
S             3.4372167130        3.5446292422        1.0658708933
Mo            3.4537883142        7.2040639738        2.6268500875
S             4.9837057366        6.3251915000        1.0391028477
Mo            5.0081004893        9.9153733442        2.7365951032
S             3.4699939050        8.9433166884        4.3242150054
S             3.4080921949        9.0653317076        1.1000552983
Mo            0.2921724283        1.7455305129        2.8389375001
S             1.8591425780        0.8023008652        4.4016164467
S             1.8543125252        0.8538517500        1.2081510882
Mo            1.8605238647        4.4965665308        2.6654471317
S             0.2735608152        3.6515743604        4.3335190263
S             0.2318968419        3.5269788146        1.1701054392
Mo            0.2678077676        7.2305402112        2.7055336837
S             1.9048909747        6.3120990731        4.2301664720
S             1.8599221594        6.3132094312        1.0485159054
Mo            1.8525245543        9.9365584228        2.7677960432
S             0.2971509875        9.0678417752        4.4080595720
S             0.2708376965        9.0468040656        1.1579619744
O             7.3844389080        7.2351667158        5.3806296488



     Writing config-only to output data dir ./MoS2-V-O.save/
     NEW-OLD atomic charge density approx. for the potential

     negative rho (up, down):  1.625E-04 0.000E+00

     total cpu time spent up to now is      119.6 secs

     Self-consistent Calculation

     iteration #  1     ecut=    80.00 Ry     beta= 0.70
     Davidson diagonalization with overlap
     ethr =  1.00E-06,  avg # of iterations = 12.0

     negative rho (up, down):  1.619E-04 0.000E+00

     total cpu time spent up to now is      136.1 secs

     total energy              =   -2246.31150465 Ry
     estimated scf accuracy    <       0.00853298 Ry

     iteration #  2     ecut=    80.00 Ry     beta= 0.70
     Davidson diagonalization with overlap
     ethr =  2.73E-06,  avg # of iterations =  5.0

     negative rho (up, down):  2.041E-04 0.000E+00

     total cpu time spent up to now is      148.4 secs

     total energy              =   -2246.31295151 Ry
     estimated scf accuracy    <       0.00273390 Ry

     iteration #  3     ecut=    80.00 Ry     beta= 0.70
     Davidson diagonalization with overlap
     ethr =  8.76E-07,  avg # of iterations =  4.0

     negative rho (up, down):  2.432E-04 0.000E+00

     total cpu time spent up to now is      161.5 secs

     total energy              =   -2246.31320137 Ry
     estimated scf accuracy    <       0.00022640 Ry

     iteration #  4     ecut=    80.00 Ry     beta= 0.70
     Davidson diagonalization with overlap
     ethr =  7.26E-08,  avg # of iterations =  5.0

     negative rho (up, down):  2.607E-04 0.000E+00

     total cpu time spent up to now is      172.5 secs

     total energy              =   -2246.31324508 Ry
     estimated scf accuracy    <       0.00003699 Ry

     iteration #  5     ecut=    80.00 Ry     beta= 0.70
     Davidson diagonalization with overlap
     ethr =  1.19E-08,  avg # of iterations =  4.0

     negative rho (up, down):  2.762E-04 0.000E+00

     total cpu time spent up to now is      189.9 secs

     total energy              =   -2246.31324890 Ry
     estimated scf accuracy    <       0.00000706 Ry

     iteration #  6     ecut=    80.00 Ry     beta= 0.70
     Davidson diagonalization with overlap
     ethr =  2.26E-09,  avg # of iterations =  5.0

     negative rho (up, down):  2.788E-04 0.000E+00

     total cpu time spent up to now is      204.9 secs

     total energy              =   -2246.31325092 Ry
     estimated scf accuracy    <       0.00000146 Ry

     iteration #  7     ecut=    80.00 Ry     beta= 0.70
     Davidson diagonalization with overlap
     ethr =  4.68E-10,  avg # of iterations =  2.0

     negative rho (up, down):  1.996E-04 0.000E+00

     total cpu time spent up to now is      209.0 secs

     End of self-consistent calculation

          k = 0.0000 0.0000 0.0000 (105382 PWs)   bands (ev):

   -63.0247 -62.9676 -62.9532 -62.9314 -62.9064 -62.8898 -62.8879 -62.8790
   -62.8555 -62.8463 -62.8357 -62.8012 -37.3267 -37.2599 -37.2533 -37.2280
   -37.2206 -37.2007 -37.1829 -37.1608 -37.1544 -37.1498 -37.1352 -37.1319
   -37.1157 -37.1096 -37.1001 -37.0956 -37.0879 -37.0753 -37.0655 -37.0566
   -37.0475 -37.0348 -37.0228 -37.0193 -36.9991 -36.9913 -36.9797 -36.9727
   -36.9644 -36.9545 -36.9486 -36.9397 -36.9133 -36.8710 -36.8203 -36.7734
   -22.0989 -16.0140 -15.3029 -15.1804 -15.0159 -14.9803 -14.8178 -14.6530
   -14.5585 -14.5351 -14.4865 -14.4527 -14.4101 -14.3666 -14.3086 -14.2750
   -14.2093 -14.1934 -14.1207 -13.9960 -13.9438 -13.9368 -13.9112 -13.7903
    -8.3324  -7.8864  -7.7248  -7.5827  -7.4679  -7.3241  -7.2922  -7.2745
    -7.1945  -7.0463  -7.0002  -6.8919  -6.8485  -6.7757  -6.7100  -6.6724
    -6.5123  -6.4679  -6.3495  -6.3417  -6.1446  -6.1051  -5.9859  -5.9598
    -5.8712  -5.8493  -5.8296  -5.7837  -5.7630  -5.7280  -5.6462  -5.6286
    -5.6183  -5.5970  -5.5125  -5.2805  -5.2487  -5.1993  -5.1547  -5.1047
    -5.0655  -5.0082  -4.9943  -4.8483  -4.7713  -4.6487  -4.4165  -4.3718
    -4.3425  -4.2988  -4.2686  -4.1501  -4.1290  -4.0899  -3.8802  -3.8389
    -3.8170  -3.7777  -3.6998  -3.6544  -3.6200  -3.5848  -3.5568  -3.5191
    -3.5107  -3.4736  -3.3686  -3.2984  -3.1575  -3.0405  -2.9503  -2.9050
    -2.8614  -2.8393  -2.8022  -2.7786  -2.7436  -2.6932  -2.6557  -2.3579
    -2.2606  -2.0804  -2.0254  -1.6830  -1.0477  -0.7498  -0.5615  -0.2594
    -0.2215  -0.1574  -0.0426  -0.0068   0.0478   0.1553   0.1584   0.2004
     0.2484   0.2890   0.3382   0.3984   0.4645   0.4884   0.5234   0.5686
     0.6221   0.6511   0.6768   0.7319   0.7337   0.8000   0.8542   0.9055
     0.9639   1.0177   1.2374

     the Fermi energy is    -1.3653 ev

!    total energy              =   -2246.31325111 Ry
     estimated scf accuracy    <       0.00000041 Ry
     smearing contrib. (-TS)   =      -0.00004845 Ry
     internal energy E=F+TS    =   -2246.31320266 Ry

     The total energy is F=E-TS. E is the sum of the following terms:
     one-electron contribution =  -18448.79087652 Ry
     hartree contribution      =    9212.32744736 Ry
     xc contribution           =    -392.09571420 Ry
     ewald contribution        =    7392.10997625 Ry
     one-center paw contrib.   =      -9.86403555 Ry

     convergence has been achieved in   7 iterations

     negative rho (up, down):  1.996E-04 0.000E+00

     Forces acting on atoms (cartesian axes, Ry/au):

     atom    1 type  1   force =     0.00231053   -0.01318061   -0.00036980
     atom    2 type  2   force =    -0.00911336    0.01015488   -0.00094752
     atom    3 type  2   force =    -0.00985960    0.00903971   -0.00932185
     atom    4 type  1   force =     0.00000241    0.00136473    0.01731356
     atom    5 type  2   force =    -0.00489878   -0.00914436   -0.00444025
     atom    6 type  2   force =     0.00271295    0.00651106    0.00127446
     atom    7 type  1   force =     0.00088068   -0.00033652   -0.02941652
     atom    8 type  2   force =    -0.01690041    0.04838830   -0.01039131
     atom    9 type  2   force =     0.01407184    0.00064697    0.00752548
     atom   10 type  1   force =    -0.00488375    0.00552527   -0.01073050
     atom   11 type  2   force =    -0.00878231    0.01587290   -0.03225299
     atom   12 type  2   force =    -0.00304132    0.00497487   -0.00405969
     atom   13 type  1   force =     0.00483184    0.00376585   -0.00299657
     atom   14 type  2   force =     0.00597797   -0.00054408    0.00951547
     atom   15 type  2   force =    -0.00906679    0.00565354   -0.00920162
     atom   16 type  1   force =    -0.00342452    0.00955093    0.00464812
     atom   17 type  2   force =     0.00380696    0.00039238    0.00307342
     atom   18 type  2   force =    -0.00126308   -0.00325333    0.01117105
     atom   19 type  1   force =     0.00182855   -0.01198977   -0.00154349
     atom   20 type  2   force =    -0.00429080   -0.00659567   -0.00797421
     atom   21 type  1   force =    -0.00828500    0.01045700   -0.00596406
     atom   22 type  2   force =     0.00105178   -0.00172221   -0.00511078
     atom   23 type  2   force =     0.00070880   -0.00093936    0.00400408
     atom   24 type  1   force =    -0.00419681   -0.00249613   -0.00901706
     atom   25 type  2   force =     0.01192566    0.01317043   -0.00053947
     atom   26 type  2   force =    -0.00823816   -0.00147953   -0.00357975
     atom   27 type  1   force =    -0.00242456    0.00016966    0.00666789
     atom   28 type  2   force =     0.00127943   -0.00579595   -0.00534699
     atom   29 type  2   force =     0.00063412    0.00147045   -0.00264713
     atom   30 type  1   force =     0.00026804    0.01359946    0.00991255
     atom   31 type  2   force =     0.00329063   -0.00022993    0.01083980
     atom   32 type  2   force =    -0.00633830    0.00394101    0.00633569
     atom   33 type  1   force =     0.00491859   -0.00313583   -0.00062334
     atom   34 type  2   force =     0.00123065   -0.02868138   -0.01215549
     atom   35 type  2   force =    -0.00821151    0.00771627    0.00711137
     atom   36 type  3   force =     0.05148762   -0.08284105    0.06923745
     The non-local contrib.  to forces
     atom    1 type  1   force =    -0.00815327    0.02583314   -0.01316940
     atom    2 type  2   force =    -0.00436542   -0.00362153   -0.27278715
     atom    3 type  2   force =    -0.01187115   -0.00521719    0.26683153
     atom    4 type  1   force =     0.00872484    0.01384638   -0.00793473
     atom    5 type  2   force =     0.01077797   -0.03082822   -0.25230112
     atom    6 type  2   force =     0.00059949    0.00857171    0.27246181
     atom    7 type  1   force =    -0.00622894   -0.00347296    0.00884882
     atom    8 type  2   force =    -0.19530913    0.20476184    0.23687248
     atom    9 type  2   force =     0.00889141   -0.01125663    0.27700121
     atom   10 type  1   force =    -0.00692983    0.00720952   -0.00264359
     atom   11 type  2   force =     0.04493400   -0.01718463   -0.21870767
     atom   12 type  2   force =    -0.01131980   -0.01760300    0.25803695
     atom   13 type  1   force =    -0.00006213    0.01864798   -0.00516492
     atom   14 type  2   force =     0.01293594   -0.00841369   -0.26604379
     atom   15 type  2   force =    -0.00836759   -0.00163786    0.25968706
     atom   16 type  1   force =     0.00404882    0.03393529   -0.03020250
     atom   17 type  2   force =     0.00077129   -0.02414281   -0.25103934
     atom   18 type  2   force =    -0.00289325    0.00059549    0.27210313
     atom   19 type  1   force =     0.02222627    0.00620783   -0.01392212
     atom   20 type  2   force =    -0.00319301   -0.02289714    0.25938414
     atom   21 type  1   force =     0.00976002    0.01572742    0.01269166
     atom   22 type  2   force =    -0.00786183    0.00330236   -0.25836633
     atom   23 type  2   force =     0.00443618   -0.02330305    0.26654581
     atom   24 type  1   force =     0.00944559    0.00918737   -0.00896832
     atom   25 type  2   force =     0.00550862    0.00001618   -0.26889364
     atom   26 type  2   force =    -0.00154948   -0.01080060    0.26001092
     atom   27 type  1   force =     0.00405006    0.00904080    0.00970830
     atom   28 type  2   force =    -0.00873465   -0.02459232   -0.27343369
     atom   29 type  2   force =     0.00399494   -0.00027962    0.26616612
     atom   30 type  1   force =     0.00100323   -0.00586447    0.01099661
     atom   31 type  2   force =    -0.00987845   -0.00059992   -0.25845019
     atom   32 type  2   force =    -0.00188672   -0.01120180    0.27240004
     atom   33 type  1   force =     0.00052666    0.01186984    0.00490566
     atom   34 type  2   force =     0.00543753   -0.02750387   -0.27792092
     atom   35 type  2   force =    -0.00065467   -0.00962711    0.26333839
     atom   36 type  3   force =     0.92919317   -1.03751949   -1.28787618
     The ionic contribution  to forces
     atom    1 type  1   force =    -0.01891692    0.62917447    4.68942691
     atom    2 type  2   force =    -0.32590533    0.73618565   39.11171485
     atom    3 type  2   force =    -0.08024502    0.14832553  -36.76886219
     atom    4 type  1   force =     0.59767884   -0.87599392   -1.08050968
     atom    5 type  2   force =    -1.24949475    0.50238528   38.24525968
     atom    6 type  2   force =     0.23974858   -0.72122064  -38.57513757
     atom    7 type  1   force =    -4.09204384   -2.77609544   -4.26111223
     atom    8 type  2   force =     2.40739809   -4.55000962   31.53043528
     atom    9 type  2   force =     0.61863547   -0.40023625  -39.01231933
     atom   10 type  1   force =    -0.25695730    1.79553972    2.96091293
     atom   11 type  2   force =    -2.23854102    1.45193271   36.94797839
     atom   12 type  2   force =     0.27627502    1.03423971  -38.85780515
     atom   13 type  1   force =     0.27021896    1.00028562    1.85748551
     atom   14 type  2   force =    -0.25948592    0.33071054   38.43108874
     atom   15 type  2   force =     0.10892289    0.16675964  -37.43240002
     atom   16 type  1   force =    -0.54171521    2.63101662   -0.94066591
     atom   17 type  2   force =     0.65179485    1.10322722   37.75035852
     atom   18 type  2   force =    -0.20508957   -0.72272387  -39.01635472
     atom   19 type  1   force =     2.05471099   -2.16541304   -1.04853006
     atom   20 type  2   force =    -0.07011218   -0.38942798  -39.44880591
     atom   21 type  1   force =    -0.91958242    0.90592275   -0.70604632
     atom   22 type  2   force =     0.10853743   -1.34680866   38.05044154
     atom   23 type  2   force =    -0.16730865    0.71489539  -38.87558820
     atom   24 type  1   force =    -0.05053419    1.02994618    4.57224364
     atom   25 type  2   force =     0.64496163    0.41415099   39.06590477
     atom   26 type  2   force =    -0.23224660    0.14069736  -37.78003314
     atom   27 type  1   force =     0.12721519   -0.20641616   -3.22254225
     atom   28 type  2   force =     0.41978628    0.39537553   37.87156133
     atom   29 type  2   force =    -0.15906485   -0.46831644  -37.83431891
     atom   30 type  1   force =     1.68033044   -1.40080094   -2.89975019
     atom   31 type  2   force =     1.63969098   -0.30353443   36.98368039
     atom   32 type  2   force =    -0.48814438   -0.13111816  -39.25258114
     atom   33 type  1   force =     0.98605161    0.02603262    0.89026897
     atom   34 type  2   force =     1.50421215   -0.07239276   38.65572565
     atom   35 type  2   force =    -0.02464267    0.69501411  -38.57992793
     atom   36 type  3   force =    -2.95613855    0.67869067   47.97880377
     The local contribution  to forces
     atom    1 type  1   force =     0.02919525   -0.66787754   -4.67598423
     atom    2 type  2   force =     0.32117298   -0.72247908  -38.86044838
     atom    3 type  2   force =     0.08174136   -0.13417054   36.51370080
     atom    4 type  1   force =    -0.60644105    0.86377846    1.10643757
     atom    5 type  2   force =     1.23480142   -0.48224606  -38.01752231
     atom    6 type  2   force =    -0.23774971    0.72017336   38.32541458
     atom    7 type  1   force =     4.09929068    2.77911982    4.22378133
     atom    8 type  2   force =    -2.24031858    4.40559840  -31.77048608
     atom    9 type  2   force =    -0.61327120    0.41153821   38.76424437
     atom   10 type  1   force =     0.25926863   -1.79721696   -2.96803160
     atom   11 type  2   force =     2.18665292   -1.41858089  -36.78030154
     atom   12 type  2   force =    -0.26903945   -1.01311038   38.61651872
     atom   13 type  1   force =    -0.26528703   -1.01517574   -1.85456134
     atom   14 type  2   force =     0.25320611   -0.32275256  -38.17600528
     atom   15 type  2   force =    -0.11014246   -0.15960744   37.18425061
     atom   16 type  1   force =     0.53450082   -2.65567846    0.97625295
     atom   17 type  2   force =    -0.64878157   -1.08000615  -37.51629171
     atom   18 type  2   force =     0.20676554    0.71952412   38.77664855
     atom   19 type  1   force =    -2.07522640    2.14739517    1.06176152
     atom   20 type  2   force =     0.06876420    0.40478742   39.20263074
     atom   21 type  1   force =     0.90132355   -0.91128533    0.68807168
     atom   22 type  2   force =    -0.09995802    1.34227753  -37.81739638
     atom   23 type  2   force =     0.16393358   -0.69413191   38.63404608
     atom   24 type  1   force =     0.03705749   -1.04182138   -4.57143870
     atom   25 type  2   force =    -0.63865648   -0.40082377  -38.81832541
     atom   26 type  2   force =     0.22571574   -0.13193555   37.53741946
     atom   27 type  1   force =    -0.13394902    0.19764937    3.22009695
     atom   28 type  2   force =    -0.41041154   -0.37818106  -37.62415049
     atom   29 type  2   force =     0.15612564    0.47060650   37.58639443
     atom   30 type  1   force =    -1.68111104    1.41995684    2.89954485
     atom   31 type  2   force =    -1.62728721    0.30375899  -36.73480131
     atom   32 type  2   force =     0.48382883    0.14559042   39.00768993
     atom   33 type  1   force =    -0.98171502   -0.04093236   -0.89489668
     atom   34 type  2   force =    -1.50840007    0.07033893  -38.41112567
     atom   35 type  2   force =     0.01721494   -0.67863801   38.34471420
     atom   36 type  3   force =     2.08904108    0.26384287  -46.63434545
     The core correction contribution to forces
     atom    1 type  1   force =     0.00000000    0.00000000    0.00000000
     atom    2 type  2   force =     0.00008965    0.00000017    0.02092186
     atom    3 type  2   force =     0.00052227    0.00011976   -0.02084440
     atom    4 type  1   force =     0.00000000    0.00000000    0.00000000
     atom    5 type  2   force =    -0.00102074    0.00160322    0.02036738
     atom    6 type  2   force =     0.00007837   -0.00101656   -0.02117881
     atom    7 type  1   force =     0.00000000    0.00000000    0.00000000
     atom    8 type  2   force =     0.01138946   -0.01203855   -0.00683967
     atom    9 type  2   force =    -0.00005288    0.00049273   -0.02114732
     atom   10 type  1   force =     0.00000000    0.00000000    0.00000000
     atom   11 type  2   force =    -0.00182307   -0.00030834    0.01914693
     atom   12 type  2   force =     0.00100784    0.00147918   -0.02068161
     atom   13 type  1   force =     0.00000000    0.00000000    0.00000000
     atom   14 type  2   force =    -0.00073609   -0.00002473    0.02080138
     atom   15 type  2   force =     0.00052530    0.00022135   -0.02056531
     atom   16 type  1   force =     0.00000000    0.00000000    0.00000000
     atom   17 type  2   force =     0.00009003    0.00126027    0.02032057
     atom   18 type  2   force =     0.00000725   -0.00065773   -0.02102200
     atom   19 type  1   force =     0.00000000    0.00000000    0.00000000
     atom   20 type  2   force =     0.00023806    0.00088914   -0.02104827
     atom   21 type  1   force =     0.00000000    0.00000000    0.00000000
     atom   22 type  2   force =     0.00030697   -0.00051242    0.02052507
     atom   23 type  2   force =    -0.00034765    0.00160358   -0.02082393
     atom   24 type  1   force =     0.00000000    0.00000000    0.00000000
     atom   25 type  2   force =     0.00005240   -0.00021992    0.02102453
     atom   26 type  2   force =    -0.00015190    0.00056476   -0.02072094
     atom   27 type  1   force =     0.00000000    0.00000000    0.00000000
     atom   28 type  2   force =     0.00061457    0.00165164    0.02095645
     atom   29 type  2   force =    -0.00043506   -0.00043940   -0.02069704
     atom   30 type  1   force =     0.00000000    0.00000000    0.00000000
     atom   31 type  2   force =     0.00064458    0.00020624    0.02071466
     atom   32 type  2   force =    -0.00026384    0.00064374   -0.02098684
     atom   33 type  1   force =     0.00000000    0.00000000    0.00000000
     atom   34 type  2   force =    -0.00003193    0.00091698    0.02150055
     atom   35 type  2   force =    -0.00008623    0.00095297   -0.02082080
     atom   36 type  3   force =    -0.01038103    0.01162901    0.01324837
     The Hubbard contrib.    to forces
     atom    1 type  1   force =     0.00000000    0.00000000    0.00000000
     atom    2 type  2   force =     0.00000000    0.00000000    0.00000000
     atom    3 type  2   force =     0.00000000    0.00000000    0.00000000
     atom    4 type  1   force =     0.00000000    0.00000000    0.00000000
     atom    5 type  2   force =     0.00000000    0.00000000    0.00000000
     atom    6 type  2   force =     0.00000000    0.00000000    0.00000000
     atom    7 type  1   force =     0.00000000    0.00000000    0.00000000
     atom    8 type  2   force =     0.00000000    0.00000000    0.00000000
     atom    9 type  2   force =     0.00000000    0.00000000    0.00000000
     atom   10 type  1   force =     0.00000000    0.00000000    0.00000000
     atom   11 type  2   force =     0.00000000    0.00000000    0.00000000
     atom   12 type  2   force =     0.00000000    0.00000000    0.00000000
     atom   13 type  1   force =     0.00000000    0.00000000    0.00000000
     atom   14 type  2   force =     0.00000000    0.00000000    0.00000000
     atom   15 type  2   force =     0.00000000    0.00000000    0.00000000
     atom   16 type  1   force =     0.00000000    0.00000000    0.00000000
     atom   17 type  2   force =     0.00000000    0.00000000    0.00000000
     atom   18 type  2   force =     0.00000000    0.00000000    0.00000000
     atom   19 type  1   force =     0.00000000    0.00000000    0.00000000
     atom   20 type  2   force =     0.00000000    0.00000000    0.00000000
     atom   21 type  1   force =     0.00000000    0.00000000    0.00000000
     atom   22 type  2   force =     0.00000000    0.00000000    0.00000000
     atom   23 type  2   force =     0.00000000    0.00000000    0.00000000
     atom   24 type  1   force =     0.00000000    0.00000000    0.00000000
     atom   25 type  2   force =     0.00000000    0.00000000    0.00000000
     atom   26 type  2   force =     0.00000000    0.00000000    0.00000000
     atom   27 type  1   force =     0.00000000    0.00000000    0.00000000
     atom   28 type  2   force =     0.00000000    0.00000000    0.00000000
     atom   29 type  2   force =     0.00000000    0.00000000    0.00000000
     atom   30 type  1   force =     0.00000000    0.00000000    0.00000000
     atom   31 type  2   force =     0.00000000    0.00000000    0.00000000
     atom   32 type  2   force =     0.00000000    0.00000000    0.00000000
     atom   33 type  1   force =     0.00000000    0.00000000    0.00000000
     atom   34 type  2   force =     0.00000000    0.00000000    0.00000000
     atom   35 type  2   force =     0.00000000    0.00000000    0.00000000
     atom   36 type  3   force =     0.00000000    0.00000000    0.00000000
     The SCF correction term to forces
     atom    1 type  1   force =     0.00018452   -0.00031121   -0.00062902
     atom    2 type  2   force =    -0.00010619    0.00006913   -0.00033464
     atom    3 type  2   force =    -0.00000800   -0.00001840   -0.00013353
     atom    4 type  1   force =     0.00003883   -0.00026673   -0.00066554
     atom    5 type  2   force =     0.00003638   -0.00005913   -0.00022983
     atom    6 type  2   force =     0.00003526    0.00000266   -0.00027149
     atom    7 type  1   force =    -0.00013817    0.00011152   -0.00092038
     atom    8 type  2   force =    -0.00006119    0.00007569   -0.00035927
     atom    9 type  2   force =    -0.00013192    0.00010836   -0.00023939
     atom   10 type  1   force =    -0.00026620   -0.00000754   -0.00095418
     atom   11 type  2   force =    -0.00000609    0.00001352   -0.00035504
     atom   12 type  2   force =     0.00003413   -0.00003118   -0.00011454
     atom   13 type  1   force =    -0.00003890    0.00000745   -0.00074177
     atom   14 type  2   force =     0.00005698   -0.00006418   -0.00031152
     atom   15 type  2   force =    -0.00000588   -0.00008269   -0.00015990
     atom   16 type  1   force =    -0.00025989    0.00027694   -0.00072235
     atom   17 type  2   force =    -0.00006859    0.00005331   -0.00026056
     atom   18 type  2   force =    -0.00005400    0.00000811   -0.00018985
     atom   19 type  1   force =     0.00011675   -0.00018027   -0.00083878
     atom   20 type  2   force =     0.00001118    0.00005235   -0.00012084
     atom   21 type  1   force =     0.00021290    0.00009162   -0.00066702
     atom   22 type  2   force =     0.00002628    0.00001843   -0.00030061
     atom   23 type  2   force =    -0.00000560   -0.00000390   -0.00016162
     atom   24 type  1   force =    -0.00016665    0.00019116   -0.00083962
     atom   25 type  2   force =     0.00005854    0.00004642   -0.00023565
     atom   26 type  2   force =    -0.00000686   -0.00000605   -0.00024198
     atom   27 type  1   force =     0.00025827   -0.00010490   -0.00058105
     atom   28 type  2   force =     0.00002381   -0.00005028   -0.00026653
     atom   29 type  2   force =     0.00001250   -0.00010113   -0.00017766
     atom   30 type  1   force =     0.00004447    0.00030749   -0.00086466
     atom   31 type  2   force =     0.00011979   -0.00006136   -0.00028970
     atom   32 type  2   force =     0.00012686    0.00002626   -0.00017223
     atom   33 type  1   force =     0.00005440   -0.00010648   -0.00088722
     atom   34 type  2   force =     0.00001202   -0.00004120   -0.00032104
     atom   35 type  2   force =    -0.00004383    0.00001376   -0.00017844
     atom   36 type  3   force =    -0.00022800    0.00051534   -0.00057901

     Total force =     0.156136     Total SCF correction =     0.003226
     Energy error            =      3.4E-02 Ry
     Gradient error          =      8.3E-02 Ry/Bohr

     number of scf cycles    =   2
     number of bfgs steps    =   1

     energy             old  =   -2246.2790024149 Ry
     energy             new  =   -2246.3132511065 Ry

     CASE: energy            _new < energy            _old

     new trust radius        =       0.1379054597 bohr
     new conv_thr            =       0.0000000828 Ry


ATOMIC_POSITIONS (angstrom)
Mo            6.5856084979        1.7635461408        2.8276614299
S             8.1618559899        0.8267296853        4.4351066997
S             8.1808560691        0.8251031660        1.2699477294
Mo            8.0918279496        4.4856755298        2.7357471027
S             6.4939999732        3.7115164517        4.3399998249
S             6.5581312311        3.5211661302        1.1188377873
Mo            6.4878376947        7.2135784697        2.6177691362
S             8.0650157987        6.4170047661        4.2504686288
S             8.0953908729        6.3086860852        1.0960163795
Mo            8.1505864434        9.9030565906        2.8235263646
S             6.4883444960        8.9645266709        4.3449134216
S             6.6152637061        9.0508993517        1.1434706464
Mo            3.4273592377        1.7527763332        2.7685371506
S             4.9841344472        0.8152493034        4.3643669823
S             5.0443119118        0.8504716822        1.2168125607
Mo            4.9715937196        4.5285632687        2.6391756051
S             3.4325815258        3.6720949976        4.2826000468
S             3.4364439457        3.5421465641        1.0730620136
Mo            3.4546060366        7.1951912168        2.6250883228
S             4.9818693627        6.3216893043        1.0359580949
Mo            5.0031565935        9.9239605191        2.7319866987
S             3.4702102138        8.9424077228        4.3214937050
S             3.4083241601        9.0649953949        1.1029888020
Mo            0.2891695992        1.7438413312        2.8319101432
S             1.8669994551        0.8109834629        4.4023080090
S             1.8487497120        0.8530155336        1.2061662642
Mo            1.8593666478        4.4968922048        2.6699492962
S             0.2745182733        3.6481400438        4.3299486079
S             0.2323708444        3.5275781558        1.1683654022
Mo            0.2670090761        7.2406007440        2.7111335449
S             1.9071298844        6.3118008884        4.2372617698
S             1.8563793916        6.3158050441        1.0525095264
Mo            1.8570319137        9.9341347469        2.7660912857
S             0.2980560952        9.0485932742        4.4008883114
S             0.2654396933        9.0512434543        1.1633042720
O             7.4160743265        7.1832155144        5.4209512535



     Writing config-only to output data dir ./MoS2-V-O.save/
     NEW-OLD atomic charge density approx. for the potential

     negative rho (up, down):  1.470E-04 0.000E+00

     total cpu time spent up to now is      217.0 secs

     Self-consistent Calculation

     iteration #  1     ecut=    80.00 Ry     beta= 0.70
     Davidson diagonalization with overlap
     ethr =  1.00E-06,  avg # of iterations = 15.0

     negative rho (up, down):  1.902E-04 0.000E+00

     total cpu time spent up to now is      233.8 secs

     total energy              =   -2246.33778033 Ry
     estimated scf accuracy    <       0.00636764 Ry

     iteration #  2     ecut=    80.00 Ry     beta= 0.70
     Davidson diagonalization with overlap
     ethr =  2.04E-06,  avg # of iterations =  5.0

     negative rho (up, down):  2.598E-04 0.000E+00

     total cpu time spent up to now is      247.8 secs

     total energy              =   -2246.33904711 Ry
     estimated scf accuracy    <       0.00235307 Ry

     iteration #  3     ecut=    80.00 Ry     beta= 0.70
     Davidson diagonalization with overlap
     ethr =  7.54E-07,  avg # of iterations =  4.0

     negative rho (up, down):  3.516E-04 0.000E+00

     total cpu time spent up to now is      262.6 secs

     total energy              =   -2246.33922046 Ry
     estimated scf accuracy    <       0.00020538 Ry

     iteration #  4     ecut=    80.00 Ry     beta= 0.70
     Davidson diagonalization with overlap
     ethr =  6.58E-08,  avg # of iterations =  5.0

     negative rho (up, down):  3.819E-04 0.000E+00

     total cpu time spent up to now is      276.4 secs

     total energy              =   -2246.33924931 Ry
     estimated scf accuracy    <       0.00001742 Ry

     iteration #  5     ecut=    80.00 Ry     beta= 0.70
     Davidson diagonalization with overlap
     ethr =  5.58E-09,  avg # of iterations =  5.0

     negative rho (up, down):  3.932E-04 0.000E+00

     total cpu time spent up to now is      291.6 secs

     total energy              =   -2246.33925285 Ry
     estimated scf accuracy    <       0.00000871 Ry

     iteration #  6     ecut=    80.00 Ry     beta= 0.70
     Davidson diagonalization with overlap
     ethr =  2.79E-09,  avg # of iterations =  2.0

     negative rho (up, down):  3.932E-04 0.000E+00

     total cpu time spent up to now is      304.2 secs

     total energy              =   -2246.33925325 Ry
     estimated scf accuracy    <       0.00000210 Ry

     iteration #  7     ecut=    80.00 Ry     beta= 0.70
     Davidson diagonalization with overlap
     ethr =  6.73E-10,  avg # of iterations =  5.0

     negative rho (up, down):  3.710E-04 0.000E+00

     total cpu time spent up to now is      317.1 secs

     total energy              =   -2246.33925368 Ry
     estimated scf accuracy    <       0.00000031 Ry

     iteration #  8     ecut=    80.00 Ry     beta= 0.70
     Davidson diagonalization with overlap
     ethr =  9.84E-11,  avg # of iterations =  3.0

     negative rho (up, down):  3.201E-04 0.000E+00

     total cpu time spent up to now is      330.5 secs

     total energy              =   -2246.33925385 Ry
     estimated scf accuracy    <       0.00000015 Ry

     iteration #  9     ecut=    80.00 Ry     beta= 0.70
     Davidson diagonalization with overlap
     ethr =  4.95E-11,  avg # of iterations =  4.0

     negative rho (up, down):  1.994E-04 0.000E+00

     total cpu time spent up to now is      334.6 secs

     End of self-consistent calculation

          k = 0.0000 0.0000 0.0000 (105382 PWs)   bands (ev):

   -63.0200 -62.9762 -62.9627 -62.9404 -62.9100 -62.8996 -62.8907 -62.8892
   -62.8732 -62.8641 -62.8509 -62.7879 -37.3272 -37.2627 -37.2522 -37.2393
   -37.2138 -37.2062 -37.1945 -37.1677 -37.1619 -37.1562 -37.1443 -37.1423
   -37.1257 -37.1188 -37.1064 -37.1043 -37.0954 -37.0856 -37.0695 -37.0658
   -37.0605 -37.0499 -37.0331 -37.0286 -37.0121 -37.0005 -36.9947 -36.9821
   -36.9682 -36.9651 -36.9503 -36.9343 -36.9254 -36.8850 -36.8318 -36.7801
   -22.3273 -16.0255 -15.2934 -15.1898 -15.0219 -14.9837 -14.8275 -14.5994
   -14.5612 -14.5353 -14.4972 -14.4580 -14.4198 -14.3720 -14.3198 -14.2642
   -14.2164 -14.2029 -14.1291 -14.0126 -13.9465 -13.9383 -13.9257 -13.7829
    -8.2450  -7.8829  -7.7479  -7.5946  -7.4845  -7.3286  -7.3075  -7.2886
    -7.2120  -7.0747  -7.0105  -6.9121  -6.8575  -6.7757  -6.7098  -6.6841
    -6.5198  -6.4695  -6.3643  -6.3555  -6.1686  -6.1176  -5.9886  -5.9709
    -5.8747  -5.8644  -5.8385  -5.7957  -5.7763  -5.7383  -5.6609  -5.6406
    -5.6305  -5.5974  -5.5151  -5.2806  -5.2421  -5.2074  -5.1596  -5.1090
    -5.0796  -5.0175  -5.0097  -4.8598  -4.7795  -4.6665  -4.4370  -4.3815
    -4.3611  -4.3010  -4.2909  -4.1555  -4.1327  -4.1082  -3.8913  -3.8514
    -3.8237  -3.7869  -3.7112  -3.6705  -3.6195  -3.6111  -3.5692  -3.5282
    -3.5058  -3.4733  -3.3758  -3.3236  -3.1626  -3.0725  -2.9528  -2.9111
    -2.8705  -2.8512  -2.7951  -2.7903  -2.7494  -2.7117  -2.6478  -2.3831
    -2.2995  -2.0842  -2.0395  -1.7842  -1.0182  -0.7682  -0.5014  -0.2677
    -0.2322  -0.1647  -0.0212  -0.0046   0.0373   0.1493   0.1605   0.2046
     0.2449   0.2795   0.3305   0.3912   0.4657   0.4851   0.5198   0.5641
     0.6065   0.6567   0.6626   0.7186   0.7446   0.8008   0.8503   0.9062
     0.9610   1.0098   1.2396

     the Fermi energy is    -1.4012 ev

!    total energy              =   -2246.33925394 Ry
     estimated scf accuracy    <       0.00000005 Ry
     smearing contrib. (-TS)   =      -0.00000408 Ry
     internal energy E=F+TS    =   -2246.33924986 Ry

     The total energy is F=E-TS. E is the sum of the following terms:
     one-electron contribution =  -18446.23235135 Ry
     hartree contribution      =    9210.95555959 Ry
     xc contribution           =    -392.13024231 Ry
     ewald contribution        =    7390.92958219 Ry
     one-center paw contrib.   =      -9.86179799 Ry

     convergence has been achieved in   9 iterations

     negative rho (up, down):  1.994E-04 0.000E+00

     Forces acting on atoms (cartesian axes, Ry/au):

     atom    1 type  1   force =    -0.00476351   -0.00347430   -0.00452540
     atom    2 type  2   force =    -0.00438993    0.00471121   -0.00195992
     atom    3 type  2   force =    -0.00792104    0.00549080   -0.01063474
     atom    4 type  1   force =     0.00343067    0.00840424    0.01414597
     atom    5 type  2   force =    -0.00399780   -0.00769248   -0.00174714
     atom    6 type  2   force =     0.00114922    0.00523737    0.00551874
     atom    7 type  1   force =     0.00085140    0.00521435   -0.01033253
     atom    8 type  2   force =    -0.01935646    0.02765096   -0.02641249
     atom    9 type  2   force =     0.01488858   -0.00190270    0.00425201
     atom   10 type  1   force =    -0.00153919    0.01029092   -0.00525280
     atom   11 type  2   force =    -0.00850865    0.00817691   -0.02470715
     atom   12 type  2   force =    -0.00344658    0.00827148   -0.01093508
     atom   13 type  1   force =     0.00361799    0.00194953    0.00058819
     atom   14 type  2   force =     0.00322783    0.00027331    0.00588250
     atom   15 type  2   force =    -0.00606811    0.00653138   -0.00889101
     atom   16 type  1   force =     0.00047515    0.00476253    0.00273051
     atom   17 type  2   force =     0.00318129    0.00057076    0.00359897
     atom   18 type  2   force =    -0.00129320   -0.00040974    0.00868280
     atom   19 type  1   force =     0.00294197   -0.00417856    0.00100712
     atom   20 type  2   force =    -0.00655823   -0.00839136   -0.01352320
     atom   21 type  1   force =    -0.00776805    0.00201899   -0.00375702
     atom   22 type  2   force =     0.00230071   -0.00233876   -0.00511611
     atom   23 type  2   force =     0.00066419   -0.00208996    0.00182179
     atom   24 type  1   force =    -0.00291573   -0.00095619   -0.00356812
     atom   25 type  2   force =     0.00822463    0.00913737   -0.00393002
     atom   26 type  2   force =    -0.00459848   -0.00156734   -0.00325570
     atom   27 type  1   force =    -0.00279671   -0.00071196    0.00416198
     atom   28 type  2   force =     0.00048985   -0.00534955   -0.00198669
     atom   29 type  2   force =    -0.00021458    0.00289304   -0.00073708
     atom   30 type  1   force =     0.00451180    0.00406318    0.00787142
     atom   31 type  2   force =     0.00270922    0.00006619    0.00841264
     atom   32 type  2   force =    -0.00687343    0.00271273    0.00592104
     atom   33 type  1   force =    -0.00122444   -0.00069163    0.00280252
     atom   34 type  2   force =     0.00011400   -0.01700460   -0.00979175
     atom   35 type  2   force =    -0.00534626    0.00801316    0.00277003
     atom   36 type  3   force =     0.04680189   -0.06968128    0.07089573
     The non-local contrib.  to forces
     atom    1 type  1   force =    -0.00633728    0.02293635   -0.01216946
     atom    2 type  2   force =    -0.00143403   -0.00712333   -0.27248201
     atom    3 type  2   force =    -0.00944425   -0.00874614    0.26503628
     atom    4 type  1   force =     0.00734240    0.01563263   -0.00497885
     atom    5 type  2   force =     0.01051764   -0.02983727   -0.25236333
     atom    6 type  2   force =    -0.00084715    0.00629524    0.27547175
     atom    7 type  1   force =    -0.00448739   -0.00619897    0.01024356
     atom    8 type  2   force =    -0.16939409    0.16187446    0.24921086
     atom    9 type  2   force =     0.00738352   -0.01160257    0.27594362
     atom   10 type  1   force =    -0.00657545    0.00392966   -0.00327973
     atom   11 type  2   force =     0.03044772   -0.00043019   -0.23639814
     atom   12 type  2   force =    -0.01241860   -0.01538875    0.25471429
     atom   13 type  1   force =     0.00079585    0.02001998   -0.00550167
     atom   14 type  2   force =     0.01029599   -0.00724917   -0.26765960
     atom   15 type  2   force =    -0.00616115   -0.00114720    0.25847407
     atom   16 type  1   force =     0.00339767    0.03414376   -0.03257078
     atom   17 type  2   force =     0.00057521   -0.02368981   -0.25130546
     atom   18 type  2   force =    -0.00269801    0.00238574    0.27092904
     atom   19 type  1   force =     0.02279868    0.00454947   -0.01610695
     atom   20 type  2   force =    -0.00460719   -0.02283556    0.25499459
     atom   21 type  1   force =     0.00864413    0.01966490    0.01060527
     atom   22 type  2   force =    -0.00632629    0.00148090   -0.26075030
     atom   23 type  2   force =     0.00565842   -0.02421773    0.26531379
     atom   24 type  1   force =     0.00823033    0.00949671   -0.00768564
     atom   25 type  2   force =     0.00277763   -0.00375771   -0.27123679
     atom   26 type  2   force =     0.00142457   -0.01034861    0.26060115
     atom   27 type  1   force =     0.00274609    0.00900134    0.00853182
     atom   28 type  2   force =    -0.01024414   -0.02164527   -0.27305165
     atom   29 type  2   force =     0.00353140   -0.00087887    0.26793754
     atom   30 type  1   force =    -0.00061749   -0.00427243    0.01220600
     atom   31 type  2   force =    -0.01140462   -0.00024013   -0.25976262
     atom   32 type  2   force =    -0.00086430   -0.01298077    0.27097058
     atom   33 type  1   force =     0.00155488    0.01045833    0.00458952
     atom   34 type  2   force =     0.00436963   -0.01908542   -0.27833083
     atom   35 type  2   force =     0.00149481   -0.00955542    0.26138384
     atom   36 type  3   force =     0.96713233   -1.05996474   -1.44649251
     The ionic contribution  to forces
     atom    1 type  1   force =    -0.14291918    0.88972437    4.67706500
     atom    2 type  2   force =    -0.19132194    0.62701695   39.16968000
     atom    3 type  2   force =    -0.04396756    0.16076697  -36.87236124
     atom    4 type  1   force =     0.59441917   -0.74015150   -0.48311030
     atom    5 type  2   force =    -1.26114921    0.51226088   38.17669918
[...]
     atom   28 type  2   force =    -0.00114801   -0.01128653   -0.27877884
     atom   29 type  2   force =    -0.00213363   -0.00627025    0.26713441
     atom   30 type  1   force =    -0.00491367    0.00320933    0.01991801
     atom   31 type  2   force =    -0.00848328   -0.00191112   -0.26833583
     atom   32 type  2   force =     0.00819617   -0.01305463    0.26358477
     atom   33 type  1   force =     0.00044867    0.00736586    0.00485926
     atom   34 type  2   force =     0.00021485   -0.00851021   -0.27656784
     atom   35 type  2   force =     0.00103175   -0.01433421    0.26386785
     atom   36 type  3   force =     0.05629355    0.03916421   -2.30929060
     The ionic contribution  to forces
     atom    1 type  1   force =    -0.24447108    0.24909455    1.89322153
     atom    2 type  2   force =    -0.16784625    0.04621204   38.59270939
     atom    3 type  2   force =     0.09431331   -0.00942486  -37.73265626
     atom    4 type  1   force =    -0.07607822   -0.93417645   -3.66955128
     atom    5 type  2   force =    -1.43388206    0.10293546   37.65401709
     atom    6 type  2   force =     0.11578182   -0.50231944  -38.66696140
     atom    7 type  1   force =    -3.33020398   -1.46372996   -2.52213659
     atom    8 type  2   force =    -1.03295609    0.22496010   27.91177131
     atom    9 type  2   force =     0.38547836   -0.04489943  -38.65168844
     atom   10 type  1   force =    -0.38688888    0.63338346    1.76614792
     atom   11 type  2   force =    -1.07661213   -0.31597431   37.86301362
     atom   12 type  2   force =     0.23345502    0.59492799  -38.81352208
     atom   13 type  1   force =     0.09139551    0.56594882    2.32570326
     atom   14 type  2   force =    -0.09935604   -0.08297826   38.51688217
     atom   15 type  2   force =    -0.03390040   -0.03846835  -37.92465046
     atom   16 type  1   force =    -0.51288912    2.76260938    0.91006174
     atom   17 type  2   force =     0.78377233    0.84200725   38.16563263
     atom   18 type  2   force =    -0.19316347   -0.51182241  -38.33740813
     atom   19 type  1   force =     2.55814863   -1.58799463    0.68282753
     atom   20 type  2   force =    -0.08583636   -0.17438370  -39.62517369
     atom   21 type  1   force =    -0.29430200    0.39793368   -0.15765772
     atom   22 type  2   force =     0.40753356   -1.11732527   38.19424873
     atom   23 type  2   force =    -0.26310057    0.48731554  -38.52644809
     atom   24 type  1   force =     0.12293780   -0.07392367    1.96708957
     atom   25 type  2   force =     0.28426644    0.03718790   38.75883210
     atom   26 type  2   force =    -0.04833168   -0.00585020  -37.84179663
     atom   27 type  1   force =     0.56668562   -0.26659113   -0.54133922
     atom   28 type  2   force =     0.60855836   -0.43860530   37.60274092
     atom   29 type  2   force =     0.09489627   -0.25402153  -38.30888251
     atom   30 type  1   force =     1.01249372   -0.08134046   -1.88297555
     atom   31 type  2   force =     2.00623266    0.07848114   37.58348085
     atom   32 type  2   force =    -0.32565162   -0.10316030  -38.72654386
     atom   33 type  1   force =     0.70835675    0.20293958    1.59470490
     atom   34 type  2   force =     0.56391727    0.56955808   38.25910967
     atom   35 type  2   force =     0.01057378    0.37781283  -38.25109181
     atom   36 type  3   force =    -1.04332725   -0.16631814   49.93828875
     The local contribution  to forces
     atom    1 type  1   force =     0.25021767   -0.27261703   -1.88689099
     atom    2 type  2   force =     0.16879857   -0.03633189  -38.34349361
     atom    3 type  2   force =    -0.09114757    0.01929020   37.48480329
     atom    4 type  1   force =     0.07415645    0.91235208    3.64732373
     atom    5 type  2   force =     1.43210115   -0.08101966  -37.41418556
     atom    6 type  2   force =    -0.11545647    0.50402137   38.41979159
     atom    7 type  1   force =     3.33872776    1.47211348    2.52766341
     atom    8 type  2   force =     1.03510483   -0.19564494  -28.20021889
     atom    9 type  2   force =    -0.37888262    0.05632533   38.39191434
     atom   10 type  1   force =     0.38572899   -0.63721056   -1.76737371
     atom   11 type  2   force =     1.07179911    0.31804163  -37.61945374
     atom   12 type  2   force =    -0.22494807   -0.57917142   38.57168303
     atom   13 type  1   force =    -0.09280442   -0.59136446   -2.31833352
     atom   14 type  2   force =     0.09789448    0.09252290  -38.26661987
     atom   15 type  2   force =     0.03405380    0.04857753   37.68224386
     atom   16 type  1   force =     0.51286345   -2.79373753   -0.87107205
     atom   17 type  2   force =    -0.78181821   -0.82053139  -37.92890542
     atom   18 type  2   force =     0.19309032    0.51305902   38.08965281
     atom   19 type  1   force =    -2.57485606    1.58260108   -0.65771028
     atom   20 type  2   force =     0.08631134    0.18418706   39.38519135
     atom   21 type  1   force =     0.29543814   -0.42473689    0.15317087
     atom   22 type  2   force =    -0.40103394    1.11925117  -37.95124433
     atom   23 type  2   force =     0.25505854   -0.47329628   38.28331527
     atom   24 type  1   force =    -0.12745547    0.06168363   -1.96548460
     atom   25 type  2   force =    -0.28271731   -0.02683299  -38.51047044
     atom   26 type  2   force =     0.04534854    0.01619934   37.59628225
     atom   27 type  1   force =    -0.56113177    0.25932652    0.53900153
     atom   28 type  2   force =    -0.60793372    0.44935049  -37.34609315
     atom   29 type  2   force =    -0.09367379    0.26098340   38.06234279
     atom   30 type  1   force =    -1.00771001    0.07755466    1.86327633
     atom   31 type  2   force =    -1.99806122   -0.07765088  -37.33569252
     atom   32 type  2   force =     0.31736566    0.11528057   38.48338960
     atom   33 type  1   force =    -0.70914959   -0.21060339   -1.59872231
     atom   34 type  2   force =    -0.56425616   -0.56145407  -38.00319360
     atom   35 type  2   force =    -0.01147851   -0.36361243   38.00761023
     atom   36 type  3   force =     0.98838700    0.12735867  -47.65445782
     The core correction contribution to forces
     atom    1 type  1   force =     0.00000000    0.00000000    0.00000000
     atom    2 type  2   force =    -0.00000230    0.00042862    0.02097713
     atom    3 type  2   force =     0.00021206    0.00044158   -0.02090657
     atom    4 type  1   force =     0.00000000    0.00000000    0.00000000
     atom    5 type  2   force =    -0.00027598    0.00106773    0.02083455
     atom    6 type  2   force =     0.00007137   -0.00036227   -0.02096180
     atom    7 type  1   force =     0.00000000    0.00000000    0.00000000
     atom    8 type  2   force =     0.00005375    0.00181440   -0.00987079
     atom    9 type  2   force =     0.00068474    0.00066773   -0.02142503
     atom   10 type  1   force =     0.00000000    0.00000000    0.00000000
     atom   11 type  2   force =    -0.00008211   -0.00023605    0.02101264
     atom   12 type  2   force =     0.00078127    0.00127281   -0.02078339
     atom   13 type  1   force =     0.00000000    0.00000000    0.00000000
     atom   14 type  2   force =    -0.00005788    0.00008727    0.02106829
     atom   15 type  2   force =    -0.00002394    0.00050900   -0.02074468
     atom   16 type  1   force =     0.00000000    0.00000000    0.00000000
     atom   17 type  2   force =     0.00029293    0.00099497    0.02056113
     atom   18 type  2   force =    -0.00014325   -0.00044081   -0.02096636
     atom   19 type  1   force =     0.00000000    0.00000000    0.00000000
     atom   20 type  2   force =    -0.00006466    0.00028551   -0.02110911
     atom   21 type  1   force =     0.00000000    0.00000000    0.00000000
     atom   22 type  2   force =     0.00013850   -0.00012575    0.02085191
     atom   23 type  2   force =    -0.00070884    0.00105767   -0.02081259
     atom   24 type  1   force =     0.00000000    0.00000000    0.00000000
     atom   25 type  2   force =     0.00009979    0.00038253    0.02102136
     atom   26 type  2   force =    -0.00014205    0.00056923   -0.02089830
     atom   27 type  1   force =     0.00000000    0.00000000    0.00000000
     atom   28 type  2   force =     0.00004448    0.00084482    0.02148635
     atom   29 type  2   force =     0.00016829    0.00012404   -0.02080876
     atom   30 type  1   force =     0.00000000    0.00000000    0.00000000
     atom   31 type  2   force =     0.00042166    0.00030157    0.02119796
     atom   32 type  2   force =    -0.00071883    0.00058177   -0.02075546
     atom   33 type  1   force =     0.00000000    0.00000000    0.00000000
     atom   34 type  2   force =    -0.00002700    0.00033165    0.02150658
     atom   35 type  2   force =    -0.00012271    0.00088548   -0.02083040
     atom   36 type  3   force =    -0.00061105   -0.00039802    0.02446379
     The Hubbard contrib.    to forces
     atom    1 type  1   force =     0.00000000    0.00000000    0.00000000
     atom    2 type  2   force =     0.00000000    0.00000000    0.00000000
     atom    3 type  2   force =     0.00000000    0.00000000    0.00000000
     atom    4 type  1   force =     0.00000000    0.00000000    0.00000000
     atom    5 type  2   force =     0.00000000    0.00000000    0.00000000
     atom    6 type  2   force =     0.00000000    0.00000000    0.00000000
     atom    7 type  1   force =     0.00000000    0.00000000    0.00000000
     atom    8 type  2   force =     0.00000000    0.00000000    0.00000000
     atom    9 type  2   force =     0.00000000    0.00000000    0.00000000
     atom   10 type  1   force =     0.00000000    0.00000000    0.00000000
     atom   11 type  2   force =     0.00000000    0.00000000    0.00000000
     atom   12 type  2   force =     0.00000000    0.00000000    0.00000000
     atom   13 type  1   force =     0.00000000    0.00000000    0.00000000
     atom   14 type  2   force =     0.00000000    0.00000000    0.00000000
     atom   15 type  2   force =     0.00000000    0.00000000    0.00000000
     atom   16 type  1   force =     0.00000000    0.00000000    0.00000000
     atom   17 type  2   force =     0.00000000    0.00000000    0.00000000
     atom   18 type  2   force =     0.00000000    0.00000000    0.00000000
     atom   19 type  1   force =     0.00000000    0.00000000    0.00000000
     atom   20 type  2   force =     0.00000000    0.00000000    0.00000000
     atom   21 type  1   force =     0.00000000    0.00000000    0.00000000
     atom   22 type  2   force =     0.00000000    0.00000000    0.00000000
     atom   23 type  2   force =     0.00000000    0.00000000    0.00000000
     atom   24 type  1   force =     0.00000000    0.00000000    0.00000000
     atom   25 type  2   force =     0.00000000    0.00000000    0.00000000
     atom   26 type  2   force =     0.00000000    0.00000000    0.00000000
     atom   27 type  1   force =     0.00000000    0.00000000    0.00000000
     atom   28 type  2   force =     0.00000000    0.00000000    0.00000000
     atom   29 type  2   force =     0.00000000    0.00000000    0.00000000
     atom   30 type  1   force =     0.00000000    0.00000000    0.00000000
     atom   31 type  2   force =     0.00000000    0.00000000    0.00000000
     atom   32 type  2   force =     0.00000000    0.00000000    0.00000000
     atom   33 type  1   force =     0.00000000    0.00000000    0.00000000
     atom   34 type  2   force =     0.00000000    0.00000000    0.00000000
     atom   35 type  2   force =     0.00000000    0.00000000    0.00000000
     atom   36 type  3   force =     0.00000000    0.00000000    0.00000000
     The SCF correction term to forces
     atom    1 type  1   force =     0.00000056   -0.00003008    0.00001893
     atom    2 type  2   force =     0.00000109   -0.00001002    0.00001308
     atom    3 type  2   force =    -0.00000639   -0.00001953    0.00000359
     atom    4 type  1   force =    -0.00001571    0.00001296    0.00003771
     atom    5 type  2   force =    -0.00000040    0.00000778    0.00001831
     atom    6 type  2   force =    -0.00000195   -0.00000397    0.00000009
     atom    7 type  1   force =    -0.00000714    0.00003298    0.00001066
     atom    8 type  2   force =    -0.00001964    0.00001871    0.00001845
     atom    9 type  2   force =    -0.00000786    0.00001708   -0.00000386
     atom   10 type  1   force =    -0.00000501   -0.00001814    0.00001267
     atom   11 type  2   force =     0.00001010    0.00000068    0.00001716
     atom   12 type  2   force =     0.00000529   -0.00000000   -0.00000506
     atom   13 type  1   force =    -0.00000508   -0.00003428    0.00002448
     atom   14 type  2   force =     0.00000240   -0.00000548    0.00001062
     atom   15 type  2   force =     0.00000052   -0.00002032   -0.00000436
     atom   16 type  1   force =     0.00000073    0.00002456    0.00004060
     atom   17 type  2   force =     0.00000147    0.00000557    0.00001949
     atom   18 type  2   force =     0.00000371   -0.00000120    0.00000474
     atom   19 type  1   force =     0.00000595    0.00002503    0.00000412
     atom   20 type  2   force =    -0.00000256    0.00001716    0.00000050
     atom   21 type  1   force =    -0.00000268   -0.00000495    0.00000204
     atom   22 type  2   force =    -0.00000559    0.00000140    0.00000338
     atom   23 type  2   force =    -0.00000450    0.00000493   -0.00000187
     atom   24 type  1   force =    -0.00000212   -0.00003030    0.00002419
     atom   25 type  2   force =    -0.00000263   -0.00001175    0.00000983
     atom   26 type  2   force =     0.00000348   -0.00002522    0.00000578
     atom   27 type  1   force =     0.00001015    0.00000487    0.00003374
     atom   28 type  2   force =    -0.00000029   -0.00000343    0.00001263
     atom   29 type  2   force =    -0.00000078   -0.00000580    0.00001304
     atom   30 type  1   force =    -0.00000432    0.00003919    0.00001520
     atom   31 type  2   force =     0.00000929    0.00000362    0.00001310
     atom   32 type  2   force =     0.00001467    0.00002088   -0.00000146
     atom   33 type  1   force =     0.00000274   -0.00000671    0.00000345
     atom   34 type  2   force =    -0.00000363    0.00000643    0.00001156
     atom   35 type  2   force =     0.00000077    0.00001050   -0.00000088
     atom   36 type  3   force =    -0.00005064    0.00005139    0.00002967

     Total force =     0.004825     Total SCF correction =     0.000165
     Energy error            =      6.3E-05 Ry
     Gradient error          =      1.4E-03 Ry/Bohr

     bfgs converged in  23 scf cycles and  22 bfgs steps
     (criteria: energy <  1.0E-04 Ry, force <  1.0E-02 Ry/Bohr)

     End of BFGS Geometry Optimization

     Final energy             =   -2246.4507599190 Ry

     File ./MoS2-V-O.bfgs deleted, as requested
Begin final coordinates

ATOMIC_POSITIONS (angstrom)
Mo            6.5347196033        1.7855297047        2.7680206285
S             8.1088890791        0.8722887202        4.3743918159
S             8.1215364697        0.8746237163        1.1913745133
Mo            8.1053913167        4.4937397593        2.6970389788
S             6.5096490371        3.6986823214        4.3176026597
S             6.5131168477        3.5794256459        1.1108244639
Mo            6.4716884658        7.2305275949        2.6338418073
S             8.0671300245        6.3538956175        4.1974316153
S             8.1301540908        6.3483247841        1.1163915393
Mo            8.1121507840        9.9587568388        2.7744083030
S             6.4925234387        8.9553214037        4.3294036662
S             6.5717406287        9.0790575969        1.1117197301
Mo            3.4097394200        1.7823721259        2.7718184978
S             4.9753939893        0.8352371638        4.3534943412
S             4.9703611255        0.8731529872        1.1730937276
Mo            4.9750547286        4.5763906914        2.6669910048
S             3.4500400611        3.6934532083        4.3198498962
S             3.4190085096        3.5868770722        1.1236181063
Mo            3.4556434682        7.2164256685        2.6571410892
S             4.9621955502        6.3303698666        1.0226766555
Mo            4.9754378429        9.9363762853        2.7252334086
S             3.4477082357        8.9858050809        4.3185625390
S             3.3805046938        9.0682534594        1.1192864549
Mo            0.2519863449        1.7748638987        2.7804927980
S             1.8377846426        0.8703153502        4.3755805528
S             1.8318446248        0.8782024848        1.1849006623
Mo            1.8519777567        4.5240501123        2.7195800689
S             0.2442151521        3.6437544419        4.3281020520
S             0.2667177083        3.5722593866        1.1450957753
Mo            0.2770934162        7.2578628434        2.7266340856
S             1.9099834185        6.3472818426        4.2959394877
S             1.8441746990        6.3428631558        1.1049462271
Mo            1.8280791457        9.9667134567        2.7647625766
S             0.2467634136        9.0548421027        4.3644135023
S             0.2404698058        9.0938886081        1.1659577683
O             8.0367372505        6.3250947466        5.6957018202
End final coordinates



     Writing all to output data dir ./MoS2-V-O.save/
 
     init_run     :      4.69s CPU      5.19s WALL (       1 calls)
     electrons    :   2151.92s CPU   2455.33s WALL (      23 calls)
     update_pot   :     70.01s CPU     75.09s WALL (      22 calls)
     forces       :     67.93s CPU     78.84s WALL (      23 calls)

     Called by init_run:
     wfcinit      :      0.49s CPU      0.54s WALL (       1 calls)
     potinit      :      2.42s CPU      2.66s WALL (       1 calls)
     hinit0       :      0.45s CPU      0.48s WALL (       1 calls)

     Called by electrons:
     c_bands      :    312.81s CPU    320.97s WALL (     213 calls)
     sum_band     :    131.58s CPU    181.09s WALL (     213 calls)
     v_of_rho     :    246.26s CPU    300.48s WALL (     226 calls)
     newd         :     81.35s CPU    121.88s WALL (     226 calls)
     PAW_pot      :      9.02s CPU      9.09s WALL (     248 calls)
     mix_rho      :   1397.84s CPU   1552.41s WALL (     213 calls)

     Called by c_bands:
     init_us_2    :      4.90s CPU      5.31s WALL (     449 calls)
     init_us_2:cp :      4.90s CPU      5.30s WALL (     449 calls)
     regterg      :    296.82s CPU    304.58s WALL (     213 calls)

     Called by *egterg:
     rdiaghg      :     20.01s CPU     20.24s WALL (    1124 calls)
     h_psi        :    193.50s CPU    195.42s WALL (    1157 calls)
     s_psi        :     17.83s CPU     17.89s WALL (    1157 calls)
     g_psi        :      0.98s CPU      0.99s WALL (     943 calls)

     Called by h_psi:
     h_psi:calbec :     20.51s CPU     20.66s WALL (    1157 calls)
     vloc_psi     :    152.73s CPU    154.36s WALL (    1157 calls)
     add_vuspsi   :     17.83s CPU     17.93s WALL (    1157 calls)

     General routines
     calbec       :     29.91s CPU     30.10s WALL (    1484 calls)
     fft          :    172.17s CPU    194.04s WALL (   15129 calls)
     ffts         :    622.68s CPU    771.42s WALL (  339957 calls)
     fftw         :     95.84s CPU     96.67s WALL (  130558 calls)
     interpolate  :      2.87s CPU      3.30s WALL (     226 calls)
 
     Parallel routines
 
     PWSCF        :  38m25.70s CPU  43m50.95s WALL

 
   This run was terminated on:  20:24: 5   1Nov2023            

=------------------------------------------------------------------------------=
   JOB DONE.
=------------------------------------------------------------------------------=
