
     Program PWSCF v.7.2 starts on  1Nov2023 at 11:43:55 

     This program is part of the open-source Quantum ESPRESSO suite
     for quantum simulation of materials; please cite
         "P. Giannozzi et al., J. Phys.:Condens. Matter 21 395502 (2009);
         "P. Giannozzi et al., J. Phys.:Condens. Matter 29 465901 (2017);
         "P. Giannozzi et al., J. Chem. Phys. 152 154105 (2020);
          URL http://www.quantum-espresso.org", 
     in publications or presentations arising from this work. More details at
     http://www.quantum-espresso.org/quote

     Parallel version (MPI & OpenMP), running on      48 processor cores
     Number of MPI processes:                48
     Threads/MPI process:                     1

     MPI processes distributed on     1 nodes
     167555 MiB available memory on the printing compute node when the environment starts
 
     Waiting for input...
     Reading input from standard input
Warning: card &CELL ignored
Warning: card CELL_DYNAMICS = 'BFGS', ignored
Warning: card CELL_DOFREE = '2DXY' ignored
Warning: card / ignored

     Current dimensions of program PWSCF are:
     Max number of different atomic species (ntypx) = 10
     Max number of k-points (npk) =  40000
     Max angular momentum in pseudopotentials (lmaxx) =  4
     file O.pbe-n-kjpaw_psl.0.1.UPF: wavefunction(s)  2P renormalized

     IMPORTANT: XC functional enforced from input :
     Exchange-correlation= RVV10
                           (   1   4  13   4  26   0   0)
     Any further DFT definition will be discarded
     Please, verify this is what you really want


     gamma-point specific algorithms are used
     signal trapping enabled: kill the code with -SIGUSR1 to stop cleanly the simulation 
 
     R & G space division:  proc/nbgrp/npool/nimage =      48
     Subspace diagonalization in iterative solution of the eigenvalue problem:
     one sub-group per band group will be used
     scalapack distributed-memory algorithm (size of sub-group:  2*  2 procs)

 
     Parallelization info
     --------------------
     sticks:   dense  smooth     PW     G-vecs:    dense   smooth      PW
     Min         396     194     47               101632    35090    4376
     Max         398     196     50               101674    35128    4410
     Sum       19091    9389   2349              4879585  1685513  210763
 
     Using Slab Decomposition
 


     bravais-lattice index     =            0
     lattice parameter (alat)  =      17.8707  a.u.
     unit-cell volume          =   17436.2743 (a.u.)^3
     number of atoms/cell      =           36
     number of atomic types    =            3
     number of electrons       =       312.00
     number of Kohn-Sham states=          187
     kinetic-energy cutoff     =      80.0000  Ry
     charge density cutoff     =     650.0000  Ry
     scf convergence threshold =      1.0E-06
     mixing beta               =       0.7000
     number of iterations used =            8  local-TF  mixing
     energy convergence thresh.=      1.0E-04
     force convergence thresh. =      1.0E-02
     Exchange-correlation= RVV10
                           (   1   4  13   4  26   0   0)
     nstep                     =          200


     celldm(1)=  17.870686  celldm(2)=   0.000000  celldm(3)=   0.000000
     celldm(4)=   0.000000  celldm(5)=   0.000000  celldm(6)=   0.000000

     crystal axes: (cart. coord. in units of alat)
               a(1) = (   1.000000   0.000000   0.000000 )  
               a(2) = (   0.000000   1.155671   0.000000 )  
               a(3) = (   0.000000   0.000000   2.643601 )  

     reciprocal axes: (cart. coord. in units 2 pi/alat)
               b(1) = (  1.000000  0.000000  0.000000 )  
               b(2) = (  0.000000  0.865298  0.000000 )  
               b(3) = (  0.000000  0.000000  0.378272 )  


     PseudoPot. # 1 for Mo read from file:
     ../pseudo/Mo_ONCV_PBE-1.0.oncvpsp.upf
     MD5 check sum: 1b5d28e075c9ccadda658a603575cd1f
     Pseudo is Norm-conserving, Zval = 14.0
     Generated using ONCVPSP code by D. R. Hamann
     Using radial grid of 1526 points,  6 beta functions with: 
                l(1) =   0
                l(2) =   0
                l(3) =   1
                l(4) =   1
                l(5) =   2
                l(6) =   2

     PseudoPot. # 2 for S  read from file:
     ../pseudo/s_pbe_v1.4.uspp.F.UPF
     MD5 check sum: 88d86576ff6df21479756cfb9bdac1df
     Pseudo is Ultrasoft + core correction, Zval =  6.0
     Generated by new atomic code, or converted to UPF format
     Using radial grid of  907 points,  6 beta functions with: 
                l(1) =   0
                l(2) =   0
                l(3) =   1
                l(4) =   1
                l(5) =   2
                l(6) =   2
     Q(r) pseudized with  8 coefficients,  rinner =    1.300   1.300   1.300
                                                       1.300   1.300

     PseudoPot. # 3 for O  read from file:
     ../pseudo/O.pbe-n-kjpaw_psl.0.1.UPF
     MD5 check sum: 0234752ac141de4415c5fc33072bef88
     Pseudo is Projector augmented-wave + core cor, Zval =  6.0
     Generated using "atomic" code by A. Dal Corso  v.5.0.99 svn rev. 10869
     Shape of augmentation charge: BESSEL
     Using radial grid of 1095 points,  4 beta functions with: 
                l(1) =   0
                l(2) =   0
                l(3) =   1
                l(4) =   1
     Q(r) pseudized with 0 coefficients 


     atomic species   valence    mass     pseudopotential
        Mo            14.00    95.94000     Mo( 1.00)
        S              6.00    32.06500     S ( 1.00)
        O              6.00    15.99940     O ( 1.00)

     No symmetry found



   Cartesian axes

     site n.     atom                  positions (alat units)
         1           Mo  tau(   1) = (   0.6952221   0.1890506   0.2985846  )
         2           S   tau(   2) = (   0.8646417   0.0856217   0.4689279  )
         3           S   tau(   3) = (   0.8663890   0.0857843   0.1351291  )
         4           Mo  tau(   4) = (   0.8560186   0.4753274   0.2873942  )
         5           S   tau(   5) = (   0.6873294   0.3936244   0.4596353  )
         6           S   tau(   6) = (   0.6929804   0.3713468   0.1185692  )
         7           Mo  tau(   7) = (   0.6862796   0.7633098   0.2825370  )
         8           S   tau(   8) = (   0.8545980   0.6708292   0.4486168  )
         9           S   tau(   9) = (   0.8545123   0.6666874   0.1146125  )
        10           Mo  tau(  10) = (   0.8629403   1.0471007   0.3006803  )
        11           S   tau(  11) = (   0.6868280   0.9456650   0.4634891  )
        12           S   tau(  12) = (   0.6998113   0.9568511   0.1205389  )
        13           Mo  tau(  13) = (   0.3618216   0.1847309   0.2935964  )
        14           S   tau(  14) = (   0.5260962   0.0863870   0.4600448  )
        15           S   tau(  15) = (   0.5348379   0.0894875   0.1297123  )
        16           Mo  tau(  16) = (   0.5265817   0.4772436   0.2784130  )
        17           S   tau(  17) = (   0.3624753   0.3882513   0.4525556  )
        18           S   tau(  18) = (   0.3635411   0.3752055   0.1119148  )
        19           Mo  tau(  19) = (   0.3652268   0.7630864   0.2781795  )
        20           S   tau(  20) = (   0.5269494   0.6690381   0.1096838  )
        21           Mo  tau(  21) = (   0.5300192   1.0470394   0.2900995  )
        22           S   tau(  22) = (   0.3670346   0.9457522   0.4574073  )
        23           S   tau(  23) = (   0.3604225   0.9585725   0.1159032  )
        24           Mo  tau(  24) = (   0.0313099   0.1847895   0.3013130  )
        25           S   tau(  25) = (   0.1956761   0.0838230   0.4650863  )
        26           S   tau(  26) = (   0.1967693   0.0903508   0.1278874  )
        27           Mo  tau(  27) = (   0.1967578   0.4753919   0.2813011  )
        28           S   tau(  28) = (   0.0287851   0.3864324   0.4586755  )
        29           S   tau(  29) = (   0.0244514   0.3729871   0.1239344  )
        30           Mo  tau(  30) = (   0.0286728   0.7631204   0.2856894  )
        31           S   tau(  31) = (   0.2011512   0.6675435   0.4465001  )
        32           S   tau(  32) = (   0.1969214   0.6672839   0.1104564  )
        33           Mo  tau(  33) = (   0.1950294   1.0511147   0.2932237  )
        34           S   tau(  34) = (   0.0312912   0.9612169   0.4667423  )
        35           S   tau(  35) = (   0.0292670   0.9563028   0.1216485  )
        36           O   tau(  36) = (   0.2222222   0.1284079   0.5650415  )

     number of k points=     1  Gaussian smearing, width (Ry)=  0.0100
                       cart. coord. in units 2pi/alat
        k(    1) = (   0.0000000   0.0000000   0.0000000), wk =   2.0000000

     Dense  grid:  2439793 G-vectors     FFT dimensions: ( 150, 180, 384)

     Smooth grid:   842757 G-vectors     FFT dimensions: ( 108, 120, 270)

     Estimated max dynamical RAM per process >     269.22 MB

     Estimated total dynamical RAM >      12.62 GB

     Initial potential from superposition of free atoms

     starting charge     311.9873, renormalised to     312.0000

     negative rho (up, down):  2.751E-04 0.000E+00


---------------------------------------------------------------------------------
Carrying out rVV10 run using the following parameters:
Nqs =      20    Nr_points =    1024   r_max =   100.000
b_value =  6.30000    beta =  0.00901
     q_mesh =  0.00010000  0.00030000  0.00058939  0.00100810
               0.00161396  0.00249058  0.00375900  0.00559430
               0.00824984  0.01209221  0.01765183  0.02569619
               0.03733578  0.05417739  0.07854596  0.11380545
               0.16482331  0.23864234  0.34545298  0.50000000

Gradients computed in Reciprocal space

---------------------------------------------------------------------------------


     Starting wfcs are  216 randomized atomic wfcs
     Checking if some PAW data can be deallocated... 

     total cpu time spent up to now is        6.2 secs

     Self-consistent Calculation

     iteration #  1     ecut=    80.00 Ry     beta= 0.70
     Davidson diagonalization with overlap
     ethr =  1.00E-02,  avg # of iterations =  3.0

     Threshold (ethr) on eigenvalues was too large:
     Diagonalizing with lowered threshold

     Davidson diagonalization with overlap
     ethr =  5.64E-04,  avg # of iterations =  2.0

     negative rho (up, down):  4.298E-08 0.000E+00

     total cpu time spent up to now is       25.3 secs

     total energy              =   -2245.42173506 Ry
     estimated scf accuracy    <       2.00736434 Ry

     iteration #  2     ecut=    80.00 Ry     beta= 0.70
     Davidson diagonalization with overlap
     ethr =  6.43E-04,  avg # of iterations =  4.0

     total cpu time spent up to now is       29.6 secs

     total energy              =   -2245.42103105 Ry
     estimated scf accuracy    <       0.60115603 Ry

     iteration #  3     ecut=    80.00 Ry     beta= 0.70
     Davidson diagonalization with overlap
     ethr =  1.93E-04,  avg # of iterations =  2.0

     total cpu time spent up to now is       33.5 secs

     total energy              =   -2245.44764343 Ry
     estimated scf accuracy    <       0.10636453 Ry

     iteration #  4     ecut=    80.00 Ry     beta= 0.70
     Davidson diagonalization with overlap
     ethr =  3.41E-05,  avg # of iterations = 12.0

     total cpu time spent up to now is       37.9 secs

     total energy              =   -2245.46163518 Ry
     estimated scf accuracy    <       0.02457598 Ry

     iteration #  5     ecut=    80.00 Ry     beta= 0.70
     Davidson diagonalization with overlap
     ethr =  7.88E-06,  avg # of iterations =  2.0

     total cpu time spent up to now is       41.5 secs

     total energy              =   -2245.46117889 Ry
     estimated scf accuracy    <       0.01471180 Ry

     iteration #  6     ecut=    80.00 Ry     beta= 0.70
     Davidson diagonalization with overlap
     ethr =  4.72E-06,  avg # of iterations =  1.0

     total cpu time spent up to now is       44.9 secs

     total energy              =   -2245.45976435 Ry
     estimated scf accuracy    <       0.00938103 Ry

     iteration #  7     ecut=    80.00 Ry     beta= 0.70
     Davidson diagonalization with overlap
     ethr =  3.01E-06,  avg # of iterations =  4.0

     negative rho (up, down):  1.071E-04 0.000E+00

     total cpu time spent up to now is       50.9 secs

     total energy              =   -2245.45914573 Ry
     estimated scf accuracy    <       0.00529302 Ry

     iteration #  8     ecut=    80.00 Ry     beta= 0.70
     Davidson diagonalization with overlap
     ethr =  1.70E-06,  avg # of iterations =  2.0

     negative rho (up, down):  1.986E-02 0.000E+00

     total cpu time spent up to now is       56.8 secs

     total energy              =   -2245.45859682 Ry
     estimated scf accuracy    <       0.00335060 Ry

     iteration #  9     ecut=    80.00 Ry     beta= 0.70
     Davidson diagonalization with overlap
     ethr =  1.07E-06,  avg # of iterations =  2.0

     negative rho (up, down):  3.092E-02 0.000E+00

     total cpu time spent up to now is       62.6 secs

     total energy              =   -2245.45849265 Ry
     estimated scf accuracy    <       0.00178151 Ry

     iteration # 10     ecut=    80.00 Ry     beta= 0.70
     Davidson diagonalization with overlap
     ethr =  5.71E-07,  avg # of iterations =  2.0

     negative rho (up, down):  2.156E-02 0.000E+00

     total cpu time spent up to now is       69.9 secs

     total energy              =   -2245.45849537 Ry
     estimated scf accuracy    <       0.00061794 Ry

     iteration # 11     ecut=    80.00 Ry     beta= 0.70
     Davidson diagonalization with overlap
     ethr =  1.98E-07,  avg # of iterations =  2.0

     negative rho (up, down):  9.501E-03 0.000E+00

     total cpu time spent up to now is       78.0 secs

     total energy              =   -2245.45853961 Ry
     estimated scf accuracy    <       0.00007114 Ry

     iteration # 12     ecut=    80.00 Ry     beta= 0.70
     Davidson diagonalization with overlap
     ethr =  2.28E-08,  avg # of iterations = 16.0

     negative rho (up, down):  3.315E-03 0.000E+00

     total cpu time spent up to now is       88.6 secs

     total energy              =   -2245.45858676 Ry
     estimated scf accuracy    <       0.00001831 Ry

     iteration # 13     ecut=    80.00 Ry     beta= 0.70
     Davidson diagonalization with overlap
     ethr =  5.87E-09,  avg # of iterations =  3.0

     negative rho (up, down):  3.674E-04 0.000E+00

     total cpu time spent up to now is       96.1 secs

     total energy              =   -2245.45858855 Ry
     estimated scf accuracy    <       0.00000382 Ry

     iteration # 14     ecut=    80.00 Ry     beta= 0.70
     Davidson diagonalization with overlap
     ethr =  1.22E-09,  avg # of iterations =  4.0

     negative rho (up, down):  3.302E-04 0.000E+00

     total cpu time spent up to now is      106.9 secs

     total energy              =   -2245.45858878 Ry
     estimated scf accuracy    <       0.00000108 Ry

     iteration # 15     ecut=    80.00 Ry     beta= 0.70
     Davidson diagonalization with overlap
     ethr =  3.45E-10,  avg # of iterations =  4.0

     negative rho (up, down):  2.908E-04 0.000E+00

     total cpu time spent up to now is      110.3 secs

     End of self-consistent calculation

          k = 0.0000 0.0000 0.0000 (105382 PWs)   bands (ev):

   -62.8485 -62.8412 -62.8346 -62.8216 -62.8143 -62.8002 -62.7987 -62.7904
   -62.7800 -62.7471 -62.6408 -62.4916 -37.2060 -37.1488 -37.1291 -37.1059
   -37.0751 -37.0681 -37.0535 -37.0439 -37.0375 -37.0335 -37.0234 -37.0092
   -37.0005 -36.9971 -36.9923 -36.9845 -36.9739 -36.9634 -36.9507 -36.9438
   -36.9422 -36.9314 -36.9116 -36.9074 -36.8912 -36.8638 -36.8518 -36.8495
   -36.8206 -36.7997 -36.7726 -36.7606 -36.7272 -36.7120 -36.6465 -36.5594
   -29.7273 -15.9010 -15.1637 -15.0633 -14.9064 -14.8521 -14.7555 -14.4882
   -14.4376 -14.3974 -14.3529 -14.3416 -14.3174 -14.2559 -14.1942 -14.1161
   -14.0825 -14.0676 -13.9852 -13.9415 -13.8160 -13.8027 -13.7579 -12.9364
   -11.7967 -11.7307  -8.8729  -7.5639  -7.4025  -7.2411  -7.2260  -7.1574
    -7.1490  -7.0517  -6.9988  -6.7768  -6.7622  -6.6926  -6.6324  -6.5711
    -6.4570  -6.4242  -6.3251  -6.3032  -6.1093  -6.0486  -5.9139  -5.8779
    -5.8010  -5.7790  -5.7229  -5.6762  -5.6509  -5.6177  -5.5881  -5.5741
    -5.5036  -5.4764  -5.4152  -5.3724  -5.2606  -5.1859  -5.0430  -5.0062
    -4.9636  -4.9381  -4.8856  -4.7785  -4.6885  -4.6162  -4.5107  -4.3974
    -4.2661  -4.2290  -4.1494  -4.1279  -4.0344  -3.8870  -3.8709  -3.7823
    -3.7479  -3.6736  -3.6399  -3.5897  -3.5356  -3.4819  -3.4398  -3.4263
    -3.3750  -3.3530  -3.2583  -3.1825  -3.0781  -3.0007  -2.9124  -2.7715
    -2.7645  -2.7223  -2.6888  -2.6782  -2.6051  -2.5634  -2.4914  -2.3033
    -2.1752  -2.0016  -1.8946  -1.8067  -0.7871  -0.7312  -0.2311  -0.1371
    -0.0851  -0.0582   0.0256   0.1008   0.1690   0.2668   0.3070   0.3275
     0.4008   0.4654   0.5015   0.5635   0.5999   0.6298   0.6422   0.6904
     0.7435   0.7768   0.8036   0.8162   0.8791   0.9140   0.9525   0.9954
     1.0233   1.2411   1.3744

     the Fermi energy is    -1.2972 ev

!    total energy              =   -2245.45858948 Ry
     estimated scf accuracy    <       0.00000031 Ry
     smearing contrib. (-TS)   =      -0.00000001 Ry
     internal energy E=F+TS    =   -2245.45858947 Ry

     The total energy is F=E-TS. E is the sum of the following terms:
     one-electron contribution =  -18477.20527294 Ry
     hartree contribution      =    9227.03544290 Ry
     xc contribution           =    -393.00105770 Ry
     ewald contribution        =    7407.53412541 Ry
     one-center paw contrib.   =      -9.82182714 Ry

     convergence has been achieved in  15 iterations

     negative rho (up, down):  2.908E-04 0.000E+00

     Forces acting on atoms (cartesian axes, Ry/au):

     atom    1 type  1   force =     0.01462902   -0.02572435    0.00071264
     atom    2 type  2   force =    -0.01319814    0.01414515    0.00306491
     atom    3 type  2   force =    -0.01563950    0.00486338   -0.00357526
     atom    4 type  1   force =     0.00439744    0.00204972   -0.00231187
     atom    5 type  2   force =    -0.00112126   -0.00546131   -0.00715078
     atom    6 type  2   force =     0.00162319    0.01079016    0.00094943
     atom    7 type  1   force =     0.00450217   -0.01453646   -0.00840632
     atom    8 type  2   force =     0.00079545   -0.00509252    0.01568738
     atom    9 type  2   force =     0.01203482    0.00715273    0.01370241
     atom   10 type  1   force =    -0.01480966    0.01004392   -0.02467628
     atom   11 type  2   force =     0.00454664   -0.00216076   -0.00814026
     atom   12 type  2   force =    -0.00070446    0.00092908    0.00671893
     atom   13 type  1   force =     0.01442041   -0.00026886   -0.05929942
     atom   14 type  2   force =     0.00510297   -0.00159891    0.01543247
     atom   15 type  2   force =    -0.00985953    0.00151612   -0.00810460
     atom   16 type  1   force =    -0.00171398    0.01074491    0.00211607
     atom   17 type  2   force =     0.00659636    0.00207043    0.00517399
     atom   18 type  2   force =    -0.00406443   -0.00207792    0.01267456
     atom   19 type  1   force =     0.00527526   -0.00942515   -0.00507227
     atom   20 type  2   force =     0.00227489   -0.00350080    0.00176514
     atom   21 type  1   force =    -0.00263864    0.00835415   -0.00294406
     atom   22 type  2   force =    -0.00008358   -0.00510260   -0.00175289
     atom   23 type  2   force =    -0.00040068    0.00128262    0.00697913
     atom   24 type  1   force =    -0.00879759   -0.00486227   -0.01921262
     atom   25 type  2   force =    -0.78750399   -1.27753797   -3.21929652
     atom   26 type  2   force =    -0.01143811   -0.00056294   -0.00222302
     atom   27 type  1   force =     0.00109818    0.00010254    0.00741254
     atom   28 type  2   force =     0.00218523   -0.00146180   -0.00097062
     atom   29 type  2   force =     0.00451184    0.00237737   -0.00433776
     atom   30 type  1   force =    -0.00343500    0.01200461   -0.00313898
     atom   31 type  2   force =     0.00060001   -0.00038857    0.01619756
     atom   32 type  2   force =    -0.00846112    0.00734673    0.00744049
     atom   33 type  1   force =     0.02090962   -0.01168743    0.02987234
     atom   34 type  2   force =    -0.00190951   -0.04671257   -0.00910289
     atom   35 type  2   force =    -0.01102266    0.00585712    0.01133424
     atom   36 type  3   force =     0.79129833    1.31653244    3.23248218
     The non-local contrib.  to forces
     atom    1 type  1   force =    -0.00154819    0.03864838   -0.00323901
     atom    2 type  2   force =     0.00855426    0.01038841   -0.26707324
     atom    3 type  2   force =    -0.02038440   -0.00736899    0.26591111
     atom    4 type  1   force =    -0.00176401    0.00329990    0.00714124
     atom    5 type  2   force =     0.00581488   -0.03425431   -0.25466905
     atom    6 type  2   force =    -0.00098874    0.00847495    0.26450204
     atom    7 type  1   force =    -0.01766302   -0.00008316   -0.02162350
     atom    8 type  2   force =     0.00557348   -0.00211357   -0.25699286
     atom    9 type  2   force =     0.00639854   -0.00754500    0.27744121
     atom   10 type  1   force =     0.00569192    0.00236456   -0.00212920
     atom   11 type  2   force =     0.01453470    0.00587529   -0.26031328
     atom   12 type  2   force =    -0.01207383   -0.01619809    0.26444319
     atom   13 type  1   force =    -0.04326495   -0.00699660    0.03275853
     atom   14 type  2   force =     0.01033288   -0.00472382   -0.25799781
     atom   15 type  2   force =    -0.00893216   -0.01150000    0.25855647
     atom   16 type  1   force =    -0.00123432    0.02130613   -0.03377720
     atom   17 type  2   force =     0.00389972   -0.01551017   -0.24636247
     atom   18 type  2   force =    -0.00534502    0.00385796    0.27105745
     atom   19 type  1   force =     0.01757742   -0.00825252   -0.02015153
     atom   20 type  2   force =     0.00001864   -0.02204488    0.26716388
     atom   21 type  1   force =     0.00093116    0.03086930    0.00488609
     atom   22 type  2   force =    -0.01756971    0.01106269   -0.25606896
     atom   23 type  2   force =     0.00422842   -0.01704595    0.26966600
     atom   24 type  1   force =     0.03800303   -0.01713934    0.02011291
     atom   25 type  2   force =    -0.48206861   -0.83672882   -1.88078080
     atom   26 type  2   force =    -0.00529798   -0.01505947    0.26566500
     atom   27 type  1   force =    -0.00255988    0.00363114    0.00916420
     atom   28 type  2   force =    -0.00381590   -0.02759351   -0.26967030
     atom   29 type  2   force =     0.00683156    0.00823137    0.26109070
     atom   30 type  1   force =    -0.00322393    0.00962337    0.00565079
     atom   31 type  2   force =    -0.00667769    0.00351155   -0.25322118
     atom   32 type  2   force =    -0.00302256   -0.00953018    0.27604443
     atom   33 type  1   force =    -0.00523576    0.03241867    0.00950736
     atom   34 type  2   force =     0.01235011   -0.02789011   -0.26952514
     atom   35 type  2   force =    -0.00332078   -0.01436194    0.27009129
     atom   36 type  3   force =    -0.56354228   -0.98126188   -1.49952329
     The ionic contribution  to forces
     atom    1 type  1   force =     0.61205957    0.46000377    4.16020896
     atom    2 type  2   force =    -1.75126341    0.22042704   38.78897706
     atom    3 type  2   force =    -0.35689905   -0.03131330  -36.85500388
     atom    4 type  1   force =    -0.31904713    1.26009748   -0.52866407
     atom    5 type  2   force =    -0.84841934    1.89128378   38.48870577
     atom    6 type  2   force =     0.37205783   -0.35964525  -38.61491973
     atom    7 type  1   force =    -2.55211387   -2.93819338    1.65411011
     atom    8 type  2   force =    -1.11290519    0.10433349   37.19230318
     atom    9 type  2   force =     0.29391841   -0.00378280  -38.48166179
     atom   10 type  1   force =    -1.83055710   -1.14390843    4.18050774
     atom   11 type  2   force =    -0.47785596   -1.96334182   38.92508975
     atom   12 type  2   force =     0.45845893    0.55537620  -38.39278014
     atom   13 type  1   force =     2.64373916    1.91085373   -2.15835323
     atom   14 type  2   force =     1.69981581   -0.27576086   37.75938392
     atom   15 type  2   force =     0.38606304   -0.11101996  -37.63019593
     atom   16 type  1   force =     0.50012273    4.73325167   -0.84662189
     atom   17 type  2   force =     1.69462857    3.19630018   37.08003798
     atom   18 type  2   force =    -0.03310832   -0.38841259  -39.38792570
     atom   19 type  1   force =     2.95878156   -2.75248397   -0.50772860
     atom   20 type  2   force =     0.28936667   -0.16419830  -38.97111509
     atom   21 type  1   force =     0.94443472   -0.91346430   -0.53887575
     atom   22 type  2   force =     0.93320983   -2.83660928   37.94707388
     atom   23 type  2   force =     0.01067035    0.42256961  -39.00117391
     atom   24 type  1   force =    -2.92092170    1.90085442    1.73892877
     atom   25 type  2   force =    -3.50551677   -6.72958079   23.46284592
     atom   26 type  2   force =    -0.33919505   -0.02042888  -38.61671959
     atom   27 type  1   force =    -0.08874972    1.90920441   -4.21192811
     atom   28 type  2   force =    -0.89194180    2.34657401   37.54470784
     atom   29 type  2   force =    -0.42947333   -0.18029536  -38.05471024
     atom   30 type  1   force =    -0.63151343   -1.18801713   -1.13576418
     atom   31 type  2   force =     1.20014565    0.12025427   37.05461628
     atom   32 type  2   force =    -0.49144560    0.04307054  -39.18848842
     atom   33 type  1   force =     0.53126659   -3.18670985   -1.26404477
     atom   34 type  2   force =    -0.35241381   -2.48671020   38.92505000
     atom   35 type  2   force =    -0.41974470    0.25079794  -38.49291677
     atom   36 type  3   force =     3.82434586    6.34862389   57.97704466
     The local contribution  to forces
     atom    1 type  1   force =    -0.59594694   -0.52428070   -4.15555930
     atom    2 type  2   force =     1.73049752   -0.21612722  -38.53896111
     atom    3 type  2   force =     0.36066924    0.04324916   36.60647827
     atom    4 type  1   force =     0.32526777   -1.26154980    0.51984829
     atom    5 type  2   force =     0.84205388   -1.86447593  -38.26136994
     atom    6 type  2   force =    -0.36971822    0.36293170   38.37257623
     atom    7 type  1   force =     2.57438550    2.92380453   -1.64039467
     atom    8 type  2   force =     1.10835453   -0.10777698  -36.93993350
     atom    9 type  2   force =    -0.28818980    0.01803634   38.23920156
     atom   10 type  1   force =     1.81010917    1.15168645   -4.20245010
     atom   11 type  2   force =     0.46853654    1.95592111  -38.69335257
     atom   12 type  2   force =    -0.44819953   -0.53960670   38.15625330
     atom   13 type  1   force =    -2.58606077   -1.90400553    2.06710671
     atom   14 type  2   force =    -1.70495354    0.27910402  -37.50588736
     atom   15 type  2   force =    -0.38742774    0.12337756   37.38422908
     atom   16 type  1   force =    -0.50066607   -4.74418705    0.88310537
     atom   17 type  2   force =    -1.69196668   -3.17990343  -36.84819347
     atom   18 type  2   force =     0.03426312    0.38342103   39.15068825
     atom   19 type  1   force =    -2.97122485    2.75141866    0.52334523
     atom   20 type  2   force =    -0.28721770    0.18185631   38.72714177
     atom   21 type  1   force =    -0.94805249    0.89113132    0.53169794
     atom   22 type  2   force =    -0.91655570    2.82156852  -37.71274733
     atom   23 type  2   force =    -0.01485891   -0.40559730   38.75968145
     atom   24 type  1   force =     2.87421902   -1.88849916   -1.77742412
     atom   25 type  2   force =     3.16901352    6.23578747  -24.92646970
     atom   26 type  2   force =     0.33309065    0.03416808   38.37016974
     atom   27 type  1   force =     0.09241885   -1.91297703    4.21087403
     atom   28 type  2   force =     0.89784154   -2.32269892  -37.29632199
     atom   29 type  2   force =     0.42774553    0.17540958   37.80999059
     atom   30 type  1   force =     0.63133315    1.19044314    1.12754004
     atom   31 type  2   force =    -1.19331259   -0.12410916  -36.80544229
     atom   32 type  2   force =     0.48611355   -0.02675126   38.94127515
     atom   33 type  1   force =    -0.50511369    3.14275143    1.28513462
     atom   34 type  2   force =     0.33857712    2.46747148  -38.68516822
     atom   35 type  2   force =     0.41204152   -0.23169795   38.25548531
     atom   36 type  3   force =    -2.46970774   -4.05152341  -53.23864980
     The core correction contribution to forces
     atom    1 type  1   force =     0.00000000    0.00000000    0.00000000
     atom    2 type  2   force =    -0.00091499   -0.00046937    0.02039219
     atom    3 type  2   force =     0.00099370    0.00032763   -0.02068274
     atom    4 type  1   force =     0.00000000    0.00000000    0.00000000
     atom    5 type  2   force =    -0.00059705    0.00189891    0.02044932
     atom    6 type  2   force =     0.00024318   -0.00098804   -0.02095283
     atom    7 type  1   force =     0.00000000    0.00000000    0.00000000
     atom    8 type  2   force =    -0.00020512    0.00042296    0.02053363
     atom    9 type  2   force =    -0.00009114    0.00043061   -0.02105012
     atom   10 type  1   force =     0.00000000    0.00000000    0.00000000
     atom   11 type  2   force =    -0.00067378   -0.00054101    0.02065042
     atom   12 type  2   force =     0.00111858    0.00137238   -0.02093748
     atom   13 type  1   force =     0.00000000    0.00000000    0.00000000
     atom   14 type  2   force =    -0.00019645   -0.00013820    0.02024407
     atom   15 type  2   force =     0.00039641    0.00071388   -0.02042804
     atom   16 type  1   force =     0.00000000    0.00000000    0.00000000
     atom   17 type  2   force =    -0.00000471    0.00103575    0.02000493
     atom   18 type  2   force =     0.00013652   -0.00099392   -0.02086567
     atom   19 type  1   force =     0.00000000    0.00000000    0.00000000
     atom   20 type  2   force =     0.00012444    0.00085455   -0.02125563
     atom   21 type  1   force =     0.00000000    0.00000000    0.00000000
     atom   22 type  2   force =     0.00081228   -0.00100919    0.02026589
     atom   23 type  2   force =    -0.00043516    0.00138813   -0.02095973
     atom   24 type  1   force =     0.00000000    0.00000000    0.00000000
     atom   25 type  2   force =     0.03110770    0.05312494    0.12554507
     atom   26 type  2   force =    -0.00000512    0.00082605   -0.02105633
     atom   27 type  1   force =     0.00000000    0.00000000    0.00000000
     atom   28 type  2   force =     0.00016266    0.00214251    0.02060962
     atom   29 type  2   force =    -0.00057533   -0.00099535   -0.02042378
     atom   30 type  1   force =     0.00000000    0.00000000    0.00000000
     atom   31 type  2   force =     0.00042827   -0.00011509    0.02050872
     atom   32 type  2   force =    -0.00012112    0.00053247   -0.02115857
     atom   33 type  1   force =     0.00000000    0.00000000    0.00000000
     atom   34 type  2   force =    -0.00039625    0.00051632    0.02075938
     atom   35 type  2   force =    -0.00000843    0.00113103   -0.02105513
     atom   36 type  3   force =     0.00020807    0.00074669   -0.00621384
     The Hubbard contrib.    to forces
     atom    1 type  1   force =     0.00000000    0.00000000    0.00000000
     atom    2 type  2   force =     0.00000000    0.00000000    0.00000000
     atom    3 type  2   force =     0.00000000    0.00000000    0.00000000
     atom    4 type  1   force =     0.00000000    0.00000000    0.00000000
     atom    5 type  2   force =     0.00000000    0.00000000    0.00000000
     atom    6 type  2   force =     0.00000000    0.00000000    0.00000000
     atom    7 type  1   force =     0.00000000    0.00000000    0.00000000
     atom    8 type  2   force =     0.00000000    0.00000000    0.00000000
     atom    9 type  2   force =     0.00000000    0.00000000    0.00000000
     atom   10 type  1   force =     0.00000000    0.00000000    0.00000000
     atom   11 type  2   force =     0.00000000    0.00000000    0.00000000
     atom   12 type  2   force =     0.00000000    0.00000000    0.00000000
     atom   13 type  1   force =     0.00000000    0.00000000    0.00000000
     atom   14 type  2   force =     0.00000000    0.00000000    0.00000000
     atom   15 type  2   force =     0.00000000    0.00000000    0.00000000
     atom   16 type  1   force =     0.00000000    0.00000000    0.00000000
     atom   17 type  2   force =     0.00000000    0.00000000    0.00000000
     atom   18 type  2   force =     0.00000000    0.00000000    0.00000000
     atom   19 type  1   force =     0.00000000    0.00000000    0.00000000
     atom   20 type  2   force =     0.00000000    0.00000000    0.00000000
     atom   21 type  1   force =     0.00000000    0.00000000    0.00000000
     atom   22 type  2   force =     0.00000000    0.00000000    0.00000000
     atom   23 type  2   force =     0.00000000    0.00000000    0.00000000
     atom   24 type  1   force =     0.00000000    0.00000000    0.00000000
     atom   25 type  2   force =     0.00000000    0.00000000    0.00000000
     atom   26 type  2   force =     0.00000000    0.00000000    0.00000000
     atom   27 type  1   force =     0.00000000    0.00000000    0.00000000
     atom   28 type  2   force =     0.00000000    0.00000000    0.00000000
     atom   29 type  2   force =     0.00000000    0.00000000    0.00000000
     atom   30 type  1   force =     0.00000000    0.00000000    0.00000000
     atom   31 type  2   force =     0.00000000    0.00000000    0.00000000
     atom   32 type  2   force =     0.00000000    0.00000000    0.00000000
     atom   33 type  1   force =     0.00000000    0.00000000    0.00000000
     atom   34 type  2   force =     0.00000000    0.00000000    0.00000000
     atom   35 type  2   force =     0.00000000    0.00000000    0.00000000
     atom   36 type  3   force =     0.00000000    0.00000000    0.00000000
     The SCF correction term to forces
     atom    1 type  1   force =     0.00006522   -0.00009253   -0.00067117
     atom    2 type  2   force =    -0.00007086   -0.00007045   -0.00024315
     atom    3 type  2   force =    -0.00001833   -0.00002786   -0.00025118
     atom    4 type  1   force =    -0.00005854    0.00020540   -0.00061050
     atom    5 type  2   force =     0.00002703    0.00008950   -0.00024004
     atom    6 type  2   force =     0.00002980    0.00002007   -0.00022944
     atom    7 type  1   force =    -0.00010579   -0.00006119   -0.00047142
     atom    8 type  2   force =    -0.00002160    0.00004485   -0.00019622
     atom    9 type  2   force =    -0.00000055    0.00001684   -0.00020160
     atom   10 type  1   force =    -0.00005301   -0.00009539   -0.00057786
     atom   11 type  2   force =     0.00000578   -0.00007106   -0.00018773
     atom   12 type  2   force =    -0.00000796   -0.00001145   -0.00023310
     atom   13 type  1   force =     0.00000763   -0.00011719   -0.00078458
     atom   14 type  2   force =     0.00010493   -0.00007678   -0.00028350
     atom   15 type  2   force =     0.00004156   -0.00005209   -0.00023933
     atom   16 type  1   force =     0.00006433    0.00037742   -0.00056337
     atom   17 type  2   force =     0.00004011    0.00015138   -0.00028614
     atom   18 type  2   force =    -0.00001007    0.00005287   -0.00025293
     atom   19 type  1   force =     0.00014178   -0.00010406   -0.00051052
     atom   20 type  2   force =    -0.00001650    0.00003479   -0.00014294
     atom   21 type  1   force =     0.00004862   -0.00017890   -0.00062550
     atom   22 type  2   force =     0.00002038   -0.00011207   -0.00024953
     atom   23 type  2   force =    -0.00000471   -0.00002861   -0.00020783
     atom   24 type  1   force =    -0.00009728   -0.00007493   -0.00080333
     atom   25 type  2   force =    -0.00003919   -0.00013750   -0.00041017
     atom   26 type  2   force =    -0.00002995   -0.00006546   -0.00025499
     atom   27 type  1   force =    -0.00001041    0.00024728   -0.00067073
     atom   28 type  2   force =    -0.00006062    0.00011738   -0.00026894
     atom   29 type  2   force =    -0.00001594    0.00003040   -0.00025818
     atom   30 type  1   force =    -0.00003015   -0.00004152   -0.00053879
     atom   31 type  2   force =     0.00001703    0.00007313   -0.00023712
     atom   32 type  2   force =     0.00001526    0.00002841   -0.00020525
     atom   33 type  1   force =    -0.00000685   -0.00014442   -0.00069803
     atom   34 type  2   force =    -0.00002604   -0.00009679   -0.00019207
     atom   35 type  2   force =     0.00001038   -0.00000869   -0.00024361
     atom   36 type  3   force =    -0.00000493   -0.00004959   -0.00014870

     Total force =     5.043659     Total SCF correction =     0.002608

     BFGS Geometry Optimization
     Energy error            =      0.0E+00 Ry
     Gradient error          =      3.2E+00 Ry/Bohr

     number of scf cycles    =   1
     number of bfgs steps    =   0

     energy             new  =   -2245.4585894767 Ry

     new trust radius        =       0.5000000000 bohr
     new conv_thr            =       0.0000010000 Ry


ATOMIC_POSITIONS (angstrom)
Mo            6.5756299413        1.7859044120        2.8236957175
S             8.1757335916        0.8107497850        4.4347649431
S             8.1920768477        0.8116012975        1.2776191051
Mo            8.0954876705        4.4952084815        2.7176474752
S             6.4998263614        3.7220077295        4.3461319866
S             6.5534698021        3.5125352790        1.1213504200
Mo            6.4903145446        7.2173625941        2.6712630000
S             8.0817865362        6.3434944995        4.2436213417
S             8.0818073893        6.3052311225        1.0848760270
Mo            8.1595241603        9.9029229666        2.8416374277
S             6.4955037316        8.9427670679        4.3825037186
S             6.6178951185        9.0487799001        1.1404040374
Mo            3.4227257735        1.7469359739        2.7720871179
S             4.9755427568        0.8168230008        4.3516740253
S             5.0571048327        0.8463741963        1.2260592827
Mo            4.9796299656        4.5139723810        2.6330409915
S             3.4283293351        3.6717527542        4.2800920962
S             3.4376200953        3.5480750760        1.0592887203
Mo            3.4542517436        7.2156277309        2.6303018659
S             4.9834023774        6.3266734697        1.0373842292
Mo            5.0120688434        9.9022176790        2.7431833042
S             3.4709519381        8.9433740307        4.3254617200
S             3.4083995433        9.0650848089        1.0965842707
Mo            0.2954400759        1.7471500603        2.8480243078
S             1.7922415324        0.6982447969        4.1602047603
S             1.8599544073        0.8543842995        1.2092365052
Mo            1.8607724985        4.4956743418        2.6607453939
S             0.2723754046        3.6542907545        4.3375123413
S             0.2315647709        3.5274249869        1.1716971907
Mo            0.2708981993        7.2175336025        2.7014643610
S             1.9022826068        6.3127701080        4.2236416176
S             1.8616126782        6.3108869608        1.0451093633
Mo            1.8458925248        9.9392750940        2.7751547328
S             0.2957717277        9.0865443367        4.4131964829
S             0.2759564872        9.0439587354        1.1512387271
O             2.1600034210        1.3116543188        5.5824412640



     Writing config-only to output data dir ./MoS2-V-O.save/
     NEW-OLD atomic charge density approx. for the potential

     negative rho (up, down):  2.217E-04 0.000E+00

     total cpu time spent up to now is      117.2 secs

     Self-consistent Calculation

     iteration #  1     ecut=    80.00 Ry     beta= 0.70
     Davidson diagonalization with overlap
     ethr =  1.00E-06,  avg # of iterations = 17.0

     negative rho (up, down):  8.581E-03 0.000E+00

     total cpu time spent up to now is      133.2 secs

     total energy              =   -2246.33061531 Ry
     estimated scf accuracy    <       0.31434362 Ry

     iteration #  2     ecut=    80.00 Ry     beta= 0.70
     Davidson diagonalization with overlap
     ethr =  1.01E-04,  avg # of iterations =  3.0

     negative rho (up, down):  1.953E-02 0.000E+00

     total cpu time spent up to now is      142.2 secs

     total energy              =   -2246.32606343 Ry
     estimated scf accuracy    <       0.09636351 Ry

     iteration #  3     ecut=    80.00 Ry     beta= 0.70
     Davidson diagonalization with overlap
     ethr =  3.09E-05,  avg # of iterations =  3.0

     negative rho (up, down):  2.585E-02 0.000E+00

     total cpu time spent up to now is      154.3 secs

     total energy              =   -2246.33245601 Ry
     estimated scf accuracy    <       0.01750055 Ry

     iteration #  4     ecut=    80.00 Ry     beta= 0.70
     Davidson diagonalization with overlap
     ethr =  5.61E-06,  avg # of iterations =  3.0

     negative rho (up, down):  2.619E-02 0.000E+00

     total cpu time spent up to now is      163.2 secs

     total energy              =   -2246.33222579 Ry
     estimated scf accuracy    <       0.00649798 Ry

     iteration #  5     ecut=    80.00 Ry     beta= 0.70
     Davidson diagonalization with overlap
     ethr =  2.08E-06,  avg # of iterations =  8.0

     negative rho (up, down):  2.412E-02 0.000E+00

     total cpu time spent up to now is      173.4 secs

     total energy              =   -2246.33309682 Ry
     estimated scf accuracy    <       0.00181115 Ry

     iteration #  6     ecut=    80.00 Ry     beta= 0.70
     Davidson diagonalization with overlap
     ethr =  5.80E-07,  avg # of iterations =  3.0

     negative rho (up, down):  2.052E-02 0.000E+00

     total cpu time spent up to now is      184.0 secs

     total energy              =   -2246.33310092 Ry
     estimated scf accuracy    <       0.00036692 Ry

     iteration #  7     ecut=    80.00 Ry     beta= 0.70
     Davidson diagonalization with overlap
     ethr =  1.18E-07,  avg # of iterations =  5.0

     negative rho (up, down):  1.547E-02 0.000E+00

     total cpu time spent up to now is      193.9 secs

     total energy              =   -2246.33302425 Ry
     estimated scf accuracy    <       0.00019772 Ry

     iteration #  8     ecut=    80.00 Ry     beta= 0.70
     Davidson diagonalization with overlap
     ethr =  6.34E-08,  avg # of iterations =  2.0

     negative rho (up, down):  9.906E-03 0.000E+00

     total cpu time spent up to now is      202.9 secs

     total energy              =   -2246.33293620 Ry
     estimated scf accuracy    <       0.00007090 Ry

     iteration #  9     ecut=    80.00 Ry     beta= 0.70
     Davidson diagonalization with overlap
     ethr =  2.27E-08,  avg # of iterations =  3.0

     negative rho (up, down):  5.907E-03 0.000E+00

     total cpu time spent up to now is      211.1 secs

     total energy              =   -2246.33288767 Ry
     estimated scf accuracy    <       0.00003098 Ry

     iteration # 10     ecut=    80.00 Ry     beta= 0.70
     Davidson diagonalization with overlap
     ethr =  9.93E-09,  avg # of iterations =  2.0

     negative rho (up, down):  3.241E-03 0.000E+00

     total cpu time spent up to now is      217.9 secs

     total energy              =   -2246.33286207 Ry
     estimated scf accuracy    <       0.00001187 Ry

     iteration # 11     ecut=    80.00 Ry     beta= 0.70
     Davidson diagonalization with overlap
     ethr =  3.80E-09,  avg # of iterations =  4.0

     negative rho (up, down):  1.299E-03 0.000E+00

     total cpu time spent up to now is      226.5 secs

     total energy              =   -2246.33284611 Ry
     estimated scf accuracy    <       0.00000571 Ry

     iteration # 12     ecut=    80.00 Ry     beta= 0.70
     Davidson diagonalization with overlap
     ethr =  1.83E-09,  avg # of iterations =  2.0

     negative rho (up, down):  3.944E-04 0.000E+00

     total cpu time spent up to now is      235.5 secs

     total energy              =   -2246.33284143 Ry
     estimated scf accuracy    <       0.00000148 Ry

     iteration # 13     ecut=    80.00 Ry     beta= 0.70
     Davidson diagonalization with overlap
     ethr =  4.74E-10,  avg # of iterations =  4.0

     negative rho (up, down):  1.866E-04 0.000E+00

     total cpu time spent up to now is      238.9 secs

     End of self-consistent calculation

          k = 0.0000 0.0000 0.0000 (105382 PWs)   bands (ev):

   -63.0424 -63.0286 -63.0224 -63.0138 -63.0073 -62.9972 -62.9862 -62.9841
   -62.9721 -62.9270 -62.9245 -62.8203 -37.4295 -37.3696 -37.3386 -37.3214
   -37.2996 -37.2740 -37.2688 -37.2412 -37.2396 -37.2281 -37.2187 -37.2069
   -37.2021 -37.1945 -37.1822 -37.1725 -37.1638 -37.1605 -37.1504 -37.1416
   -37.1349 -37.1304 -37.1244 -37.1047 -37.0925 -37.0884 -37.0733 -37.0683
   -37.0512 -37.0273 -37.0229 -36.9932 -36.9892 -36.9222 -36.9128 -36.8934
   -21.1763 -16.1169 -15.3537 -15.2807 -15.1359 -15.0688 -14.9243 -14.6963
   -14.6382 -14.5879 -14.5476 -14.5303 -14.4861 -14.4537 -14.4028 -14.2901
   -14.2723 -14.2387 -14.1454 -14.1355 -14.0663 -14.0232 -13.9795 -13.9433
    -8.1431  -7.9530  -7.7761  -7.6308  -7.5061  -7.4300  -7.3869  -7.3169
    -7.2089  -7.0608  -6.9784  -6.9509  -6.9242  -6.8082  -6.7181  -6.6817
    -6.6440  -6.5934  -6.4762  -6.4228  -6.1781  -6.1325  -6.0552  -6.0464
    -5.9796  -5.9573  -5.8657  -5.8518  -5.8201  -5.7726  -5.7426  -5.7080
    -5.6646  -5.6424  -5.5444  -5.4764  -5.3280  -5.2631  -5.2068  -5.1776
    -5.1205  -5.1139  -4.9792  -4.8350  -4.8092  -4.7017  -4.6086  -4.4695
    -4.4234  -4.3197  -4.2830  -4.2352  -4.0908  -3.9885  -3.9722  -3.9492
    -3.9103  -3.8554  -3.7776  -3.7482  -3.7323  -3.6473  -3.6375  -3.6146
    -3.6017  -3.5480  -3.3874  -3.3235  -3.2084  -3.1046  -3.0874  -2.9967
    -2.9764  -2.9429  -2.9307  -2.8584  -2.8207  -2.7580  -2.5972  -2.3962
    -2.2623  -2.1966  -2.1380  -1.9240  -0.9634  -0.9154  -0.4306  -0.3690
    -0.2816  -0.2403  -0.1729  -0.0925  -0.0259   0.0508   0.0755   0.1418
     0.1799   0.2676   0.3010   0.3401   0.3789   0.4080   0.4212   0.5121
     0.5565   0.5877   0.6087   0.6412   0.6766   0.7112   0.7653   0.8054
     0.8584   1.0363   1.1920

     the Fermi energy is    -1.4443 ev

!    total energy              =   -2246.33284220 Ry
     estimated scf accuracy    <       0.00000043 Ry
     smearing contrib. (-TS)   =      -0.00000005 Ry
     internal energy E=F+TS    =   -2246.33284215 Ry

     The total energy is F=E-TS. E is the sum of the following terms:
     one-electron contribution =  -18451.66715820 Ry
     hartree contribution      =    9213.05048119 Ry
     xc contribution           =    -392.17784155 Ry
     ewald contribution        =    7394.32358056 Ry
     one-center paw contrib.   =      -9.86190415 Ry

     convergence has been achieved in  13 iterations

     negative rho (up, down):  1.866E-04 0.000E+00

     Forces acting on atoms (cartesian axes, Ry/au):

     atom    1 type  1   force =     0.01313583   -0.02427061   -0.00017937
     atom    2 type  2   force =    -0.01357880    0.01485665    0.00504672
     atom    3 type  2   force =    -0.01372434    0.00672531   -0.00300494
     atom    4 type  1   force =     0.00640172    0.00456609   -0.00382356
     atom    5 type  2   force =    -0.00152850   -0.00654548   -0.00583503
     atom    6 type  2   force =     0.00191623    0.00951232    0.00028489
     atom    7 type  1   force =     0.00378593   -0.01307928   -0.00767599
     atom    8 type  2   force =     0.00109526   -0.00533421    0.01609680
     atom    9 type  2   force =     0.01206633    0.00662175    0.01288349
     atom   10 type  1   force =    -0.01420647    0.01038409   -0.02521485
     atom   11 type  2   force =     0.00437190   -0.00159309   -0.00729223
     atom   12 type  2   force =    -0.00081895    0.00017892    0.00563043
     atom   13 type  1   force =     0.02683931    0.00453020   -0.06005215
     atom   14 type  2   force =     0.00335256    0.00058224    0.01557249
     atom   15 type  2   force =    -0.01154729    0.00399329   -0.00792467
     atom   16 type  1   force =    -0.00286074    0.01234730    0.00221744
     atom   17 type  2   force =     0.00630812   -0.00179367    0.00430872
     atom   18 type  2   force =    -0.00278286   -0.00335887    0.01290081
     atom   19 type  1   force =     0.00635961   -0.00869555   -0.00417202
     atom   20 type  2   force =     0.00218403   -0.00363438    0.00044519
     atom   21 type  1   force =    -0.00225203    0.00981374   -0.00267354
     atom   22 type  2   force =     0.00071926   -0.00517059   -0.00029604
     atom   23 type  2   force =     0.00312823    0.00009934    0.00410969
     atom   24 type  1   force =    -0.05700900    0.01645621   -0.06499958
     atom   25 type  2   force =     0.08853041    0.17886629    0.20506547
     atom   26 type  2   force =    -0.01037311    0.00020557   -0.01892507
     atom   27 type  1   force =     0.00224040   -0.00080789    0.00834585
     atom   28 type  2   force =     0.00260647   -0.00365891   -0.00092027
     atom   29 type  2   force =     0.00347944    0.00365285   -0.00423084
     atom   30 type  1   force =    -0.00495527    0.01251864   -0.00348742
     atom   31 type  2   force =     0.00105184   -0.00051622    0.01708054
     atom   32 type  2   force =    -0.00841542    0.00770906    0.00712343
     atom   33 type  1   force =     0.01529901   -0.09753104   -0.05529034
     atom   34 type  2   force =    -0.00390263   -0.04793318   -0.00595620
     atom   35 type  2   force =    -0.01149800    0.00434029    0.01023003
     atom   36 type  3   force =    -0.04541849   -0.08403719   -0.04538788
     The non-local contrib.  to forces
     atom    1 type  1   force =    -0.00361316    0.03397852   -0.00164649
     atom    2 type  2   force =    -0.00138056    0.00574236   -0.27969130
     atom    3 type  2   force =    -0.01451283   -0.00428786    0.26788841
     atom    4 type  1   force =    -0.00040164    0.00371047    0.00907610
     atom    5 type  2   force =     0.00598197   -0.03401107   -0.25727474
     atom    6 type  2   force =    -0.00099449    0.00784681    0.26336381
     atom    7 type  1   force =    -0.01820623   -0.00015870   -0.01961302
     atom    8 type  2   force =     0.00667435   -0.00128087   -0.25997198
     atom    9 type  2   force =     0.00700909   -0.00739438    0.27734818
     atom   10 type  1   force =     0.00166072    0.00064990   -0.00158733
     atom   11 type  2   force =     0.01405257    0.00550720   -0.26384395
     atom   12 type  2   force =    -0.01236883   -0.01518937    0.26508333
     atom   13 type  1   force =    -0.01890982    0.01091001    0.01241619
     atom   14 type  2   force =     0.02236740   -0.00895243   -0.27147092
     atom   15 type  2   force =    -0.01440084   -0.00773116    0.26164871
     atom   16 type  1   force =    -0.00233626    0.01984403   -0.03411849
     atom   17 type  2   force =     0.00288552   -0.00556342   -0.25273834
     atom   18 type  2   force =    -0.00510275   -0.00070541    0.27195088
     atom   19 type  1   force =     0.02025528   -0.00806992   -0.02103940
     atom   20 type  2   force =    -0.00094138   -0.02171411    0.26705581
     atom   21 type  1   force =     0.00383820    0.02958563    0.00682760
     atom   22 type  2   force =    -0.01343886    0.00520630   -0.26522759
     atom   23 type  2   force =     0.00825750   -0.01637098    0.26665731
     atom   24 type  1   force =     0.01973184   -0.00101574    0.00528208
     atom   25 type  2   force =     0.11374215    0.14770450    0.41998724
     atom   26 type  2   force =    -0.00545096   -0.01471766    0.26301304
     atom   27 type  1   force =    -0.00174876    0.00592559    0.01036341
     atom   28 type  2   force =    -0.00562496   -0.01720464   -0.27825964
     atom   29 type  2   force =     0.00889230    0.00779625    0.25896149
     atom   30 type  1   force =    -0.00447306    0.00781779    0.00673275
     atom   31 type  2   force =    -0.00713141    0.00281364   -0.25661576
     atom   32 type  2   force =    -0.00300416   -0.00910513    0.27637985
     atom   33 type  1   force =    -0.00439415    0.03179895    0.01156639
     atom   34 type  2   force =     0.00885427   -0.03192494   -0.28103712
     atom   35 type  2   force =    -0.00514525   -0.01339188    0.26826863
     atom   36 type  3   force =    -0.53319045   -0.91513700   -1.74065894
     The ionic contribution  to forces
     atom    1 type  1   force =     0.52276724    0.52766748    4.26771016
     atom    2 type  2   force =    -1.64569580    0.25220790   38.91191890
     atom    3 type  2   force =    -0.39884550   -0.00648082  -36.87428676
     atom    4 type  1   force =    -0.30194772    1.21924314   -0.46387575
     atom    5 type  2   force =    -0.84920753    1.86558330   38.47279521
     atom    6 type  2   force =     0.36204259   -0.36221892  -38.57954690
     atom    7 type  1   force =    -2.56597579   -2.92788556    1.68134551
     atom    8 type  2   force =    -1.11113943    0.09508977   37.21537441
     atom    9 type  2   force =     0.29272387   -0.01909007  -38.46426324
     atom   10 type  1   force =    -1.94602651   -1.18822826    4.22659032
     atom   11 type  2   force =    -0.49004409   -1.94962345   38.93659763
     atom   12 type  2   force =     0.43917001    0.53967257  -38.37682723
     atom   13 type  1   force =     2.79438360    2.20681646   -1.56059363
     atom   14 type  2   force =     1.46739546   -0.25279129   37.79965353
     atom   15 type  2   force =     0.41691865   -0.09570665  -37.61320865
     atom   16 type  1   force =     0.47790205    4.65354797   -0.76565242
     atom   17 type  2   force =     1.60480820    3.00661583   37.02470144
     atom   18 type  2   force =    -0.02662776   -0.35985644  -39.34495890
     atom   19 type  1   force =     2.97399598   -2.78713147   -0.46535690
     atom   20 type  2   force =     0.28761489   -0.17174281  -38.96513854
     atom   21 type  1   force =     0.96452998   -0.88586321   -0.38703752
     atom   22 type  2   force =     0.94470305   -2.75306137   38.05830030
     atom   23 type  2   force =     0.03929050    0.38766037  -39.00348267
     atom   24 type  1   force =    -3.31975737    2.67818813    1.99478721
     atom   25 type  2   force =    -0.75436115   -2.08591636   30.39191828
     atom   26 type  2   force =    -0.31035759    0.03328122  -38.79574862
     atom   27 type  1   force =    -0.07893704    1.80094778   -4.03011744
     atom   28 type  2   force =    -0.79893609    2.17998750   37.56229391
     atom   29 type  2   force =    -0.42813229   -0.14894188  -38.02731933
     atom   30 type  1   force =    -0.63250981   -1.27967480   -1.08950682
     atom   31 type  2   force =     1.19950859    0.10366428   37.07196739
     atom   32 type  2   force =    -0.48864220    0.02129563  -39.16657786
     atom   33 type  1   force =     0.75268205   -4.38819586   -1.57791674
     atom   34 type  2   force =    -0.36626395   -2.45352956   39.06589405
     atom   35 type  2   force =    -0.42927867    0.21012951  -38.50589265
     atom   36 type  3   force =     1.40224958    2.33433994   49.37546034
     The local contribution  to forces
     atom    1 type  1   force =    -0.50591041   -0.58601711   -4.26643280
     atom    2 type  2   force =     1.63386237   -0.24284495  -38.64836261
     atom    3 type  2   force =     0.39900411    0.01732960   36.62403931
     atom    4 type  1   force =     0.30884420   -1.21885147    0.45071726
     atom    5 type  2   force =     0.84229459   -1.84015992  -38.24195043
     atom    6 type  2   force =    -0.35937509    0.36473645   38.33714190
     atom    7 type  1   force =     2.58779582    2.91504914   -1.66966779
     atom    8 type  2   force =     1.10588983   -0.09954557  -36.95998763
     atom    9 type  2   force =    -0.28746744    0.03264561   38.22052805
     atom   10 type  1   force =     1.93041527    1.19843897   -4.25038099
     atom   11 type  2   force =     0.48097483    1.94323277  -38.70085294
     atom   12 type  2   force =    -0.42874746   -0.52542798   38.13807477
     atom   13 type  1   force =    -2.74896615   -2.21346273    1.48810130
     atom   14 type  2   force =    -1.48518854    0.26218558  -37.53377107
     atom   15 type  2   force =    -0.41479068    0.10691751   37.36402479
     atom   16 type  1   force =    -0.47851806   -4.66130442    0.80173786
     atom   17 type  2   force =    -1.60121487   -3.00307767  -36.78822898
     atom   18 type  2   force =     0.02879509    0.35784945   39.10662661
     atom   19 type  1   force =    -2.98806688    2.78667848    0.48202683
     atom   20 type  2   force =    -0.28475829    0.18894395   38.71951167
     atom   21 type  1   force =    -0.97085150    0.86638392    0.37739282
     atom   22 type  2   force =    -0.93122702    2.74341921  -37.81426028
     atom   23 type  2   force =    -0.04384046   -0.37243973   38.76159348
     atom   24 type  1   force =     3.24325275   -2.66102597   -2.06505938
     atom   25 type  2   force =     0.73523885    2.12565265  -30.59208461
     atom   26 type  2   force =     0.30541029   -0.01915613   38.53457025
     atom   27 type  1   force =     0.08291254   -1.80797032    4.02779148
     atom   28 type  2   force =     0.80673437   -2.16795443  -37.30622254
     atom   29 type  2   force =     0.42343148    0.14563170   37.78426128
     atom   30 type  1   force =     0.63233401    1.28455288    1.07903176
     atom   31 type  2   force =    -1.19173731   -0.10686724  -36.81898570
     atom   32 type  2   force =     0.48337350   -0.00499411   38.91825939
     atom   33 type  1   force =    -0.73299809    4.25928648    1.51110836
     atom   34 type  2   force =     0.35383027    2.43694595  -38.81226705
     atom   35 type  2   force =     0.42290916   -0.19334556   38.26864856
     atom   36 type  3   force =    -0.92050201   -1.51360277  -47.69863438
     The core correction contribution to forces
     atom    1 type  1   force =     0.00000000    0.00000000    0.00000000
     atom    2 type  2   force =    -0.00025736   -0.00020424    0.02130199
     atom    3 type  2   force =     0.00066363    0.00016851   -0.02080858
     atom    4 type  1   force =     0.00000000    0.00000000    0.00000000
     atom    5 type  2   force =    -0.00061845    0.00186944    0.02064598
     atom    6 type  2   force =     0.00023971   -0.00095108   -0.02088562
     atom    7 type  1   force =     0.00000000    0.00000000    0.00000000
     atom    8 type  2   force =    -0.00025708    0.00036460    0.02072047
     atom    9 type  2   force =    -0.00013017    0.00040952   -0.02105535
     atom   10 type  1   force =     0.00000000    0.00000000    0.00000000
     atom   11 type  2   force =    -0.00066319   -0.00052108    0.02089243
     atom   12 type  2   force =     0.00110873    0.00128501   -0.02096923
     atom   13 type  1   force =     0.00000000    0.00000000    0.00000000
     atom   14 type  2   force =    -0.00131619    0.00013857    0.02133930
     atom   15 type  2   force =     0.00072940    0.00049566   -0.02059289
     atom   16 type  1   force =     0.00000000    0.00000000    0.00000000
     atom   17 type  2   force =    -0.00023599    0.00005569    0.02075429
     atom   18 type  2   force =     0.00012018   -0.00068764   -0.02094895
     atom   19 type  1   force =     0.00000000    0.00000000    0.00000000
     atom   20 type  2   force =     0.00017991    0.00083539   -0.02125831
     atom   21 type  1   force =     0.00000000    0.00000000    0.00000000
     atom   22 type  2   force =     0.00059348   -0.00058095    0.02097782
     atom   23 type  2   force =    -0.00061173    0.00133692   -0.02083754
     atom   24 type  1   force =     0.00000000    0.00000000    0.00000000
     atom   25 type  2   force =    -0.00607494   -0.00852206   -0.01447063
     atom   26 type  2   force =    -0.00000442    0.00078482   -0.02086853
     atom   27 type  1   force =     0.00000000    0.00000000    0.00000000
     atom   28 type  2   force =     0.00050123    0.00130747    0.02139842
     atom   29 type  2   force =    -0.00067413   -0.00091480   -0.02034902
     atom   30 type  1   force =     0.00000000    0.00000000    0.00000000
     atom   31 type  2   force =     0.00045004   -0.00009835    0.02073523
     atom   32 type  2   force =    -0.00012727    0.00050932   -0.02117848
     atom   33 type  1   force =     0.00000000    0.00000000    0.00000000
     atom   34 type  2   force =    -0.00020095    0.00078843    0.02155451
     atom   35 type  2   force =     0.00006943    0.00107495   -0.02098799
     atom   36 type  3   force =     0.00595960    0.01023850    0.01881845
     The Hubbard contrib.    to forces
     atom    1 type  1   force =     0.00000000    0.00000000    0.00000000
     atom    2 type  2   force =     0.00000000    0.00000000    0.00000000
     atom    3 type  2   force =     0.00000000    0.00000000    0.00000000
     atom    4 type  1   force =     0.00000000    0.00000000    0.00000000
     atom    5 type  2   force =     0.00000000    0.00000000    0.00000000
     atom    6 type  2   force =     0.00000000    0.00000000    0.00000000
     atom    7 type  1   force =     0.00000000    0.00000000    0.00000000
     atom    8 type  2   force =     0.00000000    0.00000000    0.00000000
     atom    9 type  2   force =     0.00000000    0.00000000    0.00000000
     atom   10 type  1   force =     0.00000000    0.00000000    0.00000000
     atom   11 type  2   force =     0.00000000    0.00000000    0.00000000
     atom   12 type  2   force =     0.00000000    0.00000000    0.00000000
     atom   13 type  1   force =     0.00000000    0.00000000    0.00000000
     atom   14 type  2   force =     0.00000000    0.00000000    0.00000000
     atom   15 type  2   force =     0.00000000    0.00000000    0.00000000
     atom   16 type  1   force =     0.00000000    0.00000000    0.00000000
     atom   17 type  2   force =     0.00000000    0.00000000    0.00000000
     atom   18 type  2   force =     0.00000000    0.00000000    0.00000000
     atom   19 type  1   force =     0.00000000    0.00000000    0.00000000
     atom   20 type  2   force =     0.00000000    0.00000000    0.00000000
     atom   21 type  1   force =     0.00000000    0.00000000    0.00000000
     atom   22 type  2   force =     0.00000000    0.00000000    0.00000000
     atom   23 type  2   force =     0.00000000    0.00000000    0.00000000
     atom   24 type  1   force =     0.00000000    0.00000000    0.00000000
     atom   25 type  2   force =     0.00000000    0.00000000    0.00000000
     atom   26 type  2   force =     0.00000000    0.00000000    0.00000000
     atom   27 type  1   force =     0.00000000    0.00000000    0.00000000
     atom   28 type  2   force =     0.00000000    0.00000000    0.00000000
     atom   29 type  2   force =     0.00000000    0.00000000    0.00000000
     atom   30 type  1   force =     0.00000000    0.00000000    0.00000000
     atom   31 type  2   force =     0.00000000    0.00000000    0.00000000
     atom   32 type  2   force =     0.00000000    0.00000000    0.00000000
     atom   33 type  1   force =     0.00000000    0.00000000    0.00000000
     atom   34 type  2   force =     0.00000000    0.00000000    0.00000000
     atom   35 type  2   force =     0.00000000    0.00000000    0.00000000
     atom   36 type  3   force =     0.00000000    0.00000000    0.00000000
     The SCF correction term to forces
     atom    1 type  1   force =    -0.00010811    0.00010198    0.00018089
     atom    2 type  2   force =    -0.00010771   -0.00004292   -0.00012915
     atom    3 type  2   force =    -0.00003401   -0.00000263    0.00015379
     atom    4 type  1   force =    -0.00009338    0.00046544    0.00024996
     atom    5 type  2   force =     0.00002067    0.00017427   -0.00005993
     atom    6 type  2   force =     0.00000324    0.00010054    0.00020282
     atom    7 type  1   force =     0.00017187   -0.00008267    0.00025044
     atom    8 type  2   force =    -0.00007268    0.00003935   -0.00004735
     atom    9 type  2   force =    -0.00006928    0.00005255    0.00031698
     atom   10 type  1   force =    -0.00025621   -0.00047503    0.00015427
     atom   11 type  2   force =     0.00005153   -0.00018704   -0.00009429
     atom   12 type  2   force =     0.00001834   -0.00015981    0.00025992
     atom   13 type  1   force =     0.00033142    0.00026795    0.00001510
     atom   14 type  2   force =     0.00009416    0.00000330   -0.00018722
     atom   15 type  2   force =    -0.00000408    0.00001941    0.00019449
     atom   16 type  1   force =     0.00009127    0.00026120    0.00024162
     atom   17 type  2   force =     0.00006501    0.00017739   -0.00018857
     atom   18 type  2   force =     0.00003212    0.00004265    0.00022228
     atom   19 type  1   force =     0.00017497   -0.00017115    0.00018858
     atom   20 type  2   force =     0.00008864    0.00004469    0.00026567
     atom   21 type  1   force =     0.00023103   -0.00029111    0.00013467
     atom   22 type  2   force =     0.00008835   -0.00015229   -0.00009516
     atom   23 type  2   force =     0.00003215   -0.00008575    0.00017023
     atom   24 type  1   force =    -0.00023648    0.00031128   -0.00001837
     atom   25 type  2   force =    -0.00001475   -0.00005095   -0.00029370
     atom   26 type  2   force =     0.00002932    0.00001480    0.00009991
     atom   27 type  1   force =     0.00001341    0.00029055    0.00029952
     atom   28 type  2   force =    -0.00006834    0.00020666   -0.00013931
     atom   29 type  2   force =    -0.00003818    0.00008307    0.00020586
     atom   30 type  1   force =    -0.00030667   -0.00017574    0.00024602
     atom   31 type  2   force =    -0.00003833   -0.00002706   -0.00002949
     atom   32 type  2   force =    -0.00001554    0.00000484    0.00023165
     atom   33 type  1   force =     0.00000894   -0.00041912   -0.00005724
     atom   34 type  2   force =    -0.00012253   -0.00021157   -0.00010948
     atom   35 type  2   force =    -0.00005293   -0.00012523    0.00018460
     atom   36 type  3   force =     0.00006454    0.00012563   -0.00038223

     Total force =     0.355893     Total SCF correction =     0.001829
     Energy error            =      8.7E-01 Ry
     Gradient error          =      2.1E-01 Ry/Bohr

     number of scf cycles    =   2
     number of bfgs steps    =   1

     energy             old  =   -2245.4585894767 Ry
     energy             new  =   -2246.3328421950 Ry

     CASE: energy            _new < energy            _old

     new trust radius        =       0.1404206763 bohr
     new conv_thr            =       0.0000002051 Ry


ATOMIC_POSITIONS (angstrom)
Mo            6.5825859800        1.7730811965        2.8236211565
S             8.1685860492        0.8185633541        4.4373802194
S             8.1848012151        0.8151038795        1.2760227296
Mo            8.0988165322        4.4975585018        2.7156662864
S             6.4990299524        3.7185825092        4.3430274592
S             6.5544731038        3.5175768984        1.1215154341
Mo            6.4923257692        7.2104371627        2.6672013872
S             8.0823570307        6.3406887645        4.2520952349
S             8.0881656708        6.3087326885        1.0916839919
Mo            8.1520238097        9.9083877968        2.8283611900
S             6.4978116481        8.9419147998        4.3786417101
S             6.6174660927        9.0488909819        1.1433956544
Mo            3.4365921939        1.7492159848        2.7404563212
S             4.9773487435        0.8170810220        4.3598776369
S             5.0510571545        0.8484232228        1.2218789324
Mo            4.9781480179        4.5204435734        2.6342073197
S             3.4316601854        3.6708939726        4.2823821704
S             3.4361248356        3.5463336125        1.0660824163
Mo            3.4575790042        7.2110288243        2.6280830503
S             4.9845554001        6.3247611326        1.0376483907
Mo            5.0108733637        9.9073568763        2.7417682839
S             3.4713130221        8.9406506399        4.3252731003
S             3.4099691407        9.0651636482        1.0988143120
Mo            0.2664752791        1.7553453633        2.8147941876
S             1.8192893376        0.7599096478        4.1916285625
S             1.8544639144        0.8544754332        1.1996367773
Mo            1.8619276290        4.4952689593        2.6651227876
S             0.2737395913        3.6524116750        4.3370262275
S             0.2334215529        3.5293214992        1.1694651323
Mo            0.2683207858        7.2241194559        2.6996342787
S             1.9028268184        6.3125009172        4.2326233463
S             1.8571767076        6.3149415477        1.0488705265
Mo            1.8540807261        9.8897973811        2.7479227374
S             0.2937596419        9.0613107429        4.4099871157
S             0.2699076495        9.0462800322        1.1566546964
O             2.1547956852        1.2987149348        5.6318891081



     Writing config-only to output data dir ./MoS2-V-O.save/
     NEW-OLD atomic charge density approx. for the potential

     negative rho (up, down):  1.679E-04 0.000E+00

     total cpu time spent up to now is      246.1 secs

     Self-consistent Calculation

     iteration #  1     ecut=    80.00 Ry     beta= 0.70
     Davidson diagonalization with overlap
     ethr =  1.00E-06,  avg # of iterations = 15.0

     negative rho (up, down):  2.127E-04 0.000E+00

     total cpu time spent up to now is      267.8 secs

     total energy              =   -2246.38280995 Ry
     estimated scf accuracy    <       0.01069917 Ry

     iteration #  2     ecut=    80.00 Ry     beta= 0.70
     Davidson diagonalization with overlap
     ethr =  3.43E-06,  avg # of iterations =  2.0

     negative rho (up, down):  2.799E-04 0.000E+00

     total cpu time spent up to now is      280.8 secs

     total energy              =   -2246.38298291 Ry
     estimated scf accuracy    <       0.00266422 Ry

     iteration #  3     ecut=    80.00 Ry     beta= 0.70
     Davidson diagonalization with overlap
     ethr =  8.54E-07,  avg # of iterations =  3.0

     negative rho (up, down):  3.081E-04 0.000E+00

     total cpu time spent up to now is      291.3 secs

     total energy              =   -2246.38311424 Ry
     estimated scf accuracy    <       0.00044365 Ry

     iteration #  4     ecut=    80.00 Ry     beta= 0.70
     Davidson diagonalization with overlap
     ethr =  1.42E-07,  avg # of iterations =  5.0

     negative rho (up, down):  2.892E-04 0.000E+00

     total cpu time spent up to now is      312.1 secs

     total energy              =   -2246.38319984 Ry
     estimated scf accuracy    <       0.00005272 Ry

     iteration #  5     ecut=    80.00 Ry     beta= 0.70
     Davidson diagonalization with overlap
     ethr =  1.69E-08,  avg # of iterations =  5.0

     negative rho (up, down):  2.696E-04 0.000E+00

     total cpu time spent up to now is      327.7 secs

     total energy              =   -2246.38320979 Ry
     estimated scf accuracy    <       0.00001755 Ry

     iteration #  6     ecut=    80.00 Ry     beta= 0.70
     Davidson diagonalization with overlap
     ethr =  5.63E-09,  avg # of iterations =  3.0

     negative rho (up, down):  2.447E-04 0.000E+00

     total cpu time spent up to now is      341.6 secs

     total energy              =   -2246.38321111 Ry
     estimated scf accuracy    <       0.00000535 Ry

     iteration #  7     ecut=    80.00 Ry     beta= 0.70
     Davidson diagonalization with overlap
     ethr =  1.71E-09,  avg # of iterations =  3.0

     negative rho (up, down):  2.171E-04 0.000E+00

     total cpu time spent up to now is      355.7 secs

     total energy              =   -2246.38321154 Ry
     estimated scf accuracy    <       0.00000122 Ry

     iteration #  8     ecut=    80.00 Ry     beta= 0.70
     Davidson diagonalization with overlap
     ethr =  3.92E-10,  avg # of iterations =  5.0

     negative rho (up, down):  1.993E-04 0.000E+00

     total cpu time spent up to now is      365.8 secs

     total energy              =   -2246.38321184 Ry
     estimated scf accuracy    <       0.00000023 Ry

     iteration #  9     ecut=    80.00 Ry     beta= 0.70
     Davidson diagonalization with overlap
     ethr =  7.48E-11,  avg # of iterations =  4.0

     negative rho (up, down):  1.848E-04 0.000E+00

     total cpu time spent up to now is      369.2 secs

     End of self-consistent calculation

          k = 0.0000 0.0000 0.0000 (105382 PWs)   bands (ev):

   -63.0382 -63.0284 -63.0175 -63.0111 -63.0015 -62.9897 -62.9849 -62.9748
   -62.9693 -62.9352 -62.9284 -62.8341 -37.4037 -37.3379 -37.3220 -37.3122
   -37.2965 -37.2714 -37.2581 -37.2398 -37.2371 -37.2264 -37.2102 -37.2061
   -37.1921 -37.1890 -37.1832 -37.1663 -37.1643 -37.1577 -37.1459 -37.1393
   -37.1325 -37.1283 -37.1233 -37.1023 -37.0921 -37.0843 -37.0700 -37.0634
   -37.0449 -37.0275 -37.0242 -37.0054 -37.0018 -36.9220 -36.9141 -36.9074
   -21.4023 -16.1103 -15.3461 -15.2764 -15.1153 -15.0645 -14.9202 -14.6727
   -14.6236 -14.5815 -14.5575 -14.5346 -14.4876 -14.4548 -14.4099 -14.2870
   -14.2733 -14.2482 -14.1462 -14.1032 -14.0429 -14.0071 -13.9764 -13.9221
    -8.0161  -7.8491  -7.7574  -7.6178  -7.5001  -7.4356  -7.3901  -7.3357
    -7.2163  -7.0619  -6.9893  -6.9425  -6.9229  -6.8257  -6.7184  -6.6849
    -6.6369  -6.5992  -6.4903  -6.4191  -6.1607  -6.1219  -6.0627  -6.0201
    -5.9772  -5.9637  -5.8661  -5.8499  -5.8293  -5.7810  -5.7319  -5.7088
    -5.6478  -5.6453  -5.5206  -5.4441  -5.3253  -5.2593  -5.2163  -5.1751
    -5.1334  -5.1219  -4.9914  -4.8352  -4.8131  -4.7044  -4.5771  -4.4755
    -4.4319  -4.3443  -4.3100  -4.2645  -4.1027  -4.0016  -3.9831  -3.9580
    -3.9204  -3.8510  -3.7970  -3.7652  -3.7148  -3.6632  -3.6421  -3.6086
    -3.5777  -3.5494  -3.4113  -3.3203  -3.1677  -3.1148  -3.0967  -2.9752
    -2.9575  -2.9267  -2.9230  -2.8664  -2.8283  -2.7520  -2.6127  -2.4334
    -2.3368  -2.1801  -2.1305  -2.0235  -0.9572  -0.9211  -0.3646  -0.3283
    -0.2959  -0.2257  -0.1437  -0.1088  -0.0143   0.0656   0.1086   0.1508
     0.1706   0.2663   0.3128   0.3765   0.3945   0.4202   0.4277   0.5014
     0.5508   0.5992   0.6084   0.6208   0.6960   0.7375   0.7673   0.8072
     0.8344   0.9921   1.2011

     the Fermi energy is    -1.4913 ev

!    total energy              =   -2246.38321186 Ry
     estimated scf accuracy    <       0.00000010 Ry
     smearing contrib. (-TS)   =      -0.00000000 Ry
     internal energy E=F+TS    =   -2246.38321186 Ry

     The total energy is F=E-TS. E is the sum of the following terms:
     one-electron contribution =  -18437.11322088 Ry
     hartree contribution      =    9205.77889977 Ry
     xc contribution           =    -392.13829691 Ry
     ewald contribution        =    7386.95065935 Ry
     one-center paw contrib.   =      -9.86125318 Ry

     convergence has been achieved in   9 iterations

     negative rho (up, down):  1.848E-04 0.000E+00

     Forces acting on atoms (cartesian axes, Ry/au):

     atom    1 type  1   force =     0.00186282   -0.01548990    0.00086189
     atom    2 type  2   force =    -0.00809563    0.01084498   -0.00175341
     atom    3 type  2   force =    -0.01887657    0.00244860   -0.01711150
     atom    4 type  1   force =     0.00579306    0.00365932    0.00132495
     atom    5 type  2   force =     0.00008830   -0.00608408   -0.00710543
     atom    6 type  2   force =     0.00099311    0.00765485    0.00134675
     atom    7 type  1   force =     0.00387807   -0.01031815   -0.00107580
     atom    8 type  2   force =     0.00095425   -0.00479555    0.01152854
     atom    9 type  2   force =     0.01083871    0.00561469    0.00749127
     atom   10 type  1   force =    -0.00280835    0.00805306   -0.00698742
     atom   11 type  2   force =     0.00332568   -0.00162368   -0.00960059
     atom   12 type  2   force =    -0.00302594   -0.00049077    0.00085729
     atom   13 type  1   force =     0.01605787    0.00882525   -0.02362440
     atom   14 type  2   force =     0.00020094    0.00243413    0.00496861
     atom   15 type  2   force =    -0.00168964   -0.00007787   -0.01420529
     atom   16 type  1   force =    -0.00062888    0.00859758    0.00354490
     atom   17 type  2   force =     0.00649728   -0.00502503   -0.00092316
     atom   18 type  2   force =    -0.00145881    0.00173918    0.00520792
     atom   19 type  1   force =     0.00627009   -0.00838532   -0.00004709
     atom   20 type  2   force =     0.00231801   -0.00352043   -0.00296364
     atom   21 type  1   force =    -0.00493661    0.00468089    0.00263390
     atom   22 type  2   force =     0.00132596   -0.00602994   -0.00308115
     atom   23 type  2   force =     0.00733146   -0.00579847   -0.00334739
     atom   24 type  1   force =    -0.02100932    0.00874485   -0.02038551
     atom   25 type  2   force =     0.06835895    0.11163135    0.12975766
     atom   26 type  2   force =    -0.01068124   -0.00848532   -0.01322691
     atom   27 type  1   force =    -0.00016297   -0.00173299    0.00858812
     atom   28 type  2   force =    -0.00019178   -0.00531225   -0.00576925
     atom   29 type  2   force =     0.00193529    0.00809970   -0.00970657
     atom   30 type  1   force =    -0.00572029    0.00146119    0.00406157
     atom   31 type  2   force =     0.00059856   -0.00039579    0.01067242
     atom   32 type  2   force =    -0.00696894    0.00585706    0.00567262
     atom   33 type  1   force =     0.00399220   -0.01445010    0.00201406
     atom   34 type  2   force =    -0.00213172   -0.03475226   -0.01333115
     atom   35 type  2   force =    -0.01237404    0.00169758   -0.00041192
     atom   36 type  3   force =    -0.04185988   -0.06927634   -0.04587489
     The non-local contrib.  to forces
     atom    1 type  1   force =    -0.00147152    0.03070094   -0.00357968
     atom    2 type  2   force =    -0.00129261    0.00229306   -0.27950564
     atom    3 type  2   force =    -0.01735236   -0.00863446    0.25668337
     atom    4 type  1   force =     0.00124565    0.00586283    0.00735471
     atom    5 type  2   force =     0.00691120   -0.03419025   -0.25935031
     atom    6 type  2   force =    -0.00156087    0.00473380    0.26629507
     atom    7 type  1   force =    -0.01752907    0.00044795   -0.02239113
     atom    8 type  2   force =     0.00668713   -0.00174331   -0.26279503
     atom    9 type  2   force =     0.00520620   -0.00809913    0.27487970
     atom   10 type  1   force =     0.00235034    0.00293606   -0.00346136
     atom   11 type  2   force =     0.01175414    0.00542383   -0.26559159
     atom   12 type  2   force =    -0.01328570   -0.01672751    0.26266738
[...]
     atom   28 type  2   force =     0.00119734   -0.01199272   -0.27800618
     atom   29 type  2   force =    -0.00172798   -0.00866616    0.26654694
     atom   30 type  1   force =    -0.00510481    0.01826902    0.00330878
     atom   31 type  2   force =    -0.00716181    0.00230666   -0.26784693
     atom   32 type  2   force =     0.00754910   -0.01534703    0.27099428
     atom   33 type  1   force =    -0.00131989    0.01668072    0.01522771
     atom   34 type  2   force =     0.00203924   -0.00782918   -0.27824067
     atom   35 type  2   force =     0.00051876   -0.01269689    0.26455076
     atom   36 type  3   force =     0.01176269   -0.07132522   -2.31781976
     The ionic contribution  to forces
     atom    1 type  1   force =    -0.16732329    1.05982229    0.23128879
     atom    2 type  2   force =    -1.19692825    0.08950162   38.05781413
     atom    3 type  2   force =     0.04107734   -0.16622194  -38.42587622
     atom    4 type  1   force =    -0.52694233    0.87696091   -0.97540640
     atom    5 type  2   force =    -0.83044078    1.43171687   37.77697154
     atom    6 type  2   force =     0.19771870   -0.19520097  -38.64798627
     atom    7 type  1   force =    -2.65623636   -2.07337626    2.31266230
     atom    8 type  2   force =    -1.33431700    0.06993054   38.17196696
     atom    9 type  2   force =     0.31279206    0.07893883  -38.28591549
     atom   10 type  1   force =    -1.00634687   -1.01424721    1.80263507
     atom   11 type  2   force =    -0.44907070   -1.69388953   38.33203064
     atom   12 type  2   force =     0.20491467    0.13835233  -38.25276621
     atom   13 type  1   force =     1.11902507    1.27807538   -1.81034561
     atom   14 type  2   force =     1.00824796   -0.03972737   37.78542482
     atom   15 type  2   force =     0.02098937   -0.19319744  -38.45345746
     atom   16 type  1   force =     0.39050180    3.83193923    0.05886771
     atom   17 type  2   force =     1.39256831    2.12947773   37.65542383
     atom   18 type  2   force =    -0.20818300   -0.14414542  -38.90853142
     atom   19 type  1   force =     2.83650991   -2.42379595    2.36150768
     atom   20 type  2   force =     0.02127439    0.06502328  -39.07475320
     atom   21 type  1   force =     0.52833552   -0.86330696   -0.25116873
     atom   22 type  2   force =     1.02724623   -2.27998929   38.09891773
     atom   23 type  2   force =    -0.15095759    0.17402307  -38.52997409
     atom   24 type  1   force =    -0.97136356    0.98987618   -2.18281644
     atom   25 type  2   force =     0.23399481   -0.16303154   28.69834738
     atom   26 type  2   force =    -0.04552417   -0.16323986  -38.12077251
     atom   27 type  1   force =     0.15762698    1.27183336   -0.78667656
     atom   28 type  2   force =    -0.56672680    1.51741520   37.46853097
     atom   29 type  2   force =     0.00834214    0.11170355  -38.51398333
     atom   30 type  1   force =    -0.17524412   -1.19896927    1.88824461
     atom   31 type  2   force =     1.17657328    0.11081083   38.04824984
     atom   32 type  2   force =    -0.34330722    0.07373078  -38.12809106
     atom   33 type  1   force =     0.46792961   -1.62963313   -0.24614716
     atom   34 type  2   force =    -0.59981082   -1.40294532   38.47109362
     atom   35 type  2   force =    -0.05410078    0.00891497  -38.10922257
     atom   36 type  3   force =     0.13715550    0.33687052   50.48391308
     The local contribution  to forces
     atom    1 type  1   force =     0.16848946   -1.08527676   -0.23392339
     atom    2 type  2   force =     1.19721319   -0.08106776  -37.80612302
     atom    3 type  2   force =    -0.03723855    0.17471118   38.18268078
     atom    4 type  1   force =     0.52282702   -0.88356745    0.96915439
     atom    5 type  2   force =     0.82578118   -1.40908646  -37.53853428
     atom    6 type  2   force =    -0.19794523    0.20115455   38.40057571
     atom    7 type  1   force =     2.67030947    2.06930487   -2.28675394
     atom    8 type  2   force =     1.32484520   -0.07251305  -37.92582049
     atom    9 type  2   force =    -0.30567244   -0.06564071   38.03811186
     atom   10 type  1   force =     1.00428399    1.00734557   -1.80453734
     atom   11 type  2   force =     0.44443682    1.69353995  -38.09054365
     atom   12 type  2   force =    -0.19704339   -0.12661466   38.00706170
     atom   13 type  1   force =    -1.11079957   -1.28822317    1.79869440
     atom   14 type  2   force =    -1.00764886    0.04557550  -37.53215182
     atom   15 type  2   force =    -0.02207048    0.20187135   38.21400506
     atom   16 type  1   force =    -0.39028994   -3.86579938   -0.02560785
     atom   17 type  2   force =    -1.38700649   -2.10986984  -37.41795916
     atom   18 type  2   force =     0.20732249    0.14706208   38.66436416
     atom   19 type  1   force =    -2.85530667    2.42342110   -2.33369125
     atom   20 type  2   force =    -0.02212818   -0.05096252   38.83320051
     atom   21 type  1   force =    -0.52822972    0.83347993    0.24861185
     atom   22 type  2   force =    -1.02025246    2.27938571  -37.85686978
     atom   23 type  2   force =     0.14323399   -0.16155668   38.28605968
     atom   24 type  1   force =     0.96324236   -0.99643109    2.16318712
     atom   25 type  2   force =    -0.22775851    0.15235630  -28.98411974
     atom   26 type  2   force =     0.04325209    0.17270215   37.86262769
     atom   27 type  1   force =    -0.15327625   -1.27586651    0.78346607
     atom   28 type  2   force =     0.56560489   -1.50599128  -37.21160651
     atom   29 type  2   force =    -0.00753635   -0.10299503   38.26795370
     atom   30 type  1   force =     0.18062057    1.18061756   -1.89223495
     atom   31 type  2   force =    -1.16968704   -0.11299712  -37.80166465
     atom   32 type  2   force =     0.33659883   -0.05996620   37.87741427
     atom   33 type  1   force =    -0.46676998    1.61419258    0.23079430
     atom   34 type  2   force =     0.59719647    1.40957838  -38.21401152
     atom   35 type  2   force =     0.05395052    0.00294045   37.86448470
     atom   36 type  3   force =    -0.14909871   -0.26771053  -48.19195064
     The core correction contribution to forces
     atom    1 type  1   force =     0.00000000    0.00000000    0.00000000
     atom    2 type  2   force =     0.00001199    0.00042595    0.02128580
     atom    3 type  2   force =     0.00025967    0.00019444   -0.02076883
     atom    4 type  1   force =     0.00000000    0.00000000    0.00000000
     atom    5 type  2   force =    -0.00043075    0.00101816    0.02054253
     atom    6 type  2   force =     0.00019202   -0.00012068   -0.02091284
     atom    7 type  1   force =     0.00000000    0.00000000    0.00000000
     atom    8 type  2   force =    -0.00055119    0.00002941    0.02099603
     atom    9 type  2   force =     0.00071060    0.00084897   -0.02101428
     atom   10 type  1   force =     0.00000000    0.00000000    0.00000000
     atom   11 type  2   force =    -0.00006867   -0.00023293    0.02074852
     atom   12 type  2   force =     0.00070314    0.00091442   -0.02090319
     atom   13 type  1   force =     0.00000000    0.00000000    0.00000000
     atom   14 type  2   force =     0.00005539    0.00001281    0.02137976
     atom   15 type  2   force =    -0.00014277    0.00026791   -0.02061066
     atom   16 type  1   force =     0.00000000    0.00000000    0.00000000
     atom   17 type  2   force =     0.00048802    0.00095437    0.02069455
     atom   18 type  2   force =    -0.00033684   -0.00026432   -0.02083294
     atom   19 type  1   force =     0.00000000    0.00000000    0.00000000
     atom   20 type  2   force =    -0.00007110    0.00078349   -0.02122701
     atom   21 type  1   force =     0.00000000    0.00000000    0.00000000
     atom   22 type  2   force =     0.00022368   -0.00014910    0.02091430
     atom   23 type  2   force =    -0.00065991    0.00095521   -0.02086505
     atom   24 type  1   force =     0.00000000    0.00000000    0.00000000
     atom   25 type  2   force =     0.00033198   -0.00063716   -0.00979876
     atom   26 type  2   force =    -0.00014431    0.00023279   -0.02132158
     atom   27 type  1   force =     0.00000000    0.00000000    0.00000000
     atom   28 type  2   force =    -0.00005492    0.00077951    0.02149226
     atom   29 type  2   force =     0.00015937    0.00030420   -0.02078630
     atom   30 type  1   force =     0.00000000    0.00000000    0.00000000
     atom   31 type  2   force =     0.00035494    0.00013064    0.02095115
     atom   32 type  2   force =    -0.00069199    0.00086901   -0.02101761
     atom   33 type  1   force =     0.00000000    0.00000000    0.00000000
     atom   34 type  2   force =    -0.00015678    0.00035070    0.02158249
     atom   35 type  2   force =    -0.00004695    0.00074946   -0.02088345
     atom   36 type  3   force =    -0.00012233    0.00074834    0.02459345
     The Hubbard contrib.    to forces
     atom    1 type  1   force =     0.00000000    0.00000000    0.00000000
     atom    2 type  2   force =     0.00000000    0.00000000    0.00000000
     atom    3 type  2   force =     0.00000000    0.00000000    0.00000000
     atom    4 type  1   force =     0.00000000    0.00000000    0.00000000
     atom    5 type  2   force =     0.00000000    0.00000000    0.00000000
     atom    6 type  2   force =     0.00000000    0.00000000    0.00000000
     atom    7 type  1   force =     0.00000000    0.00000000    0.00000000
     atom    8 type  2   force =     0.00000000    0.00000000    0.00000000
     atom    9 type  2   force =     0.00000000    0.00000000    0.00000000
     atom   10 type  1   force =     0.00000000    0.00000000    0.00000000
     atom   11 type  2   force =     0.00000000    0.00000000    0.00000000
     atom   12 type  2   force =     0.00000000    0.00000000    0.00000000
     atom   13 type  1   force =     0.00000000    0.00000000    0.00000000
     atom   14 type  2   force =     0.00000000    0.00000000    0.00000000
     atom   15 type  2   force =     0.00000000    0.00000000    0.00000000
     atom   16 type  1   force =     0.00000000    0.00000000    0.00000000
     atom   17 type  2   force =     0.00000000    0.00000000    0.00000000
     atom   18 type  2   force =     0.00000000    0.00000000    0.00000000
     atom   19 type  1   force =     0.00000000    0.00000000    0.00000000
     atom   20 type  2   force =     0.00000000    0.00000000    0.00000000
     atom   21 type  1   force =     0.00000000    0.00000000    0.00000000
     atom   22 type  2   force =     0.00000000    0.00000000    0.00000000
     atom   23 type  2   force =     0.00000000    0.00000000    0.00000000
     atom   24 type  1   force =     0.00000000    0.00000000    0.00000000
     atom   25 type  2   force =     0.00000000    0.00000000    0.00000000
     atom   26 type  2   force =     0.00000000    0.00000000    0.00000000
     atom   27 type  1   force =     0.00000000    0.00000000    0.00000000
     atom   28 type  2   force =     0.00000000    0.00000000    0.00000000
     atom   29 type  2   force =     0.00000000    0.00000000    0.00000000
     atom   30 type  1   force =     0.00000000    0.00000000    0.00000000
     atom   31 type  2   force =     0.00000000    0.00000000    0.00000000
     atom   32 type  2   force =     0.00000000    0.00000000    0.00000000
     atom   33 type  1   force =     0.00000000    0.00000000    0.00000000
     atom   34 type  2   force =     0.00000000    0.00000000    0.00000000
     atom   35 type  2   force =     0.00000000    0.00000000    0.00000000
     atom   36 type  3   force =     0.00000000    0.00000000    0.00000000
     The SCF correction term to forces
     atom    1 type  1   force =     0.00000512    0.00000466   -0.00003912
     atom    2 type  2   force =     0.00000195   -0.00000837   -0.00001713
     atom    3 type  2   force =    -0.00000408   -0.00000514   -0.00001606
     atom    4 type  1   force =     0.00000492   -0.00000078   -0.00003916
     atom    5 type  2   force =     0.00000118    0.00000034   -0.00001391
     atom    6 type  2   force =    -0.00000072   -0.00000516   -0.00001860
     atom    7 type  1   force =    -0.00000945    0.00003596   -0.00000938
     atom    8 type  2   force =     0.00000649    0.00000675   -0.00000342
     atom    9 type  2   force =     0.00000438   -0.00000532   -0.00000570
     atom   10 type  1   force =     0.00000247   -0.00000511   -0.00002501
     atom   11 type  2   force =     0.00000085   -0.00000408   -0.00002040
     atom   12 type  2   force =    -0.00000274    0.00000445    0.00000260
     atom   13 type  1   force =    -0.00004726   -0.00004367   -0.00002394
     atom   14 type  2   force =    -0.00001379   -0.00001033   -0.00001102
     atom   15 type  2   force =     0.00000043   -0.00000564   -0.00001795
     atom   16 type  1   force =    -0.00001536   -0.00001259   -0.00003522
     atom   17 type  2   force =    -0.00000638    0.00000279   -0.00000667
     atom   18 type  2   force =     0.00000734    0.00000569   -0.00001536
     atom   19 type  1   force =     0.00000149    0.00000117   -0.00001961
     atom   20 type  2   force =    -0.00000551   -0.00000406   -0.00001161
     atom   21 type  1   force =     0.00000969    0.00000639   -0.00002058
     atom   22 type  2   force =    -0.00000305   -0.00000329   -0.00001914
     atom   23 type  2   force =     0.00000889   -0.00000137   -0.00000039
     atom   24 type  1   force =     0.00005094   -0.00002480   -0.00002520
     atom   25 type  2   force =     0.00001201    0.00000031   -0.00004954
     atom   26 type  2   force =     0.00000481    0.00000442    0.00001730
     atom   27 type  1   force =     0.00000738    0.00001419   -0.00001355
     atom   28 type  2   force =     0.00000557    0.00000026   -0.00000984
     atom   29 type  2   force =    -0.00000456   -0.00000066   -0.00001281
     atom   30 type  1   force =     0.00001064   -0.00001287   -0.00000524
     atom   31 type  2   force =    -0.00000436    0.00000838   -0.00001763
     atom   32 type  2   force =     0.00000288   -0.00000364    0.00000556
     atom   33 type  1   force =     0.00000233    0.00004498    0.00000285
     atom   34 type  2   force =    -0.00000094   -0.00000252   -0.00001840
     atom   35 type  2   force =    -0.00000615    0.00000766    0.00000598
     atom   36 type  3   force =     0.00003584    0.00005011   -0.00003632

     Total force =     0.005781     Total SCF correction =     0.000179
     Energy error            =      6.5E-05 Ry
     Gradient error          =      1.8E-03 Ry/Bohr

     bfgs converged in  20 scf cycles and  19 bfgs steps
     (criteria: energy <  1.0E-04 Ry, force <  1.0E-02 Ry/Bohr)

     End of BFGS Geometry Optimization

     Final energy             =   -2246.4497849542 Ry

     File ./MoS2-V-O.bfgs deleted, as requested
Begin final coordinates

ATOMIC_POSITIONS (angstrom)
Mo            6.5708622476        1.7559674455        2.7377790785
S             8.1423706943        0.8713562295        4.3546346027
S             8.1427853159        0.8337368425        1.1565519057
Mo            8.1346265194        4.5074037165        2.7016135786
S             6.5320130825        3.6673156111        4.2864754918
S             6.5680957725        3.5736001378        1.0960123719
Mo            6.5224511688        7.1908239070        2.6778037300
S             8.0807503588        6.3031350865        4.3116098596
S             8.1465643825        6.3459747471        1.1194256318
Mo            8.1467066859        9.9473688565        2.7745100672
S             6.5288198337        8.9636753310        4.3304886480
S             6.5994541614        9.0384223006        1.1365978674
Mo            3.4567919024        1.7846647098        2.7370959226
S             5.0031390899        0.8349509234        4.3330489915
S             5.0051776118        0.8340434124        1.1470670098
Mo            5.0029449172        4.5487714313        2.6406757673
S             3.4861416735        3.6813830344        4.3047105503
S             3.4375523734        3.5881836470        1.0916685694
Mo            3.4875956759        7.1939671033        2.6830642831
S             5.0022980596        6.3344168268        1.0454822348
Mo            5.0013452045        9.9186035326        2.7313769842
S             3.4795207475        8.9602525874        4.3367513669
S             3.4151692018        9.0270531914        1.1300097820
Mo            0.2516181170        1.7733117853        2.7430339967
S             1.8642329425        0.8665108933        4.2706799420
S             1.8547680631        0.8376339348        1.1881832712
Mo            1.8763140502        4.5052207740        2.7138579525
S             0.2715193302        3.6183905058        4.3139002298
S             0.2800735302        3.5881580680        1.1289295767
Mo            0.2651472487        7.2287456481        2.7556186802
S             1.9137288564        6.3093009449        4.3137510455
S             1.8553302622        6.3474230578        1.1307391495
Mo            1.8583597395        9.9128395973        2.7700687998
S             0.2717839269        9.0389206238        4.3799768418
S             0.2620483314        9.0469893695        1.1775315218
O             1.8557481549        0.9167528185        5.7696145692
End final coordinates



     Writing all to output data dir ./MoS2-V-O.save/
 
     init_run     :      5.48s CPU      5.98s WALL (       1 calls)
     electrons    :   1702.97s CPU   1869.97s WALL (      20 calls)
     update_pot   :     58.02s CPU     60.75s WALL (      19 calls)
     forces       :     54.41s CPU     58.72s WALL (      20 calls)

     Called by init_run:
     wfcinit      :      0.51s CPU      0.56s WALL (       1 calls)
     potinit      :      3.19s CPU      3.50s WALL (       1 calls)
     hinit0       :      0.45s CPU      0.53s WALL (       1 calls)

     Called by electrons:
     c_bands      :    261.72s CPU    266.53s WALL (     175 calls)
     sum_band     :    107.88s CPU    120.48s WALL (     175 calls)
     v_of_rho     :    163.20s CPU    187.44s WALL (     186 calls)
     newd         :     55.83s CPU     65.91s WALL (     186 calls)
     PAW_pot      :      7.41s CPU      7.45s WALL (     205 calls)
     mix_rho      :   1128.07s CPU   1242.31s WALL (     175 calls)

     Called by c_bands:
     init_us_2    :      4.21s CPU      4.35s WALL (     370 calls)
     init_us_2:cp :      4.21s CPU      4.35s WALL (     370 calls)
     regterg      :    249.05s CPU    253.72s WALL (     175 calls)

     Called by *egterg:
     rdiaghg      :     16.34s CPU     16.47s WALL (     902 calls)
     h_psi        :    165.30s CPU    166.93s WALL (     931 calls)
     s_psi        :     14.67s CPU     14.72s WALL (     931 calls)
     g_psi        :      0.80s CPU      0.81s WALL (     755 calls)

     Called by h_psi:
     h_psi:calbec :     15.93s CPU     15.99s WALL (     931 calls)
     vloc_psi     :    132.95s CPU    134.41s WALL (     931 calls)
     add_vuspsi   :     14.36s CPU     14.45s WALL (     931 calls)

     General routines
     calbec       :     23.23s CPU     23.33s WALL (    1205 calls)
     fft          :    113.23s CPU    130.84s WALL (   12514 calls)
     ffts         :    497.75s CPU    607.66s WALL (  270071 calls)
     fftw         :     90.93s CPU     91.72s WALL (  108636 calls)
     interpolate  :      2.30s CPU      2.65s WALL (     186 calls)
 
     Parallel routines
 
     PWSCF        :  30m29.36s CPU  33m26.57s WALL

 
   This run was terminated on:  12:17:22   1Nov2023            

=------------------------------------------------------------------------------=
   JOB DONE.
=------------------------------------------------------------------------------=
