
     Program PWSCF v.7.2 starts on  1Nov2023 at 19: 0:26 

     This program is part of the open-source Quantum ESPRESSO suite
     for quantum simulation of materials; please cite
         "P. Giannozzi et al., J. Phys.:Condens. Matter 21 395502 (2009);
         "P. Giannozzi et al., J. Phys.:Condens. Matter 29 465901 (2017);
         "P. Giannozzi et al., J. Chem. Phys. 152 154105 (2020);
          URL http://www.quantum-espresso.org", 
     in publications or presentations arising from this work. More details at
     http://www.quantum-espresso.org/quote

     Parallel version (MPI & OpenMP), running on      48 processor cores
     Number of MPI processes:                48
     Threads/MPI process:                     1

     MPI processes distributed on     1 nodes
     44867 MiB available memory on the printing compute node when the environment starts
 
     Waiting for input...
     Reading input from standard input
Warning: card &CELL ignored
Warning: card CELL_DYNAMICS = 'BFGS', ignored
Warning: card CELL_DOFREE = '2DXY' ignored
Warning: card / ignored

     Current dimensions of program PWSCF are:
     Max number of different atomic species (ntypx) = 10
     Max number of k-points (npk) =  40000
     Max angular momentum in pseudopotentials (lmaxx) =  4
     file O.pbe-n-kjpaw_psl.0.1.UPF: wavefunction(s)  2P renormalized

     IMPORTANT: XC functional enforced from input :
     Exchange-correlation= RVV10
                           (   1   4  13   4  26   0   0)
     Any further DFT definition will be discarded
     Please, verify this is what you really want


     gamma-point specific algorithms are used
     signal trapping enabled: kill the code with -SIGUSR1 to stop cleanly the simulation 
 
     R & G space division:  proc/nbgrp/npool/nimage =      48
     Subspace diagonalization in iterative solution of the eigenvalue problem:
     one sub-group per band group will be used
     scalapack distributed-memory algorithm (size of sub-group:  2*  2 procs)

 
     Parallelization info
     --------------------
     sticks:   dense  smooth     PW     G-vecs:    dense   smooth      PW
     Min         396     194     47               101632    35090    4376
     Max         398     196     50               101674    35128    4410
     Sum       19091    9389   2349              4879585  1685513  210763
 
     Using Slab Decomposition
 


     bravais-lattice index     =            0
     lattice parameter (alat)  =      17.8707  a.u.
     unit-cell volume          =   17436.2743 (a.u.)^3
     number of atoms/cell      =           36
     number of atomic types    =            3
     number of electrons       =       312.00
     number of Kohn-Sham states=          187
     kinetic-energy cutoff     =      80.0000  Ry
     charge density cutoff     =     650.0000  Ry
     scf convergence threshold =      1.0E-06
     mixing beta               =       0.7000
     number of iterations used =            8  local-TF  mixing
     energy convergence thresh.=      1.0E-04
     force convergence thresh. =      1.0E-02
     Exchange-correlation= RVV10
                           (   1   4  13   4  26   0   0)
     nstep                     =          200


     celldm(1)=  17.870686  celldm(2)=   0.000000  celldm(3)=   0.000000
     celldm(4)=   0.000000  celldm(5)=   0.000000  celldm(6)=   0.000000

     crystal axes: (cart. coord. in units of alat)
               a(1) = (   1.000000   0.000000   0.000000 )  
               a(2) = (   0.000000   1.155671   0.000000 )  
               a(3) = (   0.000000   0.000000   2.643601 )  

     reciprocal axes: (cart. coord. in units 2 pi/alat)
               b(1) = (  1.000000  0.000000  0.000000 )  
               b(2) = (  0.000000  0.865298  0.000000 )  
               b(3) = (  0.000000  0.000000  0.378272 )  


     PseudoPot. # 1 for Mo read from file:
     ../pseudo/Mo_ONCV_PBE-1.0.oncvpsp.upf
     MD5 check sum: 1b5d28e075c9ccadda658a603575cd1f
     Pseudo is Norm-conserving, Zval = 14.0
     Generated using ONCVPSP code by D. R. Hamann
     Using radial grid of 1526 points,  6 beta functions with: 
                l(1) =   0
                l(2) =   0
                l(3) =   1
                l(4) =   1
                l(5) =   2
                l(6) =   2

     PseudoPot. # 2 for S  read from file:
     ../pseudo/s_pbe_v1.4.uspp.F.UPF
     MD5 check sum: 88d86576ff6df21479756cfb9bdac1df
     Pseudo is Ultrasoft + core correction, Zval =  6.0
     Generated by new atomic code, or converted to UPF format
     Using radial grid of  907 points,  6 beta functions with: 
                l(1) =   0
                l(2) =   0
                l(3) =   1
                l(4) =   1
                l(5) =   2
                l(6) =   2
     Q(r) pseudized with  8 coefficients,  rinner =    1.300   1.300   1.300
                                                       1.300   1.300

     PseudoPot. # 3 for O  read from file:
     ../pseudo/O.pbe-n-kjpaw_psl.0.1.UPF
     MD5 check sum: 0234752ac141de4415c5fc33072bef88
     Pseudo is Projector augmented-wave + core cor, Zval =  6.0
     Generated using "atomic" code by A. Dal Corso  v.5.0.99 svn rev. 10869
     Shape of augmentation charge: BESSEL
     Using radial grid of 1095 points,  4 beta functions with: 
                l(1) =   0
                l(2) =   0
                l(3) =   1
                l(4) =   1
     Q(r) pseudized with 0 coefficients 


     atomic species   valence    mass     pseudopotential
        Mo            14.00    95.94000     Mo( 1.00)
        S              6.00    32.06500     S ( 1.00)
        O              6.00    15.99940     O ( 1.00)

     No symmetry found



   Cartesian axes

     site n.     atom                  positions (alat units)
         1           Mo  tau(   1) = (   0.6952221   0.1890506   0.2985846  )
         2           S   tau(   2) = (   0.8646417   0.0856217   0.4689279  )
         3           S   tau(   3) = (   0.8663890   0.0857843   0.1351291  )
         4           Mo  tau(   4) = (   0.8560186   0.4753274   0.2873942  )
         5           S   tau(   5) = (   0.6873294   0.3936244   0.4596353  )
         6           S   tau(   6) = (   0.6929804   0.3713468   0.1185692  )
         7           Mo  tau(   7) = (   0.6862796   0.7633098   0.2825370  )
         8           S   tau(   8) = (   0.8545980   0.6708292   0.4486168  )
         9           S   tau(   9) = (   0.8545123   0.6666874   0.1146125  )
        10           Mo  tau(  10) = (   0.8629403   1.0471007   0.3006803  )
        11           S   tau(  11) = (   0.6868280   0.9456650   0.4634891  )
        12           S   tau(  12) = (   0.6998113   0.9568511   0.1205389  )
        13           Mo  tau(  13) = (   0.3618216   0.1847309   0.2935964  )
        14           S   tau(  14) = (   0.5260962   0.0863870   0.4600448  )
        15           S   tau(  15) = (   0.5348379   0.0894875   0.1297123  )
        16           Mo  tau(  16) = (   0.5265817   0.4772436   0.2784130  )
        17           S   tau(  17) = (   0.3624753   0.3882513   0.4525556  )
        18           S   tau(  18) = (   0.3635411   0.3752055   0.1119148  )
        19           Mo  tau(  19) = (   0.3652268   0.7630864   0.2781795  )
        20           S   tau(  20) = (   0.5269494   0.6690381   0.1096838  )
        21           Mo  tau(  21) = (   0.5300192   1.0470394   0.2900995  )
        22           S   tau(  22) = (   0.3670346   0.9457522   0.4574073  )
        23           S   tau(  23) = (   0.3604225   0.9585725   0.1159032  )
        24           Mo  tau(  24) = (   0.0313099   0.1847895   0.3013130  )
        25           S   tau(  25) = (   0.1956761   0.0838230   0.4650863  )
        26           S   tau(  26) = (   0.1967693   0.0903508   0.1278874  )
        27           Mo  tau(  27) = (   0.1967578   0.4753919   0.2813011  )
        28           S   tau(  28) = (   0.0287851   0.3864324   0.4586755  )
        29           S   tau(  29) = (   0.0244514   0.3729871   0.1239344  )
        30           Mo  tau(  30) = (   0.0286728   0.7631204   0.2856894  )
        31           S   tau(  31) = (   0.2011512   0.6675435   0.4465001  )
        32           S   tau(  32) = (   0.1969214   0.6672839   0.1104564  )
        33           Mo  tau(  33) = (   0.1950294   1.0511147   0.2932237  )
        34           S   tau(  34) = (   0.0312912   0.9612169   0.4667423  )
        35           S   tau(  35) = (   0.0292670   0.9563028   0.1216485  )
        36           O   tau(  36) = (   0.3333333   0.7704471   0.5792558  )

     number of k points=     1  Gaussian smearing, width (Ry)=  0.0100
                       cart. coord. in units 2pi/alat
        k(    1) = (   0.0000000   0.0000000   0.0000000), wk =   2.0000000

     Dense  grid:  2439793 G-vectors     FFT dimensions: ( 150, 180, 384)

     Smooth grid:   842757 G-vectors     FFT dimensions: ( 108, 120, 270)

     Estimated max dynamical RAM per process >     269.22 MB

     Estimated total dynamical RAM >      12.62 GB

     Initial potential from superposition of free atoms

     starting charge     311.9873, renormalised to     312.0000

     negative rho (up, down):  2.750E-04 0.000E+00


---------------------------------------------------------------------------------
Carrying out rVV10 run using the following parameters:
Nqs =      20    Nr_points =    1024   r_max =   100.000
b_value =  6.30000    beta =  0.00901
     q_mesh =  0.00010000  0.00030000  0.00058939  0.00100810
               0.00161396  0.00249058  0.00375900  0.00559430
               0.00824984  0.01209221  0.01765183  0.02569619
               0.03733578  0.05417739  0.07854596  0.11380545
               0.16482331  0.23864234  0.34545298  0.50000000

Gradients computed in Reciprocal space

---------------------------------------------------------------------------------


     Starting wfcs are  216 randomized atomic wfcs
     Checking if some PAW data can be deallocated... 

     total cpu time spent up to now is        6.0 secs

     Self-consistent Calculation

     iteration #  1     ecut=    80.00 Ry     beta= 0.70
     Davidson diagonalization with overlap
     ethr =  1.00E-02,  avg # of iterations =  2.0

     Threshold (ethr) on eigenvalues was too large:
     Diagonalizing with lowered threshold

     Davidson diagonalization with overlap
     ethr =  4.08E-04,  avg # of iterations =  4.0

     negative rho (up, down):  2.410E-08 0.000E+00

     total cpu time spent up to now is       24.6 secs

     total energy              =   -2246.19354064 Ry
     estimated scf accuracy    <       1.52987029 Ry

     iteration #  2     ecut=    80.00 Ry     beta= 0.70
     Davidson diagonalization with overlap
     ethr =  4.90E-04,  avg # of iterations =  3.0

     total cpu time spent up to now is       30.3 secs

     total energy              =   -2246.17668841 Ry
     estimated scf accuracy    <       1.14180816 Ry

     iteration #  3     ecut=    80.00 Ry     beta= 0.70
     Davidson diagonalization with overlap
     ethr =  3.66E-04,  avg # of iterations =  2.0

     total cpu time spent up to now is       34.4 secs

     total energy              =   -2246.16733645 Ry
     estimated scf accuracy    <       0.32350414 Ry

     iteration #  4     ecut=    80.00 Ry     beta= 0.70
     Davidson diagonalization with overlap
     ethr =  1.04E-04,  avg # of iterations =  2.0

     total cpu time spent up to now is       38.4 secs

     total energy              =   -2246.21965269 Ry
     estimated scf accuracy    <       0.03997424 Ry

     iteration #  5     ecut=    80.00 Ry     beta= 0.70
     Davidson diagonalization with overlap
     ethr =  1.28E-05,  avg # of iterations = 16.0

     total cpu time spent up to now is       43.0 secs

     total energy              =   -2246.22141604 Ry
     estimated scf accuracy    <       0.01824992 Ry

     iteration #  6     ecut=    80.00 Ry     beta= 0.70
     Davidson diagonalization with overlap
     ethr =  5.85E-06,  avg # of iterations =  2.0

     total cpu time spent up to now is       46.6 secs

     total energy              =   -2246.22129505 Ry
     estimated scf accuracy    <       0.01276298 Ry

     iteration #  7     ecut=    80.00 Ry     beta= 0.70
     Davidson diagonalization with overlap
     ethr =  4.09E-06,  avg # of iterations =  1.0

     total cpu time spent up to now is       50.1 secs

     total energy              =   -2246.22061988 Ry
     estimated scf accuracy    <       0.00906783 Ry

     iteration #  8     ecut=    80.00 Ry     beta= 0.70
     Davidson diagonalization with overlap
     ethr =  2.91E-06,  avg # of iterations =  1.0

     total cpu time spent up to now is       56.0 secs

     total energy              =   -2246.21926852 Ry
     estimated scf accuracy    <       0.00598203 Ry

     iteration #  9     ecut=    80.00 Ry     beta= 0.70
     Davidson diagonalization with overlap
     ethr =  1.92E-06,  avg # of iterations =  2.0

     negative rho (up, down):  1.032E-02 0.000E+00

     total cpu time spent up to now is       62.0 secs

     total energy              =   -2246.21894349 Ry
     estimated scf accuracy    <       0.00262340 Ry

     iteration # 10     ecut=    80.00 Ry     beta= 0.70
     Davidson diagonalization with overlap
     ethr =  8.41E-07,  avg # of iterations =  2.0

     negative rho (up, down):  1.957E-02 0.000E+00

     total cpu time spent up to now is       68.6 secs

     total energy              =   -2246.21879183 Ry
     estimated scf accuracy    <       0.00144058 Ry

     iteration # 11     ecut=    80.00 Ry     beta= 0.70
     Davidson diagonalization with overlap
     ethr =  4.62E-07,  avg # of iterations =  2.0

     negative rho (up, down):  1.990E-02 0.000E+00

     total cpu time spent up to now is       74.6 secs

     total energy              =   -2246.21890417 Ry
     estimated scf accuracy    <       0.00054371 Ry

     iteration # 12     ecut=    80.00 Ry     beta= 0.70
     Davidson diagonalization with overlap
     ethr =  1.74E-07,  avg # of iterations =  2.0

     negative rho (up, down):  7.626E-03 0.000E+00

     total cpu time spent up to now is       83.0 secs

     total energy              =   -2246.21887820 Ry
     estimated scf accuracy    <       0.00011954 Ry

     iteration # 13     ecut=    80.00 Ry     beta= 0.70
     Davidson diagonalization with overlap
     ethr =  3.83E-08,  avg # of iterations =  5.0

     negative rho (up, down):  2.315E-03 0.000E+00

     total cpu time spent up to now is       91.4 secs

     total energy              =   -2246.21893978 Ry
     estimated scf accuracy    <       0.00002375 Ry

     iteration # 14     ecut=    80.00 Ry     beta= 0.70
     Davidson diagonalization with overlap
     ethr =  7.61E-09,  avg # of iterations =  5.0

     negative rho (up, down):  7.773E-04 0.000E+00

     total cpu time spent up to now is      103.0 secs

     total energy              =   -2246.21894172 Ry
     estimated scf accuracy    <       0.00000901 Ry

     iteration # 15     ecut=    80.00 Ry     beta= 0.70
     Davidson diagonalization with overlap
     ethr =  2.89E-09,  avg # of iterations =  2.0

     negative rho (up, down):  4.951E-04 0.000E+00

     total cpu time spent up to now is      110.2 secs

     total energy              =   -2246.21895015 Ry
     estimated scf accuracy    <       0.00000460 Ry

     iteration # 16     ecut=    80.00 Ry     beta= 0.70
     Davidson diagonalization with overlap
     ethr =  1.47E-09,  avg # of iterations =  2.0

     negative rho (up, down):  3.719E-04 0.000E+00

     total cpu time spent up to now is      120.4 secs

     total energy              =   -2246.21895065 Ry
     estimated scf accuracy    <       0.00000160 Ry

     iteration # 17     ecut=    80.00 Ry     beta= 0.70
     Davidson diagonalization with overlap
     ethr =  5.13E-10,  avg # of iterations =  2.0

     negative rho (up, down):  1.866E-04 0.000E+00

     total cpu time spent up to now is      123.8 secs

     End of self-consistent calculation

          k = 0.0000 0.0000 0.0000 (105382 PWs)   bands (ev):

   -63.0079 -62.9955 -62.9910 -62.9803 -62.9719 -62.9581 -62.9531 -62.9523
   -62.9376 -62.9348 -62.8970 -62.8641 -37.3689 -37.3064 -37.2826 -37.2730
   -37.2657 -37.2401 -37.2149 -37.2078 -37.1989 -37.1871 -37.1845 -37.1704
   -37.1688 -37.1603 -37.1591 -37.1540 -37.1431 -37.1356 -37.1303 -37.1264
   -37.1133 -37.1063 -37.0946 -37.0694 -37.0634 -37.0479 -37.0469 -37.0421
   -37.0302 -37.0220 -37.0013 -36.9898 -36.9692 -36.9311 -36.8661 -36.8559
   -19.3742 -16.0665 -15.3963 -15.2457 -15.0794 -15.0247 -14.9055 -14.8042
   -14.5755 -14.5529 -14.5372 -14.5082 -14.4717 -14.4323 -14.3829 -14.3321
   -14.2469 -14.2306 -14.1936 -14.1623 -14.0177 -13.9810 -13.9560 -13.9311
    -7.8555  -7.6382  -7.6088  -7.4802  -7.4189  -7.3596  -7.3336  -7.2964
    -7.1432  -6.9666  -6.9494  -6.8749  -6.8526  -6.7348  -6.7222  -6.6318
    -6.5868  -6.5199  -6.3929  -6.3681  -6.1158  -6.0714  -6.0285  -5.9833
    -5.9324  -5.8856  -5.8422  -5.8202  -5.7945  -5.7818  -5.6784  -5.6581
    -5.6425  -5.5854  -5.5697  -5.3363  -5.2822  -5.2550  -5.1812  -5.1232
    -5.0869  -5.0501  -5.0175  -4.8551  -4.8441  -4.6589  -4.4497  -4.4351
    -4.3730  -4.3555  -4.2341  -4.1742  -4.1362  -4.0826  -3.9416  -3.8924
    -3.8637  -3.8265  -3.7156  -3.6955  -3.6590  -3.6223  -3.5858  -3.5633
    -3.5222  -3.5001  -3.3979  -3.3169  -3.2009  -3.0340  -3.0160  -2.9399
    -2.9149  -2.8966  -2.8630  -2.8154  -2.7757  -2.7277  -2.6925  -2.4096
    -2.1706  -2.1378  -1.9775  -1.5863  -1.4175  -0.8761  -0.7568  -0.3120
    -0.2625  -0.2126  -0.1495  -0.0869   0.0281   0.0632   0.1141   0.1396
     0.1602   0.2276   0.2960   0.3362   0.4023   0.4457   0.4703   0.4838
     0.5314   0.5865   0.6252   0.6591   0.6843   0.7286   0.7884   0.8121
     0.9149   0.9658   0.9907

     the Fermi energy is    -1.5019 ev

!    total energy              =   -2246.21894955 Ry
     estimated scf accuracy    <       0.00000034 Ry
     smearing contrib. (-TS)   =      -0.00767877 Ry
     internal energy E=F+TS    =   -2246.21127078 Ry

     The total energy is F=E-TS. E is the sum of the following terms:
     one-electron contribution =  -18419.98788844 Ry
     hartree contribution      =    9197.61638460 Ry
     xc contribution           =    -391.82480062 Ry
     ewald contribution        =    7377.86386583 Ry
     one-center paw contrib.   =      -9.87883215 Ry

     convergence has been achieved in  17 iterations

     negative rho (up, down):  1.866E-04 0.000E+00

     Forces acting on atoms (cartesian axes, Ry/au):

     atom    1 type  1   force =     0.01369358   -0.02459386    0.00401869
     atom    2 type  2   force =    -0.01438933    0.01666130    0.00120580
     atom    3 type  2   force =    -0.01106721    0.00862368   -0.00278665
     atom    4 type  1   force =     0.00464756    0.00432271    0.00144249
     atom    5 type  2   force =    -0.00053199   -0.00563893   -0.00572613
     atom    6 type  2   force =     0.00022900    0.01050123    0.00039236
     atom    7 type  1   force =     0.01204860   -0.02174464   -0.01389248
     atom    8 type  2   force =    -0.00097438   -0.00463314    0.01661125
     atom    9 type  2   force =     0.01001534    0.00611370    0.01145975
     atom   10 type  1   force =    -0.01461232    0.00915657   -0.02598664
     atom   11 type  2   force =     0.00652837   -0.00099634   -0.00575947
     atom   12 type  2   force =    -0.00252243   -0.00075738    0.00461763
     atom   13 type  1   force =     0.00375427    0.00055977   -0.00883655
     atom   14 type  2   force =     0.00681033    0.00003872    0.01482041
     atom   15 type  2   force =    -0.01115047    0.00192136   -0.00917589
     atom   16 type  1   force =     0.00718902    0.01181481    0.00139030
     atom   17 type  2   force =     0.00827769   -0.00143950    0.00327830
     atom   18 type  2   force =    -0.00450060   -0.00673140    0.01171868
     atom   19 type  1   force =     0.00036993   -0.00948030   -0.01595640
     atom   20 type  2   force =     0.00461006   -0.00492901    0.00242892
     atom   21 type  1   force =     0.00247333    0.01621722   -0.01036397
     atom   22 type  2   force =    -0.01188094   -0.01594011    0.01736757
     atom   23 type  2   force =     0.00091372    0.00038834    0.00966281
     atom   24 type  1   force =    -0.01071257   -0.00295839   -0.02039979
     atom   25 type  2   force =     0.01661094    0.02049695    0.00834179
     atom   26 type  2   force =    -0.00945589    0.00250735   -0.00498455
     atom   27 type  1   force =     0.00282428   -0.00837920    0.00257936
     atom   28 type  2   force =    -0.00048548   -0.00190227   -0.00467223
     atom   29 type  2   force =     0.00374014   -0.00093479   -0.00282135
     atom   30 type  1   force =    -0.00153478    0.02493243    0.00365091
     atom   31 type  2   force =     0.02227845    0.02341444    0.04563563
     atom   32 type  2   force =    -0.00752195    0.00588937    0.00882132
     atom   33 type  1   force =     0.00603412   -0.01573735   -0.00266247
     atom   34 type  2   force =     0.00150071   -0.04050665   -0.00883127
     atom   35 type  2   force =    -0.00460491    0.00632443    0.01203879
     atom   36 type  3   force =    -0.02860416   -0.00258110   -0.03862689
     The non-local contrib.  to forces
     atom    1 type  1   force =     0.00012889    0.03274340   -0.00953051
     atom    2 type  2   force =    -0.00957098    0.00130835   -0.27375117
     atom    3 type  2   force =    -0.01318827   -0.00264883    0.26834595
     atom    4 type  1   force =    -0.00551470    0.00440209    0.00694712
     atom    5 type  2   force =     0.00564933   -0.03029634   -0.25691519
     atom    6 type  2   force =    -0.00231009    0.01265623    0.26341346
     atom    7 type  1   force =    -0.02659096    0.00604073   -0.01885562
     atom    8 type  2   force =     0.00114200   -0.00731991   -0.25603964
     atom    9 type  2   force =     0.00775839   -0.00650793    0.27842808
     atom   10 type  1   force =     0.00253191    0.00781571   -0.00000440
     atom   11 type  2   force =     0.01661316    0.00634759   -0.25925735
     atom   12 type  2   force =    -0.01070206   -0.01881764    0.26388795
     atom   13 type  1   force =     0.00716803    0.02735504   -0.00930203
     atom   14 type  2   force =     0.00887252   -0.00878973   -0.26391955
     atom   15 type  2   force =    -0.01418986   -0.00568142    0.26210176
     atom   16 type  1   force =    -0.00313654    0.03253060   -0.02582365
     atom   17 type  2   force =     0.00225614   -0.03253459   -0.24966229
     atom   18 type  2   force =    -0.00402340   -0.00192361    0.27472633
     atom   19 type  1   force =     0.01279738   -0.00187433   -0.00664058
     atom   20 type  2   force =    -0.00061246   -0.02083396    0.26724960
     atom   21 type  1   force =    -0.00390621    0.00762639    0.01255904
     atom   22 type  2   force =    -0.04054413   -0.20822483   -0.09128318
     atom   23 type  2   force =     0.00506158   -0.01990483    0.27110415
     atom   24 type  1   force =     0.00244077    0.01228708   -0.00930655
     atom   25 type  2   force =     0.00884872    0.00538623   -0.26247715
     atom   26 type  2   force =    -0.00361811   -0.01236611    0.26299855
     atom   27 type  1   force =    -0.00745486    0.01971810    0.00539360
     atom   28 type  2   force =    -0.00283990   -0.02585762   -0.27453769
     atom   29 type  2   force =     0.00775372    0.00028166    0.26450843
     atom   30 type  1   force =    -0.00689772   -0.00481039    0.00132771
     atom   31 type  2   force =     0.18696274    0.13948510   -0.01475323
     atom   32 type  2   force =    -0.00105599   -0.00624967    0.27656597
     atom   33 type  1   force =     0.00742757    0.01935152    0.00065455
     atom   34 type  2   force =    -0.00412021   -0.03621154   -0.27662484
     atom   35 type  2   force =     0.00137113   -0.01026807    0.26670967
     atom   36 type  3   force =    -0.24927644    0.07689512   -0.53067780
     The ionic contribution  to forces
     atom    1 type  1   force =     0.59707248    0.23774926    4.75311707
     atom    2 type  2   force =    -0.70354235    0.58623991   39.09111517
     atom    3 type  2   force =    -0.17890880    0.08964989  -36.56309708
     atom    4 type  1   force =     0.00473070    0.00071307   -0.54366262
     atom    5 type  2   force =    -0.70356826    1.08901720   38.47605905
     atom    6 type  2   force =     0.41099015   -0.62178562  -38.55305164
     atom    7 type  1   force =    -1.54195300   -2.80919045    0.52325688
     atom    8 type  2   force =    -1.10602848   -0.19281765   36.97913077
     atom    9 type  2   force =     0.31852759   -0.10984071  -38.65308277
     atom   10 type  1   force =    -1.22865661    0.30171201    4.44320353
     atom   11 type  2   force =     0.17764487   -1.06742846   38.67556736
     atom   12 type  2   force =     0.56331411    0.83194466  -38.51883029
     atom   13 type  1   force =     0.53308709    1.03192510    1.66918168
     atom   14 type  2   force =     0.28026051    0.36411507   38.23917461
     atom   15 type  2   force =     0.22945026    0.04155005  -37.34928354
     atom   16 type  1   force =     0.69731798    2.73855112   -1.45154545
     atom   17 type  2   force =     0.89441459    0.48745094   37.42581960
     atom   18 type  2   force =    -0.14375195   -0.83940261  -39.21073291
     atom   19 type  1   force =     3.25998975   -2.57038625   -5.28428522
     atom   20 type  2   force =     0.42051292   -0.32380134  -39.39388216
     atom   21 type  1   force =     0.87789037    1.36927840   -0.86682802
     atom   22 type  2   force =     1.17921214    2.09155198   35.66327131
     atom   23 type  2   force =    -0.05380572    0.92192715  -39.25887192
     atom   24 type  1   force =    -0.81764677    1.16682539    4.85752117
     atom   25 type  2   force =     0.46683008    0.72347782   38.97933792
     atom   26 type  2   force =    -0.34591008    0.17880051  -37.89633229
     atom   27 type  1   force =    -0.60018203   -1.02170927   -4.39346045
     atom   28 type  2   force =    -0.26583049    0.53497273   37.91061859
     atom   29 type  2   force =    -0.34859277   -0.56496512  -37.81379287
     atom   30 type  1   force =    -1.77241810   -0.94290989   -2.45582622
     atom   31 type  2   force =    -1.69190762   -2.37382560   34.20761193
     atom   32 type  2   force =    -0.64264782   -0.15133499  -39.62722037
     atom   33 type  1   force =     0.06314818    0.72345616   -0.20289349
     atom   34 type  2   force =    -0.73537097   -0.68394274   38.79967204
     atom   35 type  2   force =    -0.46132653    0.63898286  -38.53635848
     atom   36 type  3   force =     2.36765456   -1.87655060   45.87937911
     The local contribution  to forces
     atom    1 type  1   force =    -0.58349313   -0.29510202   -4.74005917
     atom    2 type  2   force =     0.69851369   -0.57081635  -38.83732986
     atom    3 type  2   force =     0.18045977   -0.07844837   36.31250551
     atom    4 type  1   force =     0.00545728   -0.00074857    0.53765240
     atom    5 type  2   force =     0.69805897   -1.06610932  -38.24570097
     atom    6 type  2   force =    -0.40872375    0.62080901   38.31065493
     atom    7 type  1   force =     1.58049876    2.78132807   -0.51878408
     atom    8 type  2   force =     1.10400577    0.19485919  -36.72730570
     atom    9 type  2   force =    -0.31605277    0.12209290   38.40698655
     atom   10 type  1   force =     1.21144795   -0.30047280   -4.46969701
     atom   11 type  2   force =    -0.18693147    1.06067697  -38.44305731
     atom   12 type  2   force =    -0.55616864   -0.81539264   38.28017187
     atom   13 type  1   force =    -0.53649842   -1.05868920   -1.66921002
     atom   14 type  2   force =    -0.28188425   -0.35530097  -37.98138270
     atom   15 type  2   force =    -0.22720050   -0.03431680   37.09834321
     atom   16 type  1   force =    -0.68694745   -2.75902821    1.47815817
     atom   17 type  2   force =    -0.88847163   -0.45812283  -37.19344093
     atom   18 type  2   force =     0.14318039    0.83516115   38.96849063
     atom   19 type  1   force =    -3.27224227    2.56273989    5.27430448
     atom   20 type  2   force =    -0.41545709    0.33894794   39.15014387
     atom   21 type  1   force =    -0.87152066   -1.36076846    0.84333443
     atom   22 type  2   force =    -1.15230862   -1.90897857  -35.56739899
     atom   23 type  2   force =     0.05010963   -0.90321701   39.01821782
     atom   24 type  1   force =     0.80449137   -1.18199604   -4.86911344
     atom   25 type  2   force =    -0.45897774   -0.70791221  -38.72960040
     atom   26 type  2   force =     0.34018816   -0.16463085   37.64896028
     atom   27 type  1   force =     0.61034245    0.99367791    4.39008706
     atom   28 type  2   force =     0.26799497   -0.51283824  -37.66200200
     atom   29 type  2   force =     0.34518537    0.56432347   37.56684189
     atom   30 type  1   force =     1.77772168    0.97255163    2.45759533
     atom   31 type  2   force =     1.53625593    2.26453602  -34.15643083
     atom   32 type  2   force =     0.63642289    0.16311133   39.38045007
     atom   33 type  1   force =    -0.06448333   -0.75853693    0.19894937
     atom   34 type  2   force =     0.74038115    0.67849126  -38.55353912
     atom   35 type  2   force =     0.45566527   -0.62338416   38.30231081
     atom   36 type  3   force =    -2.14959267    1.79775591  -45.39297185
     The core correction contribution to forces
     atom    1 type  1   force =     0.00000000    0.00000000    0.00000000
     atom    2 type  2   force =     0.00019986   -0.00007835    0.02093394
     atom    3 type  2   force =     0.00055989    0.00005772   -0.02080740
     atom    4 type  1   force =     0.00000000    0.00000000    0.00000000
     atom    5 type  2   force =    -0.00062559    0.00175622    0.02060853
     atom    6 type  2   force =     0.00030614   -0.00117065   -0.02089347
     atom    7 type  1   force =     0.00000000    0.00000000    0.00000000
     atom    8 type  2   force =    -0.00010642    0.00067191    0.02055732
     atom    9 type  2   force =    -0.00020624    0.00038175   -0.02108402
     atom   10 type  1   force =     0.00000000    0.00000000    0.00000000
     atom   11 type  2   force =    -0.00076489   -0.00062614    0.02073269
     atom   12 type  2   force =     0.00102330    0.00148460   -0.02086509
     atom   13 type  1   force =     0.00000000    0.00000000    0.00000000
     atom   14 type  2   force =    -0.00043440    0.00001924    0.02070738
     atom   15 type  2   force =     0.00078019    0.00034883   -0.02061731
     atom   16 type  1   force =     0.00000000    0.00000000    0.00000000
     atom   17 type  2   force =     0.00004770    0.00172018    0.02035060
     atom   18 type  2   force =     0.00007408   -0.00056809   -0.02106036
     atom   19 type  1   force =     0.00000000    0.00000000    0.00000000
     atom   20 type  2   force =     0.00013400    0.00082336   -0.02126368
     atom   21 type  1   force =     0.00000000    0.00000000    0.00000000
     atom   22 type  2   force =     0.00180224    0.00971753    0.01244396
     atom   23 type  2   force =    -0.00044265    0.00153272   -0.02105910
     atom   24 type  1   force =     0.00000000    0.00000000    0.00000000
     atom   25 type  2   force =    -0.00008613   -0.00042613    0.02085368
     atom   26 type  2   force =    -0.00011273    0.00068239   -0.02087899
     atom   27 type  1   force =     0.00000000    0.00000000    0.00000000
     atom   28 type  2   force =     0.00017453    0.00184616    0.02099631
     atom   29 type  2   force =    -0.00060892   -0.00054928   -0.02062466
     atom   30 type  1   force =     0.00000000    0.00000000    0.00000000
     atom   31 type  2   force =    -0.00907907   -0.00680024    0.00885821
     atom   32 type  2   force =    -0.00023257    0.00040215   -0.02120444
     atom   33 type  1   force =     0.00000000    0.00000000    0.00000000
     atom   34 type  2   force =     0.00054798    0.00112889    0.02143604
     atom   35 type  2   force =    -0.00031313    0.00095737   -0.02090135
     atom   36 type  3   force =     0.00260085   -0.00066177    0.00518994
     The Hubbard contrib.    to forces
     atom    1 type  1   force =     0.00000000    0.00000000    0.00000000
     atom    2 type  2   force =     0.00000000    0.00000000    0.00000000
     atom    3 type  2   force =     0.00000000    0.00000000    0.00000000
     atom    4 type  1   force =     0.00000000    0.00000000    0.00000000
     atom    5 type  2   force =     0.00000000    0.00000000    0.00000000
     atom    6 type  2   force =     0.00000000    0.00000000    0.00000000
     atom    7 type  1   force =     0.00000000    0.00000000    0.00000000
     atom    8 type  2   force =     0.00000000    0.00000000    0.00000000
     atom    9 type  2   force =     0.00000000    0.00000000    0.00000000
     atom   10 type  1   force =     0.00000000    0.00000000    0.00000000
     atom   11 type  2   force =     0.00000000    0.00000000    0.00000000
     atom   12 type  2   force =     0.00000000    0.00000000    0.00000000
     atom   13 type  1   force =     0.00000000    0.00000000    0.00000000
     atom   14 type  2   force =     0.00000000    0.00000000    0.00000000
     atom   15 type  2   force =     0.00000000    0.00000000    0.00000000
     atom   16 type  1   force =     0.00000000    0.00000000    0.00000000
     atom   17 type  2   force =     0.00000000    0.00000000    0.00000000
     atom   18 type  2   force =     0.00000000    0.00000000    0.00000000
     atom   19 type  1   force =     0.00000000    0.00000000    0.00000000
     atom   20 type  2   force =     0.00000000    0.00000000    0.00000000
     atom   21 type  1   force =     0.00000000    0.00000000    0.00000000
     atom   22 type  2   force =     0.00000000    0.00000000    0.00000000
     atom   23 type  2   force =     0.00000000    0.00000000    0.00000000
     atom   24 type  1   force =     0.00000000    0.00000000    0.00000000
     atom   25 type  2   force =     0.00000000    0.00000000    0.00000000
     atom   26 type  2   force =     0.00000000    0.00000000    0.00000000
     atom   27 type  1   force =     0.00000000    0.00000000    0.00000000
     atom   28 type  2   force =     0.00000000    0.00000000    0.00000000
     atom   29 type  2   force =     0.00000000    0.00000000    0.00000000
     atom   30 type  1   force =     0.00000000    0.00000000    0.00000000
     atom   31 type  2   force =     0.00000000    0.00000000    0.00000000
     atom   32 type  2   force =     0.00000000    0.00000000    0.00000000
     atom   33 type  1   force =     0.00000000    0.00000000    0.00000000
     atom   34 type  2   force =     0.00000000    0.00000000    0.00000000
     atom   35 type  2   force =     0.00000000    0.00000000    0.00000000
     atom   36 type  3   force =     0.00000000    0.00000000    0.00000000
     The SCF correction term to forces
     atom    1 type  1   force =    -0.00001553    0.00001506    0.00046962
     atom    2 type  2   force =     0.00000956    0.00000731    0.00021604
     atom    3 type  2   force =     0.00000932    0.00001284    0.00024469
     atom    4 type  1   force =    -0.00002660   -0.00004432    0.00048390
     atom    5 type  2   force =    -0.00004732   -0.00000712    0.00020079
     atom    6 type  2   force =    -0.00003432   -0.00000817    0.00024740
     atom    7 type  1   force =     0.00009292    0.00007658    0.00046867
     atom    8 type  2   force =     0.00001188   -0.00002712    0.00024683
     atom    9 type  2   force =    -0.00001250   -0.00001274    0.00019024
     atom   10 type  1   force =     0.00006357    0.00010122    0.00048957
     atom   11 type  2   force =    -0.00003416    0.00003327    0.00023346
     atom   12 type  2   force =     0.00001000    0.00002322    0.00023152
     atom   13 type  1   force =    -0.00000331   -0.00003159    0.00047215
     atom   14 type  2   force =    -0.00000491   -0.00000532    0.00021899
     atom   15 type  2   force =     0.00000857    0.00002026    0.00025831
     atom   16 type  1   force =    -0.00004585   -0.00023912    0.00057955
     atom   17 type  2   force =     0.00003001    0.00004638    0.00018965
     atom   18 type  2   force =     0.00001941    0.00000134    0.00027332
     atom   19 type  1   force =    -0.00017580    0.00003996    0.00064325
     atom   20 type  2   force =     0.00003182   -0.00006544    0.00015962
     atom   21 type  1   force =     0.00000895    0.00008046    0.00054892
     atom   22 type  2   force =    -0.00004344   -0.00000665    0.00031279
     atom   23 type  2   force =    -0.00001000    0.00004988    0.00025018
     atom   24 type  1   force =     0.00000119   -0.00007525    0.00047737
     atom   25 type  2   force =    -0.00000486   -0.00002918    0.00020606
     atom   26 type  2   force =    -0.00000402    0.00002098    0.00024622
     atom   27 type  1   force =     0.00011785   -0.00006636    0.00053747
     atom   28 type  2   force =     0.00001453   -0.00002573    0.00023089
     atom   29 type  2   force =     0.00000186   -0.00002595    0.00022419
     atom   30 type  1   force =     0.00005848    0.00010064    0.00053240
     atom   31 type  2   force =     0.00004561    0.00001874    0.00032787
     atom   32 type  2   force =    -0.00000933   -0.00003988    0.00020842
     atom   33 type  1   force =    -0.00005917   -0.00000854    0.00060541
     atom   34 type  2   force =     0.00006188    0.00002705    0.00020294
     atom   35 type  2   force =    -0.00000252    0.00003601    0.00025647
     atom   36 type  3   force =     0.00000866   -0.00002020    0.00043204

     Total force =     0.129665     Total SCF correction =     0.002245

     BFGS Geometry Optimization
     Energy error            =      0.0E+00 Ry
     Gradient error          =      4.6E-02 Ry/Bohr

     number of scf cycles    =   1
     number of bfgs steps    =   0

     energy             new  =   -2246.2189495465 Ry

     new trust radius        =       0.0559211573 bohr
     new conv_thr            =       0.0000010000 Ry


ATOMIC_POSITIONS (angstrom)
Mo            6.5817947381        1.7747917201        2.8257696328
S             8.1690948316        0.8185208036        4.4351764339
S             8.1873765728        0.8158051995        1.2764087920
Mo            8.0976219491        4.4973444220        2.7185817249
S             6.4996277373        3.7194274935        4.3436305121
S             6.5534709802        3.5172945680        1.1214878548
Mo            6.4963575390        7.2069305159        2.6645329009
S             8.0812121102        6.3414192380        4.2512518594
S             8.0862175367        6.3079375483        1.0899272386
Mo            8.1528865402        9.9070258633        2.8297102209
S             6.4986222606        8.9423995715        4.3800577516
S             6.6166123892        9.0483104237        1.1423508452
Mo            3.4236463372        1.7472520706        2.7717950605
S             4.9787693633        0.8169616985        4.3583757145
S             5.0519331792        0.8472788481        1.2218027877
Mo            4.9835609445        4.5194301321        2.6336202644
S             3.4322220259        3.6708379355        4.2814443829
S             3.4355389681        3.5446665964        1.0645529408
Mo            3.4540574972        7.2113077788        2.6222330991
S             4.9856737332        6.3243239659        1.0385390618
Mo            5.0135727483        9.9101818325        2.7379165819
S             3.4646709928        8.9353161245        4.3347818336
S             3.4089126850        9.0651954844        1.1011816374
Mo            0.2904216379        1.7459440198        2.8386496044
S             1.8592523410        0.8035405265        4.4026237224
S             1.8557961904        0.8557527498        1.2067631415
Mo            1.8621858543        4.4912326807        2.6615623190
S             0.2719569431        3.6533921904        4.3351116631
S             0.2332104023        3.5267545552        1.1705248894
Mo            0.2703399812        7.2298397654        2.7036284048
S             1.9140274957        6.3251892233        4.2465934552
S             1.8582577710        6.3134603309        1.0492273247
Mo            1.8475397799        9.9318113040        2.7715373308
S             0.2967070390        9.0685626304        4.4091961594
S             0.2743345853        9.0468724607        1.1567714351
O             3.1371166646        7.2845674721        5.4574429553



     Writing config-only to output data dir ./MoS2-V-O.save/
     NEW-OLD atomic charge density approx. for the potential

     negative rho (up, down):  1.886E-04 0.000E+00

     total cpu time spent up to now is      131.0 secs

     Self-consistent Calculation

     iteration #  1     ecut=    80.00 Ry     beta= 0.70
     Davidson diagonalization with overlap
     ethr =  1.00E-06,  avg # of iterations = 10.0

     negative rho (up, down):  1.407E-04 0.000E+00

     total cpu time spent up to now is      142.2 secs

     total energy              =   -2246.23318634 Ry
     estimated scf accuracy    <       0.00342925 Ry

     iteration #  2     ecut=    80.00 Ry     beta= 0.70
     Davidson diagonalization with overlap
     ethr =  1.10E-06,  avg # of iterations =  2.0

     negative rho (up, down):  1.142E-04 0.000E+00

     total cpu time spent up to now is      155.6 secs

     total energy              =   -2246.23335417 Ry
     estimated scf accuracy    <       0.00057080 Ry

     iteration #  3     ecut=    80.00 Ry     beta= 0.70
     Davidson diagonalization with overlap
     ethr =  1.83E-07,  avg # of iterations =  5.0

     negative rho (up, down):  9.858E-05 0.000E+00

     total cpu time spent up to now is      174.5 secs

     total energy              =   -2246.23338024 Ry
     estimated scf accuracy    <       0.00013738 Ry

     iteration #  4     ecut=    80.00 Ry     beta= 0.70
     Davidson diagonalization with overlap
     ethr =  4.40E-08,  avg # of iterations =  5.0

     negative rho (up, down):  9.120E-05 0.000E+00

     total cpu time spent up to now is      190.4 secs

     total energy              =   -2246.23340275 Ry
     estimated scf accuracy    <       0.00002224 Ry

     iteration #  5     ecut=    80.00 Ry     beta= 0.70
     Davidson diagonalization with overlap
     ethr =  7.13E-09,  avg # of iterations =  6.0

     negative rho (up, down):  8.657E-05 0.000E+00

     total cpu time spent up to now is      205.7 secs

     total energy              =   -2246.23340734 Ry
     estimated scf accuracy    <       0.00000589 Ry

     iteration #  6     ecut=    80.00 Ry     beta= 0.70
     Davidson diagonalization with overlap
     ethr =  1.89E-09,  avg # of iterations =  5.0

     negative rho (up, down):  8.192E-05 0.000E+00

     total cpu time spent up to now is      219.5 secs

     total energy              =   -2246.23340762 Ry
     estimated scf accuracy    <       0.00000365 Ry

     iteration #  7     ecut=    80.00 Ry     beta= 0.70
     Davidson diagonalization with overlap
     ethr =  1.17E-09,  avg # of iterations =  2.0

     negative rho (up, down):  1.901E-04 0.000E+00

     total cpu time spent up to now is      222.8 secs

     End of self-consistent calculation

          k = 0.0000 0.0000 0.0000 (105382 PWs)   bands (ev):

   -63.0053 -62.9920 -62.9879 -62.9777 -62.9692 -62.9478 -62.9439 -62.9403
   -62.9253 -62.9207 -62.8851 -62.8527 -37.3601 -37.3013 -37.2731 -37.2642
   -37.2530 -37.2337 -37.2090 -37.2004 -37.1911 -37.1829 -37.1822 -37.1642
   -37.1618 -37.1571 -37.1516 -37.1409 -37.1340 -37.1288 -37.1223 -37.1122
   -37.0975 -37.0955 -37.0872 -37.0619 -37.0531 -37.0416 -37.0380 -37.0309
   -37.0194 -37.0133 -36.9917 -36.9827 -36.9569 -36.9235 -36.8570 -36.8469
   -19.6719 -16.0554 -15.3854 -15.2428 -15.0627 -15.0179 -14.8945 -14.8099
   -14.5575 -14.5494 -14.5295 -14.5058 -14.4641 -14.4241 -14.3703 -14.3233
   -14.2426 -14.2271 -14.1701 -14.1598 -13.9943 -13.9775 -13.9577 -13.9285
    -7.8756  -7.7034  -7.6091  -7.4820  -7.4017  -7.3590  -7.3282  -7.3025
    -7.1664  -6.9641  -6.9427  -6.8664  -6.8524  -6.7539  -6.7268  -6.6265
    -6.5782  -6.5062  -6.3882  -6.3629  -6.1201  -6.0673  -6.0182  -5.9672
    -5.9307  -5.8836  -5.8352  -5.8216  -5.7889  -5.7787  -5.6705  -5.6559
    -5.6399  -5.5685  -5.5474  -5.3262  -5.2746  -5.2428  -5.1716  -5.1292
    -5.0808  -5.0536  -5.0182  -4.8677  -4.8428  -4.6516  -4.4431  -4.4281
    -4.3671  -4.3609  -4.2442  -4.2047  -4.1380  -4.1073  -3.9345  -3.8787
    -3.8594  -3.8167  -3.7194  -3.7002  -3.6466  -3.6223  -3.5793  -3.5593
    -3.5202  -3.4934  -3.4000  -3.3297  -3.1809  -3.0207  -2.9946  -2.9308
    -2.9036  -2.9023  -2.8722  -2.8083  -2.7667  -2.7226  -2.6942  -2.3919
    -2.1876  -2.1259  -1.9879  -1.5845  -1.3788  -0.8397  -0.7633  -0.2956
    -0.2603  -0.2089  -0.1244  -0.0735   0.0312   0.0791   0.1143   0.1542
     0.1888   0.2445   0.3043   0.3444   0.4187   0.4586   0.4757   0.4877
     0.5344   0.6058   0.6236   0.6733   0.6856   0.7362   0.8070   0.8301
     0.9115   0.9616   0.9983

     the Fermi energy is    -1.4817 ev

!    total energy              =   -2246.23340763 Ry
     estimated scf accuracy    <       0.00000090 Ry
     smearing contrib. (-TS)   =      -0.00637194 Ry
     internal energy E=F+TS    =   -2246.22703569 Ry

     The total energy is F=E-TS. E is the sum of the following terms:
     one-electron contribution =  -18421.48594577 Ry
     hartree contribution      =    9198.42715294 Ry
     xc contribution           =    -391.83135851 Ry
     ewald contribution        =    7378.54161295 Ry
     one-center paw contrib.   =      -9.87849730 Ry

     convergence has been achieved in   7 iterations

     negative rho (up, down):  1.901E-04 0.000E+00

     Forces acting on atoms (cartesian axes, Ry/au):

     atom    1 type  1   force =     0.00304848   -0.01194437   -0.00045723
     atom    2 type  2   force =    -0.00901939    0.01044999   -0.00100547
     atom    3 type  2   force =    -0.00985095    0.00689549   -0.00882050
     atom    4 type  1   force =     0.00572989    0.00270876    0.00262150
     atom    5 type  2   force =     0.00105717   -0.00570862   -0.00524473
     atom    6 type  2   force =     0.00080000    0.00679199    0.00227630
     atom    7 type  1   force =     0.00762724   -0.01437894   -0.00340194
     atom    8 type  2   force =     0.00042586   -0.00395065    0.01230704
     atom    9 type  2   force =     0.01140238    0.00519406    0.00664071
     atom   10 type  1   force =    -0.00549966    0.00687624   -0.00948872
     atom   11 type  2   force =     0.00457967   -0.00137586   -0.01044968
     atom   12 type  2   force =    -0.00355085   -0.00157050   -0.00043210
     atom   13 type  1   force =     0.00461382    0.00014677   -0.00296679
     atom   14 type  2   force =     0.00483212   -0.00051515    0.00965062
     atom   15 type  2   force =    -0.00705885    0.00265459   -0.00894045
     atom   16 type  1   force =     0.00480981    0.00707923    0.00266962
     atom   17 type  2   force =     0.00809618   -0.00144855    0.00175383
     atom   18 type  2   force =    -0.00270825   -0.00447663    0.00900530
     atom   19 type  1   force =     0.00093344   -0.00345494   -0.01243511
     atom   20 type  2   force =     0.00471934   -0.00494580   -0.00292563
     atom   21 type  1   force =    -0.00292225    0.00921851   -0.00027814
     atom   22 type  2   force =    -0.00324191   -0.01163158    0.00483598
     atom   23 type  2   force =     0.00148661    0.00018214    0.00522830
     atom   24 type  1   force =    -0.00672461   -0.00234024   -0.00845220
     atom   25 type  2   force =     0.01121285    0.01471356    0.00070861
     atom   26 type  2   force =    -0.00703026   -0.00018957   -0.00458107
     atom   27 type  1   force =     0.00273019   -0.00166371    0.00935516
     atom   28 type  2   force =    -0.00002831   -0.00283422   -0.00585492
     atom   29 type  2   force =     0.00303669    0.00071191   -0.00391379
     atom   30 type  1   force =     0.00182845    0.01390429    0.01112165
     atom   31 type  2   force =     0.02538459    0.02198081    0.03814447
     atom   32 type  2   force =    -0.00814715    0.00431903    0.00729262
     atom   33 type  1   force =     0.00226971   -0.00841366    0.00492602
     atom   34 type  2   force =    -0.00292945   -0.02798816   -0.01138026
     atom   35 type  2   force =    -0.00381744    0.00736061    0.00545892
     atom   36 type  3   force =    -0.03809520   -0.01235681   -0.03296794
     The non-local contrib.  to forces
     atom    1 type  1   force =     0.00191590    0.02875837   -0.01005698
     atom    2 type  2   force =    -0.00605945   -0.00298445   -0.27322383
     atom    3 type  2   force =    -0.01084804   -0.00465865    0.26298155
     atom    4 type  1   force =    -0.00628974    0.00601372    0.00628944
     atom    5 type  2   force =     0.00677364   -0.03064834   -0.25788290
     atom    6 type  2   force =    -0.00155962    0.00927977    0.26524196
     atom    7 type  1   force =    -0.02743222    0.00596960   -0.02031134
     atom    8 type  2   force =     0.00317687   -0.00683717   -0.25850108
     atom    9 type  2   force =     0.00852015   -0.00713468    0.27559214
     atom   10 type  1   force =     0.00067699    0.00882692   -0.00062055
     atom   11 type  2   force =     0.01449944    0.00542437   -0.26154615
     atom   12 type  2   force =    -0.01071647   -0.02072781    0.26189650
     atom   13 type  1   force =     0.00856053    0.02769869   -0.00960428
     atom   14 type  2   force =     0.00717687   -0.00808493   -0.26596689
     atom   15 type  2   force =    -0.01130001   -0.00520366    0.26135584
     atom   16 type  1   force =    -0.00409529    0.03535737   -0.02699914
     atom   17 type  2   force =     0.00216726   -0.03155886   -0.25067001
     atom   18 type  2   force =    -0.00258777   -0.00041944    0.27410111
     atom   19 type  1   force =     0.01392233   -0.00040808   -0.00553933
     atom   20 type  2   force =    -0.00067892   -0.01974706    0.26368223
     atom   21 type  1   force =    -0.00368179    0.00864084    0.01157901
     atom   22 type  2   force =    -0.04041480   -0.20830211   -0.09310075
     atom   23 type  2   force =     0.00623122   -0.02026081    0.26878354
     atom   24 type  1   force =     0.00045759    0.01293019   -0.00840361
     atom   25 type  2   force =     0.00456306   -0.00002392   -0.26709640
     atom   26 type  2   force =    -0.00194369   -0.01425353    0.26373867
     atom   27 type  1   force =    -0.00801928    0.01746642    0.00257225
     atom   28 type  2   force =    -0.00290159   -0.02585457   -0.27501230
     atom   29 type  2   force =     0.00733678   -0.00029926    0.26498367
     atom   30 type  1   force =    -0.00874021   -0.00356212   -0.00046876
     atom   31 type  2   force =     0.21293800    0.15774783    0.00970460
     atom   32 type  2   force =    -0.00122393   -0.00783919    0.27600542
     atom   33 type  1   force =     0.00976380    0.01822456   -0.00147302
     atom   34 type  2   force =    -0.00757022   -0.02732564   -0.27869432
     atom   35 type  2   force =     0.00038573   -0.00866052    0.26235918
     atom   36 type  3   force =    -0.33298226    0.01748648   -0.56221654
     The ionic contribution  to forces
     atom    1 type  1   force =     0.32215464    0.60531468    4.84462331
     atom    2 type  2   force =    -0.51489565    0.46924350   39.18536692
     atom    3 type  2   force =    -0.14272690    0.11824738  -36.69022984
     atom    4 type  1   force =     0.08617744   -0.06852081   -0.44567796
     atom    5 type  2   force =    -0.71232654    1.05235291   38.41193941
     atom    6 type  2   force =     0.38618087   -0.68329643  -38.47548369
     atom    7 type  1   force =    -1.68956684   -2.49487107    0.36275384
     atom    8 type  2   force =    -1.08969270   -0.18870368   37.10031582
     atom    9 type  2   force =     0.40593431   -0.16107725  -38.63781277
     atom   10 type  1   force =    -1.00857091    0.27364882    4.11748821
     atom   11 type  2   force =     0.12616644   -1.11373105   38.59476628
     atom   12 type  2   force =     0.48175825    0.74793365  -38.50046482
     atom   13 type  1   force =     0.48622658    0.98434286    1.57449126
     atom   14 type  2   force =     0.18866841    0.36692268   38.34016695
     atom   15 type  2   force =     0.22520370    0.12884054  -37.42419668
     atom   16 type  1   force =     0.61904229    2.50128001   -1.32632708
     atom   17 type  2   force =     0.88990050    0.46256948   37.42180213
     atom   18 type  2   force =    -0.10705009   -0.79343883  -39.13240055
     atom   19 type  1   force =     3.31706641   -2.49090244   -5.65737558
     atom   20 type  2   force =     0.38374165   -0.31283147  -39.44791707
     atom   21 type  1   force =     0.70464738    1.09484032   -0.86552081
     atom   22 type  2   force =     1.35607996    2.24138636   35.66427930
     atom   23 type  2   force =    -0.02895721    0.92087614  -39.20464853
     atom   24 type  1   force =    -0.56075037    1.04650053    4.57586949
     atom   25 type  2   force =     0.36692546    0.66792539   38.93005882
     atom   26 type  2   force =    -0.31001394    0.13240727  -37.84558010
     atom   27 type  1   force =    -0.66322433   -0.81610625   -4.15538874
     atom   28 type  2   force =    -0.23057686    0.49471733   37.87580481
     atom   29 type  2   force =    -0.34085469   -0.48532062  -37.82437213
     atom   30 type  1   force =    -1.68135644   -1.35125765   -2.27366684
     atom   31 type  2   force =    -1.90192899   -2.65108807   34.21537618
     atom   32 type  2   force =    -0.69510848   -0.22362299  -39.54336406
     atom   33 type  1   force =     0.05815296    1.10560473   -0.00797682
     atom   34 type  2   force =    -0.85060929   -0.42742680   38.76261362
     atom   35 type  2   force =    -0.41974647    0.66361465  -38.53297365
     atom   36 type  3   force =     2.54392947   -1.81637383   46.01366139
     The local contribution  to forces
     atom    1 type  1   force =    -0.32098234   -0.64620016   -4.83589720
     atom    2 type  2   force =     0.51179688   -0.45582333  -38.93457641
     atom    3 type  2   force =     0.14325090   -0.10686449   36.43894580
     atom    4 type  1   force =    -0.07410335    0.06493588    0.44109678
     atom    5 type  2   force =     0.70740499   -1.02935964  -38.18031431
     atom    6 type  2   force =    -0.38400694    0.68172251   38.23316292
     atom    7 type  1   force =     1.72472414    2.47485897   -0.34678946
     atom    8 type  2   force =     1.08706489    0.19094909  -36.85068092
     atom    9 type  2   force =    -0.40293698    0.17308463   38.38966718
     atom   10 type  1   force =     1.00232434   -0.27531555   -4.12720442
     atom   11 type  2   force =    -0.13532040    1.10768620  -38.36501932
     atom   12 type  2   force =    -0.47554967   -0.73022069   38.25875579
     atom   13 type  1   force =    -0.49019527   -1.01223260   -1.56866029
     atom   14 type  2   force =    -0.19056444   -0.35932164  -38.08583224
     atom   15 type  2   force =    -0.22161178   -0.12140024   37.17433379
     atom   16 type  1   force =    -0.60991600   -2.52991560    1.35502809
     atom   17 type  2   force =    -0.88408820   -0.43441500  -37.19015964
     atom   18 type  2   force =     0.10683982    0.78980550   38.88807754
     atom   19 type  1   force =    -3.32989092    2.48820744    5.64930270
     atom   20 type  2   force =    -0.37837667    0.32697571   39.20217518
     atom   21 type  1   force =    -0.70371925   -1.09402702    0.85265607
     atom   22 type  2   force =    -1.32077907   -2.05436282  -35.57924205
     atom   23 type  2   force =     0.02474159   -0.90188152   38.96181226
     atom   24 type  1   force =     0.55355008   -1.06201953   -4.57662191
     atom   25 type  2   force =    -0.36039232   -0.65293996  -38.68370303
     atom   26 type  2   force =     0.30507951   -0.11906720   37.59797741
     atom   27 type  1   force =     0.67373629    0.79653656    4.16111284
     atom   28 type  2   force =     0.23320569   -0.47370891  -37.62811541
     atom   29 type  2   force =     0.33710362    0.48668365   37.57590970
     atom   30 type  1   force =     1.69160455    1.36885150    2.28411835
     atom   31 type  2   force =     1.72513409    2.52337554  -34.19448849
     atom   32 type  2   force =     0.68844254    0.23536710   39.29551844
     atom   33 type  1   force =    -0.06576099   -1.13167776    0.01342287
     atom   34 type  2   force =     0.85453076    0.42610053  -38.51733604
     atom   35 type  2   force =     0.41574027   -0.64840140   38.29660105
     atom   36 type  3   force =    -2.25261575    1.78650590  -45.49051539
     The core correction contribution to forces
     atom    1 type  1   force =     0.00000000    0.00000000    0.00000000
     atom    2 type  2   force =     0.00015340    0.00003881    0.02096207
     atom    3 type  2   force =     0.00045082    0.00017895   -0.02069718
     atom    4 type  1   force =     0.00000000    0.00000000    0.00000000
     atom    5 type  2   force =    -0.00068842    0.00171801    0.02060165
     atom    6 type  2   force =     0.00025884   -0.00108038   -0.02089896
     atom    7 type  1   force =     0.00000000    0.00000000    0.00000000
     atom    8 type  2   force =    -0.00018832    0.00066376    0.02064484
     atom    9 type  2   force =    -0.00015477    0.00037030   -0.02103652
     atom   10 type  1   force =     0.00000000    0.00000000    0.00000000
     atom   11 type  2   force =    -0.00067631   -0.00062621    0.02074155
     atom   12 type  2   force =     0.00094850    0.00150280   -0.02079516
     atom   13 type  1   force =     0.00000000    0.00000000    0.00000000
     atom   14 type  2   force =    -0.00041447    0.00000842    0.02078659
     atom   15 type  2   force =     0.00067477    0.00039648   -0.02062216
     atom   16 type  1   force =     0.00000000    0.00000000    0.00000000
     atom   17 type  2   force =     0.00007937    0.00164346    0.02035959
     atom   18 type  2   force =     0.00005181   -0.00060289   -0.02106320
     atom   19 type  1   force =     0.00000000    0.00000000    0.00000000
     atom   20 type  2   force =     0.00012068    0.00078389   -0.02117727
     atom   21 type  1   force =     0.00000000    0.00000000    0.00000000
     atom   22 type  2   force =     0.00192580    0.00984418    0.01227888
     atom   23 type  2   force =    -0.00047170    0.00155761   -0.02099476
     atom   24 type  1   force =     0.00000000    0.00000000    0.00000000
     atom   25 type  2   force =     0.00006093   -0.00017470    0.02094302
     atom   26 type  2   force =    -0.00016284    0.00072568   -0.02087161
     atom   27 type  1   force =     0.00000000    0.00000000    0.00000000
     atom   28 type  2   force =     0.00017792    0.00177618    0.02102605
     atom   29 type  2   force =    -0.00059125   -0.00046825   -0.02066217
     atom   30 type  1   force =     0.00000000    0.00000000    0.00000000
     atom   31 type  2   force =    -0.01078974   -0.00804368    0.00698543
     atom   32 type  2   force =    -0.00030478    0.00043369   -0.02118968
     atom   33 type  1   force =     0.00000000    0.00000000    0.00000000
     atom   34 type  2   force =     0.00059571    0.00087180    0.02152759
     atom   35 type  2   force =    -0.00025116    0.00091557   -0.02078485
     atom   36 type  3   force =     0.00356245    0.00005250    0.00546488
     The Hubbard contrib.    to forces
     atom    1 type  1   force =     0.00000000    0.00000000    0.00000000
     atom    2 type  2   force =     0.00000000    0.00000000    0.00000000
     atom    3 type  2   force =     0.00000000    0.00000000    0.00000000
     atom    4 type  1   force =     0.00000000    0.00000000    0.00000000
     atom    5 type  2   force =     0.00000000    0.00000000    0.00000000
     atom    6 type  2   force =     0.00000000    0.00000000    0.00000000
     atom    7 type  1   force =     0.00000000    0.00000000    0.00000000
     atom    8 type  2   force =     0.00000000    0.00000000    0.00000000
     atom    9 type  2   force =     0.00000000    0.00000000    0.00000000
     atom   10 type  1   force =     0.00000000    0.00000000    0.00000000
     atom   11 type  2   force =     0.00000000    0.00000000    0.00000000
     atom   12 type  2   force =     0.00000000    0.00000000    0.00000000
     atom   13 type  1   force =     0.00000000    0.00000000    0.00000000
     atom   14 type  2   force =     0.00000000    0.00000000    0.00000000
     atom   15 type  2   force =     0.00000000    0.00000000    0.00000000
     atom   16 type  1   force =     0.00000000    0.00000000    0.00000000
     atom   17 type  2   force =     0.00000000    0.00000000    0.00000000
     atom   18 type  2   force =     0.00000000    0.00000000    0.00000000
     atom   19 type  1   force =     0.00000000    0.00000000    0.00000000
     atom   20 type  2   force =     0.00000000    0.00000000    0.00000000
     atom   21 type  1   force =     0.00000000    0.00000000    0.00000000
     atom   22 type  2   force =     0.00000000    0.00000000    0.00000000
     atom   23 type  2   force =     0.00000000    0.00000000    0.00000000
     atom   24 type  1   force =     0.00000000    0.00000000    0.00000000
     atom   25 type  2   force =     0.00000000    0.00000000    0.00000000
     atom   26 type  2   force =     0.00000000    0.00000000    0.00000000
     atom   27 type  1   force =     0.00000000    0.00000000    0.00000000
     atom   28 type  2   force =     0.00000000    0.00000000    0.00000000
     atom   29 type  2   force =     0.00000000    0.00000000    0.00000000
     atom   30 type  1   force =     0.00000000    0.00000000    0.00000000
     atom   31 type  2   force =     0.00000000    0.00000000    0.00000000
     atom   32 type  2   force =     0.00000000    0.00000000    0.00000000
     atom   33 type  1   force =     0.00000000    0.00000000    0.00000000
     atom   34 type  2   force =     0.00000000    0.00000000    0.00000000
     atom   35 type  2   force =     0.00000000    0.00000000    0.00000000
     atom   36 type  3   force =     0.00000000    0.00000000    0.00000000
     The SCF correction term to forces
     atom    1 type  1   force =    -0.00004118    0.00018203    0.00085438
     atom    2 type  2   force =    -0.00001602   -0.00002526    0.00044651
     atom    3 type  2   force =     0.00002083   -0.00000841    0.00015990
     atom    4 type  1   force =    -0.00005591    0.00027925    0.00089397
     atom    5 type  2   force =    -0.00010794    0.00022773    0.00039215
     atom    6 type  2   force =    -0.00007460    0.00016580    0.00023481
     atom    7 type  1   force =    -0.00009929   -0.00033716    0.00092576
     atom    8 type  2   force =     0.00006367   -0.00002337    0.00050910
     atom    9 type  2   force =     0.00003821   -0.00004966    0.00021141
     atom   10 type  1   force =     0.00006847   -0.00028466    0.00082876
     atom   11 type  2   force =    -0.00009095   -0.00012988    0.00058869
     atom   12 type  2   force =     0.00000708   -0.00005917    0.00015632
     atom   13 type  1   force =     0.00002053    0.00033709    0.00078726
     atom   14 type  2   force =    -0.00003571   -0.00004038    0.00047694
     atom   15 type  2   force =    -0.00002698    0.00002075    0.00016949
     atom   16 type  1   force =    -0.00022265    0.00035674    0.00094848
     atom   17 type  2   force =     0.00003580    0.00031165    0.00040248
     atom   18 type  2   force =     0.00003654    0.00017831    0.00027114
     atom   19 type  1   force =    -0.00016584   -0.00035258    0.00115784
     atom   20 type  2   force =    -0.00008885   -0.00012760    0.00029204
     atom   21 type  1   force =    -0.00017004   -0.00023634    0.00098832
     atom   22 type  2   force =    -0.00005524   -0.00019791    0.00060132
     atom   23 type  2   force =    -0.00005874   -0.00011000    0.00025652
     atom   24 type  1   force =     0.00001663    0.00024785    0.00068457
     atom   25 type  2   force =     0.00005427   -0.00007396    0.00048692
     atom   26 type  2   force =     0.00000925   -0.00000251    0.00013530
     atom   27 type  1   force =     0.00023605    0.00043884    0.00103954
     atom   28 type  2   force =     0.00006509    0.00023503    0.00042266
     atom   29 type  2   force =     0.00004077    0.00011568    0.00020787
     atom   30 type  1   force =     0.00031910   -0.00012815    0.00111963
     atom   31 type  2   force =     0.00002978   -0.00001153    0.00054748
     atom   32 type  2   force =     0.00004605   -0.00002029    0.00030323
     atom   33 type  1   force =     0.00011249   -0.00056590    0.00093372
     atom   34 type  2   force =     0.00012215   -0.00020877    0.00048962
     atom   35 type  2   force =     0.00005274   -0.00010842    0.00023793
     atom   36 type  3   force =     0.00000944   -0.00002858    0.00061846

     Total force =     0.101474     Total SCF correction =     0.004046
     Energy error            =      1.4E-02 Ry
     Gradient error          =      3.8E-02 Ry/Bohr

     number of scf cycles    =   2
     number of bfgs steps    =   1

     energy             old  =   -2246.2189495465 Ry
     energy             new  =   -2246.2334076256 Ry

     CASE: energy            _new < energy            _old

     new trust radius        =       0.0615132730 bohr
     new conv_thr            =       0.0000000381 Ry


ATOMIC_POSITIONS (angstrom)
Mo            6.5854012757        1.7653012078        2.8261984060
S             8.1625961808        0.8260485701        4.4349006744
S             8.1810211160        0.8203939262        1.2718555685
Mo            8.1010328552        4.4992963313        2.7200330616
S             6.5000351736        3.7158681876        4.3402733453
S             6.5538801546        3.5221349071        1.1226107186
Mo            6.5018339989        7.1967610589        2.6607299741
S             8.0812548653        6.3388393342        4.2596365744
S             8.0931276178        6.3113330072        1.0948501825
Mo            8.1479916300        9.9116907173        2.8211410390
S             6.5017977770        8.9415996509        4.3742710038
S             6.6145557491        9.0474580034        1.1428869624
Mo            3.4263947753        1.7474098174        2.7690021734
S             4.9821074893        0.8167279473        4.3652372015
S             5.0468648742        0.8488220617        1.2161734205
Mo            4.9869491483        4.5246140186        2.6350856780
S             3.4373147362        3.6699333888        4.2827847458
S             3.4335588916        3.5415066490        1.0706185633
Mo            3.4545513285        7.2081847306        2.6138933062
S             4.9886079743        6.3212333143        1.0375642899
Mo            5.0126066404        9.9170651131        2.7361320499
S             3.4612638170        8.9273531824        4.3398076036
S             3.4097509967        9.0653423324        1.1051597872
Mo            0.2855789340        1.7443816179        2.8314553382
S             1.8671273784        0.8136665942        4.4042858337
S             1.8510117989        0.8560648464        1.2038335000
Mo            1.8639084642        4.4891197448        2.6663314633
S             0.2718662343        3.6517683575        4.3316385871
S             0.2352220187        3.5269368624        1.1682514738
Mo            0.2709465176        7.2402971942        2.7093914198
S             1.9294081823        6.3391659659        4.2716470026
S             1.8532620031        6.3164124129        1.0540325793
Mo            1.8495604869        9.9253795196        2.7734065103
S             0.2955822645        9.0490585089        4.4024854596
S             0.2718212337        9.0513106601        1.1612364136
O             3.1148057627        7.2784000012        5.4359196259



     Writing config-only to output data dir ./MoS2-V-O.save/
     NEW-OLD atomic charge density approx. for the potential

     negative rho (up, down):  1.930E-04 0.000E+00

     total cpu time spent up to now is      230.0 secs

     Self-consistent Calculation

     iteration #  1     ecut=    80.00 Ry     beta= 0.70
     Davidson diagonalization with overlap
     ethr =  1.00E-06,  avg # of iterations =  9.0

     negative rho (up, down):  1.316E-04 0.000E+00

     total cpu time spent up to now is      242.0 secs

     total energy              =   -2246.24483844 Ry
     estimated scf accuracy    <       0.00372131 Ry

     iteration #  2     ecut=    80.00 Ry     beta= 0.70
     Davidson diagonalization with overlap
     ethr =  1.19E-06,  avg # of iterations =  2.0

     negative rho (up, down):  1.030E-04 0.000E+00

     total cpu time spent up to now is      254.1 secs

     total energy              =   -2246.24508253 Ry
     estimated scf accuracy    <       0.00070410 Ry

     iteration #  3     ecut=    80.00 Ry     beta= 0.70
     Davidson diagonalization with overlap
     ethr =  2.26E-07,  avg # of iterations =  5.0

     negative rho (up, down):  8.315E-05 0.000E+00

     total cpu time spent up to now is      269.3 secs

     total energy              =   -2246.24513429 Ry
     estimated scf accuracy    <       0.00011738 Ry

     iteration #  4     ecut=    80.00 Ry     beta= 0.70
     Davidson diagonalization with overlap
     ethr =  3.76E-08,  avg # of iterations =  5.0

     negative rho (up, down):  7.381E-05 0.000E+00

     total cpu time spent up to now is      283.2 secs

     total energy              =   -2246.24514971 Ry
     estimated scf accuracy    <       0.00003584 Ry

     iteration #  5     ecut=    80.00 Ry     beta= 0.70
     Davidson diagonalization with overlap
     ethr =  1.15E-08,  avg # of iterations =  5.0

     negative rho (up, down):  6.979E-05 0.000E+00

     total cpu time spent up to now is      296.3 secs

     total energy              =   -2246.24515367 Ry
     estimated scf accuracy    <       0.00000519 Ry

     iteration #  6     ecut=    80.00 Ry     beta= 0.70
     Davidson diagonalization with overlap
     ethr =  1.66E-09,  avg # of iterations =  5.0

     negative rho (up, down):  7.107E-05 0.000E+00

     total cpu time spent up to now is      307.7 secs

     total energy              =   -2246.24515514 Ry
     estimated scf accuracy    <       0.00000237 Ry

     iteration #  7     ecut=    80.00 Ry     beta= 0.70
     Davidson diagonalization with overlap
     ethr =  7.60E-10,  avg # of iterations =  2.0

     negative rho (up, down):  8.003E-05 0.000E+00

     total cpu time spent up to now is      318.5 secs

     total energy              =   -2246.24515524 Ry
     estimated scf accuracy    <       0.00000082 Ry

     iteration #  8     ecut=    80.00 Ry     beta= 0.70
     Davidson diagonalization with overlap
     ethr =  2.63E-10,  avg # of iterations =  4.0

     negative rho (up, down):  9.006E-05 0.000E+00

     total cpu time spent up to now is      328.1 secs

     total energy              =   -2246.24515540 Ry
     estimated scf accuracy    <       0.00000024 Ry

     iteration #  9     ecut=    80.00 Ry     beta= 0.70
     Davidson diagonalization with overlap
     ethr =  7.83E-11,  avg # of iterations =  2.0

     negative rho (up, down):  1.257E-04 0.000E+00

     total cpu time spent up to now is      338.8 secs

     total energy              =   -2246.24515542 Ry
     estimated scf accuracy    <       0.00000012 Ry

     iteration # 10     ecut=    80.00 Ry     beta= 0.70
     Davidson diagonalization with overlap
     ethr =  3.70E-11,  avg # of iterations =  6.0

     negative rho (up, down):  1.935E-04 0.000E+00

     total cpu time spent up to now is      342.5 secs

     End of self-consistent calculation

          k = 0.0000 0.0000 0.0000 (105382 PWs)   bands (ev):

   -62.9996 -62.9848 -62.9791 -62.9769 -62.9618 -62.9363 -62.9273 -62.9229
   -62.9104 -62.8965 -62.8715 -62.8383 -37.3492 -37.2927 -37.2627 -37.2520
   -37.2374 -37.2243 -37.2010 -37.1896 -37.1798 -37.1775 -37.1726 -37.1557
   -37.1541 -37.1480 -37.1418 -37.1291 -37.1183 -37.1172 -37.1106 -37.0910
   -37.0845 -37.0750 -37.0710 -37.0512 -37.0411 -37.0312 -37.0253 -37.0150
   -37.0062 -37.0002 -36.9783 -36.9710 -36.9396 -36.9100 -36.8433 -36.8335
   -20.0139 -16.0403 -15.3752 -15.2345 -15.0450 -15.0065 -14.8810 -14.8122
   -14.5453 -14.5394 -14.5205 -14.4970 -14.4461 -14.4127 -14.3564 -14.3110
   -14.2352 -14.2177 -14.1507 -14.1387 -13.9750 -13.9651 -13.9529 -13.9182
    -7.9393  -7.7761  -7.5988  -7.4872  -7.3952  -7.3455  -7.3177  -7.2994
    -7.1813  -6.9660  -6.9306  -6.8599  -6.8525  -6.7623  -6.7214  -6.6190
    -6.5635  -6.4916  -6.3798  -6.3541  -6.1237  -6.0702  -6.0012  -5.9490
    -5.9276  -5.8762  -5.8241  -5.8152  -5.7754  -5.7669  -5.6673  -5.6481
    -5.6313  -5.5577  -5.5287  -5.3169  -5.2684  -5.2237  -5.1627  -5.1278
    -5.0733  -5.0462  -5.0148  -4.8691  -4.8402  -4.6395  -4.4389  -4.4341
    -4.3643  -4.3544  -4.2478  -4.2175  -4.1351  -4.1150  -3.9195  -3.8677
    -3.8472  -3.8040  -3.7199  -3.6978  -3.6340  -3.6138  -3.5741  -3.5497
    -3.5144  -3.4797  -3.3987  -3.3332  -3.1616  -3.0059  -2.9781  -2.9128
    -2.9055  -2.8826  -2.8759  -2.8023  -2.7521  -2.7088  -2.6834  -2.3742
    -2.1953  -2.1118  -1.9867  -1.5813  -1.3229  -0.8001  -0.7653  -0.2789
    -0.2545  -0.2070  -0.0934  -0.0582   0.0380   0.0935   0.1202   0.1744
     0.2148   0.2587   0.3167   0.3513   0.4334   0.4673   0.4863   0.5041
     0.5455   0.6220   0.6307   0.6925   0.7000   0.7499   0.8236   0.8474
     0.9195   0.9605   1.0236

     the Fermi energy is    -1.4521 ev

!    total energy              =   -2246.24515537 Ry
     estimated scf accuracy    <       0.00000003 Ry
     smearing contrib. (-TS)   =      -0.00458021 Ry
     internal energy E=F+TS    =   -2246.24057516 Ry

     The total energy is F=E-TS. E is the sum of the following terms:
     one-electron contribution =  -18423.68520193 Ry
     hartree contribution      =    9199.58143955 Ry
     xc contribution           =    -391.84718752 Ry
     ewald contribution        =    7379.58814655 Ry
     one-center paw contrib.   =      -9.87777182 Ry

     convergence has been achieved in  10 iterations

     negative rho (up, down):  1.935E-04 0.000E+00

     Forces acting on atoms (cartesian axes, Ry/au):

     atom    1 type  1   force =    -0.00378471   -0.00298263   -0.00405310
     atom    2 type  2   force =    -0.00505129    0.00578884   -0.00184564
     atom    3 type  2   force =    -0.00817495    0.00506818   -0.01121315
     atom    4 type  1   force =     0.00604736    0.00144368    0.00230699
     atom    5 type  2   force =     0.00232398   -0.00529813   -0.00406432
     atom    6 type  2   force =     0.00121008    0.00444490    0.00339109
     atom    7 type  1   force =     0.00397990   -0.00915462    0.00217347
     atom    8 type  2   force =     0.00117410   -0.00367703    0.00945907
     atom    9 type  2   force =     0.01182235    0.00438735    0.00394989
     atom   10 type  1   force =    -0.00052266    0.00507988   -0.00156443
     atom   11 type  2   force =     0.00290859   -0.00153764   -0.01161275
     atom   12 type  2   force =    -0.00400707   -0.00212711   -0.00226779
     atom   13 type  1   force =     0.00416895   -0.00012568   -0.00020210
     atom   14 type  2   force =     0.00307954   -0.00092193    0.00612745
     atom   15 type  2   force =    -0.00423131    0.00225520   -0.00763383
     atom   16 type  1   force =     0.00287101    0.00391033    0.00284967
     atom   17 type  2   force =     0.00793938   -0.00142614    0.00153752
     atom   18 type  2   force =    -0.00189115   -0.00215444    0.00719735
     atom   19 type  1   force =     0.00214952    0.00158104   -0.01158394
     atom   20 type  2   force =     0.00507081   -0.00453688   -0.00581806
     atom   21 type  1   force =    -0.00590318    0.00543899    0.00345143
     atom   22 type  2   force =     0.00397733   -0.00400115   -0.00776769
     atom   23 type  2   force =     0.00124594    0.00055743    0.00204289
     atom   24 type  1   force =    -0.00402330   -0.00115567   -0.00251860
     atom   25 type  2   force =     0.00703702    0.00972741   -0.00308476
     atom   26 type  2   force =    -0.00470923   -0.00187792   -0.00283353
     atom   27 type  1   force =     0.00381778    0.00218916    0.01255566
     atom   28 type  2   force =     0.00048528   -0.00330469   -0.00529766
     atom   29 type  2   force =     0.00315875    0.00199656   -0.00327095
     atom   30 type  1   force =     0.00457114    0.00620196    0.01384183
     atom   31 type  2   force =     0.02947930    0.02323910    0.03431749
     atom   32 type  2   force =    -0.00825122    0.00295989    0.00666198
     atom   33 type  1   force =     0.00055676   -0.00327310    0.00674604
     atom   34 type  2   force =    -0.00528062   -0.01665764   -0.00934993
     atom   35 type  2   force =    -0.00289283    0.00693046    0.00226523
     atom   36 type  3   force =    -0.05035133   -0.02898796   -0.02489282
     The non-local contrib.  to forces
     atom    1 type  1   force =     0.00273664    0.02581419   -0.01002199
     atom    2 type  2   force =    -0.00331565   -0.00653518   -0.27234147
     atom    3 type  2   force =    -0.00846736   -0.00619356    0.25989007
     atom    4 type  1   force =    -0.00710073    0.00694888    0.00602023
     atom    5 type  2   force =     0.00780510   -0.03026830   -0.25810709
     atom    6 type  2   force =    -0.00096109    0.00708181    0.26641097
     atom    7 type  1   force =    -0.02824636    0.00628197   -0.02130651
     atom    8 type  2   force =     0.00500205   -0.00663500   -0.25999822
     atom    9 type  2   force =     0.00853039   -0.00777638    0.27396400
     atom   10 type  1   force =    -0.00032214    0.00981084   -0.00040407
     atom   11 type  2   force =     0.01284695    0.00476122   -0.26166336
     atom   12 type  2   force =    -0.01028782   -0.02267658    0.26192633
     atom   13 type  1   force =     0.00999568    0.02723890   -0.00944344
     atom   14 type  2   force =     0.00551028   -0.00768642   -0.26710748
     atom   15 type  2   force =    -0.00936654   -0.00522603    0.26109363
     atom   16 type  1   force =    -0.00496665    0.03766245   -0.02775654
     atom   17 type  2   force =     0.00160552   -0.03029397   -0.25083585
     atom   18 type  2   force =    -0.00200802    0.00111912    0.27422741
     atom   19 type  1   force =     0.01472595    0.00142460   -0.00317600
     atom   20 type  2   force =    -0.00080137   -0.01837972    0.26151958
     atom   21 type  1   force =    -0.00453329    0.00920909    0.01141282
     atom   22 type  2   force =    -0.04166887   -0.19651795   -0.10091767
     atom   23 type  2   force =     0.00661164   -0.02031773    0.26689237
     atom   24 type  1   force =    -0.00109492    0.01302654   -0.00712692
     atom   25 type  2   force =     0.00093677   -0.00489180   -0.26955234
     atom   26 type  2   force =    -0.00010750   -0.01518803    0.26525789
     atom   27 type  1   force =    -0.00890149    0.01510517   -0.00030426
     atom   28 type  2   force =    -0.00266576   -0.02547833   -0.27430895
[...]
     atom   28 type  2   force =     0.00087469   -0.01076469   -0.27839247
     atom   29 type  2   force =     0.00199756   -0.00737578    0.26703693
     atom   30 type  1   force =     0.00451338    0.00313600    0.01928534
     atom   31 type  2   force =     0.00307576   -0.03389825    0.30012644
     atom   32 type  2   force =     0.00785995   -0.01215115    0.28093870
     atom   33 type  1   force =    -0.00122436    0.00454989    0.00130460
     atom   34 type  2   force =     0.00016453   -0.00911713   -0.27682947
     atom   35 type  2   force =    -0.00121603   -0.01390768    0.26431682
     atom   36 type  3   force =    -0.06752522    0.05410226   -2.30637525
     The ionic contribution  to forces
     atom    1 type  1   force =    -0.08166117    0.51036739    2.34844418
     atom    2 type  2   force =    -0.28156687    0.03025068   38.75937690
     atom    3 type  2   force =     0.02925748   -0.03633112  -37.84827234
     atom    4 type  1   force =    -0.59542684   -0.26090159   -0.51157068
     atom    5 type  2   force =    -0.79652593    0.84279955   38.16597697
     atom    6 type  2   force =     0.20101239   -0.50276575  -38.36447474
     atom    7 type  1   force =    -2.60182345   -1.56257564    0.72256586
     atom    8 type  2   force =    -2.01588729    0.08899884   37.63641725
     atom    9 type  2   force =     0.31721923   -0.06996443  -38.69805275
     atom   10 type  1   force =    -0.72166791    0.19916578    1.73856263
     atom   11 type  2   force =    -0.42147442   -1.10187976   38.18958089
     atom   12 type  2   force =     0.26384417    0.47794556  -38.48934179
     atom   13 type  1   force =     0.27066799    0.16344031    1.62532123
     atom   14 type  2   force =     0.08817447   -0.09217774   38.51045932
     atom   15 type  2   force =     0.03514732   -0.07586078  -37.94344390
     atom   16 type  1   force =     0.53051671    2.79863693    0.68858136
     atom   17 type  2   force =     1.44402351    0.08934092   37.60832468
     atom   18 type  2   force =    -0.11158460   -0.48522750  -38.74353136
     atom   19 type  1   force =     3.33396555   -1.40096940   -2.27882250
     atom   20 type  2   force =     0.08798406   -0.13285319  -39.61043380
     atom   21 type  1   force =     0.27075290    0.37548907   -0.17024440
     atom   22 type  2   force =     1.05515778   -0.30863240   37.84479593
     atom   23 type  2   force =    -0.23608409    0.57965559  -38.75916491
     atom   24 type  1   force =    -0.13792667   -0.13997325    1.79216702
     atom   25 type  2   force =     0.17269577    0.02924610   38.54791839
     atom   26 type  2   force =    -0.09122761   -0.05050722  -37.79432197
     atom   27 type  1   force =     0.09801696   -0.90190248   -3.75764513
     atom   28 type  2   force =    -0.61689344   -0.45275383   37.59611561
     atom   29 type  2   force =    -0.11738065   -0.24902325  -38.35690897
     atom   30 type  1   force =    -0.97432437    0.01216494   -1.56906284
     atom   31 type  2   force =     1.00912745    0.30136932   27.95900195
     atom   32 type  2   force =    -0.36724041    0.01452001  -38.59215967
     atom   33 type  1   force =     0.41076346    0.57427150    1.73819381
     atom   34 type  2   force =    -0.52618809    0.56931171   38.30756224
     atom   35 type  2   force =    -0.00555004    0.35122708  -38.21797065
     atom   36 type  3   force =     1.08210665   -0.18390196   49.92605619
     The local contribution  to forces
     atom    1 type  1   force =     0.08277315   -0.53628924   -2.34115096
     atom    2 type  2   force =     0.28022467   -0.01976631  -38.51112736
     atom    3 type  2   force =    -0.02662097    0.04656453   37.60307970
     atom    4 type  1   force =     0.59062996    0.25343914    0.50929037
     atom    5 type  2   force =     0.79443272   -0.82132835  -37.92932872
     atom    6 type  2   force =    -0.20062816    0.50396257   38.11678914
     atom    7 type  1   force =     2.61856956    1.55680936   -0.69708955
     atom    8 type  2   force =     2.00733370   -0.08832869  -37.38863661
     atom    9 type  2   force =    -0.30898192    0.08226949   38.45479458
     atom   10 type  1   force =     0.72172764   -0.20709529   -1.74284339
     atom   11 type  2   force =     0.41480315    1.10408843  -37.94629141
     atom   12 type  2   force =    -0.25578525   -0.46382898   38.24588207
     atom   13 type  1   force =    -0.27670003   -0.18721523   -1.61915457
     atom   14 type  2   force =    -0.08699949    0.10162982  -38.26056531
     atom   15 type  2   force =    -0.03517890    0.08566448   37.70115351
     atom   16 type  1   force =    -0.52959660   -2.82838952   -0.64965004
     atom   17 type  2   force =    -1.44237057   -0.06749220  -37.36820153
     atom   18 type  2   force =     0.11138868    0.48706524   38.49643576
     atom   19 type  1   force =    -3.34156836    1.40900313    2.28349564
     atom   20 type  2   force =    -0.08847275    0.14298743   39.37033233
     atom   21 type  1   force =    -0.27285133   -0.40294350    0.16613670
     atom   22 type  2   force =    -1.05053274    0.31093312  -37.60091131
     atom   23 type  2   force =     0.22742702   -0.56413229   38.51681741
     atom   24 type  1   force =     0.14185851    0.12685767   -1.79082591
     atom   25 type  2   force =    -0.17362237   -0.01922669  -38.29861534
     atom   26 type  2   force =     0.08804781    0.05989945   37.54677949
     atom   27 type  1   force =    -0.09527379    0.88073515    3.73528948
     atom   28 type  2   force =     0.61657958    0.46300484  -37.33926764
     atom   29 type  2   force =     0.11588679    0.25608605   38.11050870
     atom   30 type  1   force =     0.97083488   -0.01513030    1.54997684
     atom   31 type  2   force =    -1.01127172   -0.26932449  -28.24579417
     atom   32 type  2   force =     0.36071907   -0.00235015   38.33190157
     atom   33 type  1   force =    -0.40909838   -0.57969170   -1.73946161
     atom   34 type  2   force =     0.52664689   -0.56071458  -38.05196742
     atom   35 type  2   force =     0.00634604   -0.33734704   37.97473088
     atom   36 type  3   force =    -1.01658155    0.13065767  -47.64699976
     The core correction contribution to forces
     atom    1 type  1   force =     0.00000000    0.00000000    0.00000000
     atom    2 type  2   force =    -0.00009588    0.00041910    0.02102651
     atom    3 type  2   force =     0.00014108    0.00052567   -0.02090500
     atom    4 type  1   force =     0.00000000    0.00000000    0.00000000
     atom    5 type  2   force =    -0.00032092    0.00102355    0.02056341
     atom    6 type  2   force =     0.00015671   -0.00044509   -0.02095763
     atom    7 type  1   force =     0.00000000    0.00000000    0.00000000
     atom    8 type  2   force =    -0.00043220    0.00026461    0.02120497
     atom    9 type  2   force =     0.00077712    0.00058745   -0.02074648
     atom   10 type  1   force =     0.00000000    0.00000000    0.00000000
     atom   11 type  2   force =    -0.00014560   -0.00016013    0.02084579
     atom   12 type  2   force =     0.00073020    0.00104122   -0.02081562
     atom   13 type  1   force =     0.00000000    0.00000000    0.00000000
     atom   14 type  2   force =     0.00001281    0.00010602    0.02108227
     atom   15 type  2   force =     0.00007939    0.00051682   -0.02073690
     atom   16 type  1   force =     0.00000000    0.00000000    0.00000000
     atom   17 type  2   force =     0.00026500    0.00106613    0.02083742
     atom   18 type  2   force =    -0.00010857   -0.00033248   -0.02096367
     atom   19 type  1   force =     0.00000000    0.00000000    0.00000000
     atom   20 type  2   force =     0.00003440    0.00032853   -0.02111812
     atom   21 type  1   force =     0.00000000    0.00000000    0.00000000
     atom   22 type  2   force =     0.00010563   -0.00018992    0.02098038
     atom   23 type  2   force =    -0.00075436    0.00120183   -0.02078684
     atom   24 type  1   force =     0.00000000    0.00000000    0.00000000
     atom   25 type  2   force =     0.00001673    0.00048170    0.02096779
     atom   26 type  2   force =    -0.00022252    0.00042087   -0.02091818
     atom   27 type  1   force =     0.00000000    0.00000000    0.00000000
     atom   28 type  2   force =    -0.00002744    0.00081532    0.02148408
     atom   29 type  2   force =    -0.00018760    0.00018532   -0.02080933
     atom   30 type  1   force =     0.00000000    0.00000000    0.00000000
     atom   31 type  2   force =    -0.00007981    0.00189856   -0.00993763
     atom   32 type  2   force =    -0.00071434    0.00068258   -0.02142055
     atom   33 type  1   force =     0.00000000    0.00000000    0.00000000
     atom   34 type  2   force =     0.00003761    0.00036875    0.02151315
     atom   35 type  2   force =     0.00013378    0.00084252   -0.02084565
     atom   36 type  3   force =     0.00073357   -0.00055894    0.02444996
     The Hubbard contrib.    to forces
     atom    1 type  1   force =     0.00000000    0.00000000    0.00000000
     atom    2 type  2   force =     0.00000000    0.00000000    0.00000000
     atom    3 type  2   force =     0.00000000    0.00000000    0.00000000
     atom    4 type  1   force =     0.00000000    0.00000000    0.00000000
     atom    5 type  2   force =     0.00000000    0.00000000    0.00000000
     atom    6 type  2   force =     0.00000000    0.00000000    0.00000000
     atom    7 type  1   force =     0.00000000    0.00000000    0.00000000
     atom    8 type  2   force =     0.00000000    0.00000000    0.00000000
     atom    9 type  2   force =     0.00000000    0.00000000    0.00000000
     atom   10 type  1   force =     0.00000000    0.00000000    0.00000000
     atom   11 type  2   force =     0.00000000    0.00000000    0.00000000
     atom   12 type  2   force =     0.00000000    0.00000000    0.00000000
     atom   13 type  1   force =     0.00000000    0.00000000    0.00000000
     atom   14 type  2   force =     0.00000000    0.00000000    0.00000000
     atom   15 type  2   force =     0.00000000    0.00000000    0.00000000
     atom   16 type  1   force =     0.00000000    0.00000000    0.00000000
     atom   17 type  2   force =     0.00000000    0.00000000    0.00000000
     atom   18 type  2   force =     0.00000000    0.00000000    0.00000000
     atom   19 type  1   force =     0.00000000    0.00000000    0.00000000
     atom   20 type  2   force =     0.00000000    0.00000000    0.00000000
     atom   21 type  1   force =     0.00000000    0.00000000    0.00000000
     atom   22 type  2   force =     0.00000000    0.00000000    0.00000000
     atom   23 type  2   force =     0.00000000    0.00000000    0.00000000
     atom   24 type  1   force =     0.00000000    0.00000000    0.00000000
     atom   25 type  2   force =     0.00000000    0.00000000    0.00000000
     atom   26 type  2   force =     0.00000000    0.00000000    0.00000000
     atom   27 type  1   force =     0.00000000    0.00000000    0.00000000
     atom   28 type  2   force =     0.00000000    0.00000000    0.00000000
     atom   29 type  2   force =     0.00000000    0.00000000    0.00000000
     atom   30 type  1   force =     0.00000000    0.00000000    0.00000000
     atom   31 type  2   force =     0.00000000    0.00000000    0.00000000
     atom   32 type  2   force =     0.00000000    0.00000000    0.00000000
     atom   33 type  1   force =     0.00000000    0.00000000    0.00000000
     atom   34 type  2   force =     0.00000000    0.00000000    0.00000000
     atom   35 type  2   force =     0.00000000    0.00000000    0.00000000
     atom   36 type  3   force =     0.00000000    0.00000000    0.00000000
     The SCF correction term to forces
     atom    1 type  1   force =    -0.00000628    0.00000377   -0.00006329
     atom    2 type  2   force =    -0.00000481    0.00000244   -0.00004862
     atom    3 type  2   force =    -0.00000524   -0.00000522   -0.00000201
     atom    4 type  1   force =    -0.00002579   -0.00003628   -0.00007057
     atom    5 type  2   force =    -0.00000986   -0.00001046   -0.00004181
     atom    6 type  2   force =    -0.00001003   -0.00000942    0.00000099
     atom    7 type  1   force =    -0.00001288   -0.00000886   -0.00008030
     atom    8 type  2   force =    -0.00002153   -0.00000689   -0.00004247
     atom    9 type  2   force =    -0.00001152    0.00000266   -0.00001931
     atom   10 type  1   force =    -0.00001111    0.00003052   -0.00007961
     atom   11 type  2   force =     0.00000473    0.00000842   -0.00003854
     atom   12 type  2   force =     0.00001036    0.00001010   -0.00001763
     atom   13 type  1   force =     0.00001078    0.00000183   -0.00006525
     atom   14 type  2   force =     0.00000817    0.00001690   -0.00003825
     atom   15 type  2   force =     0.00000633    0.00001252   -0.00001097
     atom   16 type  1   force =     0.00000433   -0.00001192   -0.00005584
     atom   17 type  2   force =     0.00001585   -0.00000660   -0.00004333
     atom   18 type  2   force =     0.00001426   -0.00000854   -0.00000695
     atom   19 type  1   force =     0.00001555   -0.00001335   -0.00007178
     atom   20 type  2   force =    -0.00000526   -0.00000318   -0.00000429
     atom   21 type  1   force =     0.00001470    0.00002595   -0.00007382
     atom   22 type  2   force =    -0.00000065    0.00000548   -0.00003420
     atom   23 type  2   force =    -0.00000688    0.00000512   -0.00001961
     atom   24 type  1   force =    -0.00000880   -0.00002404   -0.00007528
     atom   25 type  2   force =    -0.00000136    0.00000147   -0.00004054
     atom   26 type  2   force =     0.00000209   -0.00000171   -0.00001046
     atom   27 type  1   force =     0.00003177   -0.00000697   -0.00007154
     atom   28 type  2   force =    -0.00000877   -0.00002097   -0.00004272
     atom   29 type  2   force =    -0.00000922   -0.00000914   -0.00000956
     atom   30 type  1   force =    -0.00000410    0.00002064   -0.00010129
     atom   31 type  2   force =     0.00003427   -0.00000534   -0.00006396
     atom   32 type  2   force =     0.00001190   -0.00000133   -0.00001581
     atom   33 type  1   force =     0.00000030    0.00003053   -0.00008148
     atom   34 type  2   force =    -0.00000489    0.00002924   -0.00005104
     atom   35 type  2   force =    -0.00000410    0.00001445   -0.00001620
     atom   36 type  3   force =     0.00008064    0.00000126   -0.00005942

     Total force =     0.006696     Total SCF correction =     0.000340
     Energy error            =      6.6E-05 Ry
     Gradient error          =      3.3E-03 Ry/Bohr

     bfgs converged in  28 scf cycles and  27 bfgs steps
     (criteria: energy <  1.0E-04 Ry, force <  1.0E-02 Ry/Bohr)

     End of BFGS Geometry Optimization

     Final energy             =   -2246.4507308508 Ry

     File ./MoS2-V-O.bfgs deleted, as requested
Begin final coordinates

ATOMIC_POSITIONS (angstrom)
Mo            6.5967624806        1.7840911915        2.7752325015
S             8.1687622953        0.8739666847        4.3793534613
S             8.1752673092        0.8765461872        1.1871661734
Mo            8.1508714003        4.5246588978        2.7235972406
S             6.5511567280        3.6958190472        4.3227468396
S             6.5856940344        3.5873326301        1.1258555413
Mo            6.5495098758        7.2152867707        2.6622433833
S             8.0948533020        6.3452643220        4.3030787671
S             8.1635723284        6.3433692959        1.1122267148
Mo            8.1795030914        9.9673266287        2.7710829761
S             6.5585778738        8.9840524044        4.3223348605
S             6.6278211118        9.0668364981        1.1254446639
Mo            3.4712593355        1.7863821912        2.7663876432
S             5.0292650125        0.8381607439        4.3569977417
S             5.0397262187        0.8745214069        1.1750081274
Mo            5.0273871119        4.5748030735        2.6667686123
S             3.4941798122        3.6967775050        4.3165617235
S             3.4882623016        3.5805354808        1.1093236933
Mo            3.5324613163        7.2300779349        2.6421801278
S             5.0398183305        6.3321889361        1.0271216728
Mo            5.0326813414        9.9383163288        2.7287254809
S             3.5142714555        8.9590724306        4.3319028194
S             3.4361907331        9.0767379750        1.1182301727
Mo            0.2969151506        1.7771022608        2.7805508285
S             1.8977409288        0.8773617732        4.3735260550
S             1.8832537820        0.8750969309        1.1897676895
Mo            1.8971760373        4.4922437163        2.6989171816
S             0.3023912709        3.6432317729        4.3296388275
S             0.2793774082        3.5760477970        1.1460115127
Mo            0.2701340279        7.2574943077        2.7358227079
S             1.9381455851        6.3477836198        4.2028680259
S             1.8713411092        6.3480059814        1.1251941053
Mo            1.8931864014        9.9614049419        2.7774189084
S             0.3030202712        9.0573682899        4.3721376419
S             0.3090484515        9.0921936193        1.1713010916
O             1.9750151209        6.3094201678        5.7020360229
End final coordinates



     Writing all to output data dir ./MoS2-V-O.save/
 
     init_run     :      5.36s CPU      5.83s WALL (       1 calls)
     electrons    :   2688.26s CPU   3036.21s WALL (      28 calls)
     update_pot   :     82.20s CPU     87.43s WALL (      27 calls)
     forces       :     76.15s CPU     86.60s WALL (      28 calls)

     Called by init_run:
     wfcinit      :      0.48s CPU      0.53s WALL (       1 calls)
     potinit      :      3.12s CPU      3.36s WALL (       1 calls)
     hinit0       :      0.44s CPU      0.46s WALL (       1 calls)

     Called by electrons:
     c_bands      :    384.99s CPU    393.91s WALL (     270 calls)
     sum_band     :    150.27s CPU    193.39s WALL (     270 calls)
     v_of_rho     :    254.00s CPU    308.07s WALL (     291 calls)
     newd         :     86.64s CPU    127.71s WALL (     291 calls)
     PAW_pot      :     11.52s CPU     11.57s WALL (     318 calls)
     mix_rho      :   1828.90s CPU   2032.18s WALL (     270 calls)

     Called by c_bands:
     init_us_2    :      6.16s CPU      6.62s WALL (     568 calls)
     init_us_2:cp :      6.16s CPU      6.62s WALL (     568 calls)
     regterg      :    364.87s CPU    373.30s WALL (     270 calls)

     Called by *egterg:
     rdiaghg      :     25.31s CPU     25.54s WALL (    1433 calls)
     h_psi        :    236.76s CPU    238.68s WALL (    1468 calls)
     s_psi        :     22.60s CPU     22.68s WALL (    1468 calls)
     g_psi        :      1.17s CPU      1.18s WALL (    1197 calls)

     Called by h_psi:
     h_psi:calbec :     25.27s CPU     25.39s WALL (    1468 calls)
     vloc_psi     :    186.28s CPU    187.96s WALL (    1468 calls)
     add_vuspsi   :     22.20s CPU     22.31s WALL (    1468 calls)

     General routines
     calbec       :     36.55s CPU     36.73s WALL (    1877 calls)
     fft          :    171.56s CPU    198.97s WALL (   19381 calls)
     ffts         :    814.99s CPU   1011.09s WALL (  447862 calls)
     fftw         :    117.78s CPU    118.71s WALL (  165288 calls)
     interpolate  :      3.65s CPU      4.15s WALL (     291 calls)
 
     Parallel routines
 
     PWSCF        :  47m43.83s CPU  53m53.36s WALL

 
   This run was terminated on:  19:54:19   1Nov2023            

=------------------------------------------------------------------------------=
   JOB DONE.
=------------------------------------------------------------------------------=
