
     Program PWSCF v.7.2 starts on  1Nov2023 at 11:43:55 

     This program is part of the open-source Quantum ESPRESSO suite
     for quantum simulation of materials; please cite
         "P. Giannozzi et al., J. Phys.:Condens. Matter 21 395502 (2009);
         "P. Giannozzi et al., J. Phys.:Condens. Matter 29 465901 (2017);
         "P. Giannozzi et al., J. Chem. Phys. 152 154105 (2020);
          URL http://www.quantum-espresso.org", 
     in publications or presentations arising from this work. More details at
     http://www.quantum-espresso.org/quote

     Parallel version (MPI & OpenMP), running on      48 processor cores
     Number of MPI processes:                48
     Threads/MPI process:                     1

     MPI processes distributed on     1 nodes
     72578 MiB available memory on the printing compute node when the environment starts
 
     Waiting for input...
     Reading input from standard input
Warning: card &CELL ignored
Warning: card CELL_DYNAMICS = 'BFGS', ignored
Warning: card CELL_DOFREE = '2DXY' ignored
Warning: card / ignored

     Current dimensions of program PWSCF are:
     Max number of different atomic species (ntypx) = 10
     Max number of k-points (npk) =  40000
     Max angular momentum in pseudopotentials (lmaxx) =  4
     file O.pbe-n-kjpaw_psl.0.1.UPF: wavefunction(s)  2P renormalized

     IMPORTANT: XC functional enforced from input :
     Exchange-correlation= RVV10
                           (   1   4  13   4  26   0   0)
     Any further DFT definition will be discarded
     Please, verify this is what you really want


     gamma-point specific algorithms are used
     signal trapping enabled: kill the code with -SIGUSR1 to stop cleanly the simulation 
 
     R & G space division:  proc/nbgrp/npool/nimage =      48
     Subspace diagonalization in iterative solution of the eigenvalue problem:
     one sub-group per band group will be used
     scalapack distributed-memory algorithm (size of sub-group:  2*  2 procs)

 
     Parallelization info
     --------------------
     sticks:   dense  smooth     PW     G-vecs:    dense   smooth      PW
     Min         396     194     47               101632    35090    4376
     Max         398     196     50               101674    35128    4410
     Sum       19091    9389   2349              4879585  1685513  210763
 
     Using Slab Decomposition
 


     bravais-lattice index     =            0
     lattice parameter (alat)  =      17.8707  a.u.
     unit-cell volume          =   17436.2743 (a.u.)^3
     number of atoms/cell      =           36
     number of atomic types    =            3
     number of electrons       =       312.00
     number of Kohn-Sham states=          187
     kinetic-energy cutoff     =      80.0000  Ry
     charge density cutoff     =     650.0000  Ry
     scf convergence threshold =      1.0E-06
     mixing beta               =       0.7000
     number of iterations used =            8  local-TF  mixing
     energy convergence thresh.=      1.0E-04
     force convergence thresh. =      1.0E-02
     Exchange-correlation= RVV10
                           (   1   4  13   4  26   0   0)
     nstep                     =          200


     celldm(1)=  17.870686  celldm(2)=   0.000000  celldm(3)=   0.000000
     celldm(4)=   0.000000  celldm(5)=   0.000000  celldm(6)=   0.000000

     crystal axes: (cart. coord. in units of alat)
               a(1) = (   1.000000   0.000000   0.000000 )  
               a(2) = (   0.000000   1.155671   0.000000 )  
               a(3) = (   0.000000   0.000000   2.643601 )  

     reciprocal axes: (cart. coord. in units 2 pi/alat)
               b(1) = (  1.000000  0.000000  0.000000 )  
               b(2) = (  0.000000  0.865298  0.000000 )  
               b(3) = (  0.000000  0.000000  0.378272 )  


     PseudoPot. # 1 for Mo read from file:
     ../pseudo/Mo_ONCV_PBE-1.0.oncvpsp.upf
     MD5 check sum: 1b5d28e075c9ccadda658a603575cd1f
     Pseudo is Norm-conserving, Zval = 14.0
     Generated using ONCVPSP code by D. R. Hamann
     Using radial grid of 1526 points,  6 beta functions with: 
                l(1) =   0
                l(2) =   0
                l(3) =   1
                l(4) =   1
                l(5) =   2
                l(6) =   2

     PseudoPot. # 2 for S  read from file:
     ../pseudo/s_pbe_v1.4.uspp.F.UPF
     MD5 check sum: 88d86576ff6df21479756cfb9bdac1df
     Pseudo is Ultrasoft + core correction, Zval =  6.0
     Generated by new atomic code, or converted to UPF format
     Using radial grid of  907 points,  6 beta functions with: 
                l(1) =   0
                l(2) =   0
                l(3) =   1
                l(4) =   1
                l(5) =   2
                l(6) =   2
     Q(r) pseudized with  8 coefficients,  rinner =    1.300   1.300   1.300
                                                       1.300   1.300

     PseudoPot. # 3 for O  read from file:
     ../pseudo/O.pbe-n-kjpaw_psl.0.1.UPF
     MD5 check sum: 0234752ac141de4415c5fc33072bef88
     Pseudo is Projector augmented-wave + core cor, Zval =  6.0
     Generated using "atomic" code by A. Dal Corso  v.5.0.99 svn rev. 10869
     Shape of augmentation charge: BESSEL
     Using radial grid of 1095 points,  4 beta functions with: 
                l(1) =   0
                l(2) =   0
                l(3) =   1
                l(4) =   1
     Q(r) pseudized with 0 coefficients 


     atomic species   valence    mass     pseudopotential
        Mo            14.00    95.94000     Mo( 1.00)
        S              6.00    32.06500     S ( 1.00)
        O              6.00    15.99940     O ( 1.00)

     No symmetry found



   Cartesian axes

     site n.     atom                  positions (alat units)
         1           Mo  tau(   1) = (   0.6952221   0.1890506   0.2985846  )
         2           S   tau(   2) = (   0.8646417   0.0856217   0.4689279  )
         3           S   tau(   3) = (   0.8663890   0.0857843   0.1351291  )
         4           Mo  tau(   4) = (   0.8560186   0.4753274   0.2873942  )
         5           S   tau(   5) = (   0.6873294   0.3936244   0.4596353  )
         6           S   tau(   6) = (   0.6929804   0.3713468   0.1185692  )
         7           Mo  tau(   7) = (   0.6862796   0.7633098   0.2825370  )
         8           S   tau(   8) = (   0.8545980   0.6708292   0.4486168  )
         9           S   tau(   9) = (   0.8545123   0.6666874   0.1146125  )
        10           Mo  tau(  10) = (   0.8629403   1.0471007   0.3006803  )
        11           S   tau(  11) = (   0.6868280   0.9456650   0.4634891  )
        12           S   tau(  12) = (   0.6998113   0.9568511   0.1205389  )
        13           Mo  tau(  13) = (   0.3618216   0.1847309   0.2935964  )
        14           S   tau(  14) = (   0.5260962   0.0863870   0.4600448  )
        15           S   tau(  15) = (   0.5348379   0.0894875   0.1297123  )
        16           Mo  tau(  16) = (   0.5265817   0.4772436   0.2784130  )
        17           S   tau(  17) = (   0.3624753   0.3882513   0.4525556  )
        18           S   tau(  18) = (   0.3635411   0.3752055   0.1119148  )
        19           Mo  tau(  19) = (   0.3652268   0.7630864   0.2781795  )
        20           S   tau(  20) = (   0.5269494   0.6690381   0.1096838  )
        21           Mo  tau(  21) = (   0.5300192   1.0470394   0.2900995  )
        22           S   tau(  22) = (   0.3670346   0.9457522   0.4574073  )
        23           S   tau(  23) = (   0.3604225   0.9585725   0.1159032  )
        24           Mo  tau(  24) = (   0.0313099   0.1847895   0.3013130  )
        25           S   tau(  25) = (   0.1956761   0.0838230   0.4650863  )
        26           S   tau(  26) = (   0.1967693   0.0903508   0.1278874  )
        27           Mo  tau(  27) = (   0.1967578   0.4753919   0.2813011  )
        28           S   tau(  28) = (   0.0287851   0.3864324   0.4586755  )
        29           S   tau(  29) = (   0.0244514   0.3729871   0.1239344  )
        30           Mo  tau(  30) = (   0.0286728   0.7631204   0.2856894  )
        31           S   tau(  31) = (   0.2011512   0.6675435   0.4465001  )
        32           S   tau(  32) = (   0.1969214   0.6672839   0.1104564  )
        33           Mo  tau(  33) = (   0.1950294   1.0511147   0.2932237  )
        34           S   tau(  34) = (   0.0312912   0.9612169   0.4667423  )
        35           S   tau(  35) = (   0.0292670   0.9563028   0.1216485  )
        36           O   tau(  36) = (   0.4444444   0.1284079   0.5650415  )

     number of k points=     1  Gaussian smearing, width (Ry)=  0.0100
                       cart. coord. in units 2pi/alat
        k(    1) = (   0.0000000   0.0000000   0.0000000), wk =   2.0000000

     Dense  grid:  2439793 G-vectors     FFT dimensions: ( 150, 180, 384)

     Smooth grid:   842757 G-vectors     FFT dimensions: ( 108, 120, 270)

     Estimated max dynamical RAM per process >     269.22 MB

     Estimated total dynamical RAM >      12.62 GB

     Initial potential from superposition of free atoms

     starting charge     311.9873, renormalised to     312.0000

     negative rho (up, down):  2.751E-04 0.000E+00


---------------------------------------------------------------------------------
Carrying out rVV10 run using the following parameters:
Nqs =      20    Nr_points =    1024   r_max =   100.000
b_value =  6.30000    beta =  0.00901
     q_mesh =  0.00010000  0.00030000  0.00058939  0.00100810
               0.00161396  0.00249058  0.00375900  0.00559430
               0.00824984  0.01209221  0.01765183  0.02569619
               0.03733578  0.05417739  0.07854596  0.11380545
               0.16482331  0.23864234  0.34545298  0.50000000

Gradients computed in Reciprocal space

---------------------------------------------------------------------------------


     Starting wfcs are  216 randomized atomic wfcs
     Checking if some PAW data can be deallocated... 

     total cpu time spent up to now is        8.0 secs

     Self-consistent Calculation

     iteration #  1     ecut=    80.00 Ry     beta= 0.70
     Davidson diagonalization with overlap
     ethr =  1.00E-02,  avg # of iterations =  2.0

     Threshold (ethr) on eigenvalues was too large:
     Diagonalizing with lowered threshold

     Davidson diagonalization with overlap
     ethr =  4.61E-04,  avg # of iterations =  4.0

     negative rho (up, down):  3.629E-08 0.000E+00

     total cpu time spent up to now is       34.9 secs

     total energy              =   -2246.20353410 Ry
     estimated scf accuracy    <       1.67965188 Ry

     iteration #  2     ecut=    80.00 Ry     beta= 0.70
     Davidson diagonalization with overlap
     ethr =  5.38E-04,  avg # of iterations =  3.0

     total cpu time spent up to now is       42.2 secs

     total energy              =   -2246.18993716 Ry
     estimated scf accuracy    <       0.56454444 Ry

     iteration #  3     ecut=    80.00 Ry     beta= 0.70
     Davidson diagonalization with overlap
     ethr =  1.81E-04,  avg # of iterations =  2.0

     total cpu time spent up to now is       48.5 secs

     total energy              =   -2246.20811635 Ry
     estimated scf accuracy    <       0.10939451 Ry

     iteration #  4     ecut=    80.00 Ry     beta= 0.70
     Davidson diagonalization with overlap
     ethr =  3.51E-05,  avg # of iterations = 16.0

     total cpu time spent up to now is       56.5 secs

     total energy              =   -2246.22436423 Ry
     estimated scf accuracy    <       0.02273884 Ry

     iteration #  5     ecut=    80.00 Ry     beta= 0.70
     Davidson diagonalization with overlap
     ethr =  7.29E-06,  avg # of iterations =  2.0

     total cpu time spent up to now is       62.3 secs

     total energy              =   -2246.22369507 Ry
     estimated scf accuracy    <       0.01411182 Ry

     iteration #  6     ecut=    80.00 Ry     beta= 0.70
     Davidson diagonalization with overlap
     ethr =  4.52E-06,  avg # of iterations =  2.0

     total cpu time spent up to now is       68.0 secs

     total energy              =   -2246.22264653 Ry
     estimated scf accuracy    <       0.00852558 Ry

     iteration #  7     ecut=    80.00 Ry     beta= 0.70
     Davidson diagonalization with overlap
     ethr =  2.73E-06,  avg # of iterations = 18.0

     negative rho (up, down):  7.271E-05 0.000E+00

     total cpu time spent up to now is       79.1 secs

     total energy              =   -2246.22191830 Ry
     estimated scf accuracy    <       0.00496351 Ry

     iteration #  8     ecut=    80.00 Ry     beta= 0.70
     Davidson diagonalization with overlap
     ethr =  1.59E-06,  avg # of iterations =  2.0

     negative rho (up, down):  1.916E-02 0.000E+00

     total cpu time spent up to now is       88.2 secs

     total energy              =   -2246.22132369 Ry
     estimated scf accuracy    <       0.00302688 Ry

     iteration #  9     ecut=    80.00 Ry     beta= 0.70
     Davidson diagonalization with overlap
     ethr =  9.70E-07,  avg # of iterations =  2.0

     negative rho (up, down):  3.009E-02 0.000E+00

     total cpu time spent up to now is       97.0 secs

     total energy              =   -2246.22119398 Ry
     estimated scf accuracy    <       0.00159947 Ry

     iteration # 10     ecut=    80.00 Ry     beta= 0.70
     Davidson diagonalization with overlap
     ethr =  5.13E-07,  avg # of iterations =  2.0

     negative rho (up, down):  2.143E-02 0.000E+00

     total cpu time spent up to now is      106.7 secs

     total energy              =   -2246.22120736 Ry
     estimated scf accuracy    <       0.00049733 Ry

     iteration # 11     ecut=    80.00 Ry     beta= 0.70
     Davidson diagonalization with overlap
     ethr =  1.59E-07,  avg # of iterations =  4.0

     negative rho (up, down):  8.580E-03 0.000E+00

     total cpu time spent up to now is      117.2 secs

     total energy              =   -2246.22119247 Ry
     estimated scf accuracy    <       0.00006494 Ry

     iteration # 12     ecut=    80.00 Ry     beta= 0.70
     Davidson diagonalization with overlap
     ethr =  2.08E-08,  avg # of iterations =  6.0

     negative rho (up, down):  2.032E-03 0.000E+00

     total cpu time spent up to now is      129.7 secs

     total energy              =   -2246.22123343 Ry
     estimated scf accuracy    <       0.00001131 Ry

     iteration # 13     ecut=    80.00 Ry     beta= 0.70
     Davidson diagonalization with overlap
     ethr =  3.63E-09,  avg # of iterations =  2.0

     negative rho (up, down):  5.189E-04 0.000E+00

     total cpu time spent up to now is      141.2 secs

     total energy              =   -2246.22123730 Ry
     estimated scf accuracy    <       0.00000312 Ry

     iteration # 14     ecut=    80.00 Ry     beta= 0.70
     Davidson diagonalization with overlap
     ethr =  9.99E-10,  avg # of iterations =  4.0

     negative rho (up, down):  2.218E-04 0.000E+00

     total cpu time spent up to now is      146.8 secs

     End of self-consistent calculation

          k = 0.0000 0.0000 0.0000 (105382 PWs)   bands (ev):

   -62.9377 -62.9081 -62.8833 -62.8760 -62.8677 -62.8616 -62.8547 -62.8473
   -62.8340 -62.8211 -62.8167 -62.6401 -37.2836 -37.2176 -37.1878 -37.1717
   -37.1561 -37.1496 -37.1430 -37.1066 -37.1007 -37.0944 -37.0858 -37.0713
   -37.0660 -37.0530 -37.0508 -37.0435 -37.0298 -37.0282 -37.0225 -37.0163
   -37.0004 -36.9946 -36.9843 -36.9817 -36.9700 -36.9537 -36.9407 -36.9150
   -36.9088 -36.8901 -36.8886 -36.8502 -36.8274 -36.7850 -36.7745 -36.7261
   -25.4978 -15.9565 -15.2192 -15.1094 -14.9952 -14.9199 -14.7526 -14.5212
   -14.4925 -14.4752 -14.4432 -14.4034 -14.3778 -14.3132 -14.2270 -14.1745
   -14.1376 -14.1340 -14.1054 -13.9278 -13.8749 -13.8458 -13.8229 -13.3711
    -9.0238  -8.8758  -8.1718  -7.5780  -7.4542  -7.3030  -7.2764  -7.2109
    -7.1545  -7.0536  -7.0110  -6.8301  -6.7804  -6.7343  -6.7082  -6.6426
    -6.4859  -6.4609  -6.3853  -6.2926  -6.2805  -6.0275  -5.9625  -5.8744
    -5.8463  -5.8241  -5.7626  -5.7094  -5.6849  -5.6633  -5.6575  -5.5750
    -5.5226  -5.4872  -5.4603  -5.3351  -5.2503  -5.1978  -5.1103  -5.0933
    -5.0136  -4.9785  -4.8891  -4.8532  -4.8026  -4.5878  -4.4727  -4.4036
    -4.3434  -4.2654  -4.2310  -4.1447  -4.1077  -3.9936  -3.9288  -3.7868
    -3.7550  -3.6907  -3.6460  -3.6248  -3.5448  -3.5399  -3.5174  -3.4940
    -3.4761  -3.4418  -3.3630  -3.2723  -3.1668  -3.0115  -2.9353  -2.8809
    -2.8346  -2.7894  -2.7406  -2.7040  -2.6687  -2.6029  -2.5557  -2.3291
    -2.1458  -1.9969  -1.9476  -1.7244  -0.8635  -0.7702  -0.5767  -0.1948
    -0.1518  -0.1027   0.0030   0.0708   0.1129   0.1389   0.2173   0.2594
     0.3378   0.3812   0.4267   0.4837   0.5108   0.5155   0.5541   0.5835
     0.6758   0.7002   0.7341   0.7478   0.7963   0.8376   0.8958   0.9392
     0.9954   1.1322   1.2842

     the Fermi energy is    -1.2940 ev

!    total energy              =   -2246.22123830 Ry
     estimated scf accuracy    <       0.00000049 Ry
     smearing contrib. (-TS)   =      -0.00000051 Ry
     internal energy E=F+TS    =   -2246.22123780 Ry

     The total energy is F=E-TS. E is the sum of the following terms:
     one-electron contribution =  -18466.75531772 Ry
     hartree contribution      =    9221.64074832 Ry
     xc contribution           =    -392.41336250 Ry
     ewald contribution        =    7401.15041794 Ry
     one-center paw contrib.   =      -9.84372384 Ry

     convergence has been achieved in  14 iterations

     negative rho (up, down):  2.218E-04 0.000E+00

     Forces acting on atoms (cartesian axes, Ry/au):

     atom    1 type  1   force =     0.00934899   -0.00681605    0.02770301
     atom    2 type  2   force =    -0.01094204    0.01338870   -0.00099652
     atom    3 type  2   force =    -0.00916083    0.00579190   -0.00440555
     atom    4 type  1   force =     0.00498555    0.00389906   -0.00203318
     atom    5 type  2   force =    -0.00148417   -0.00509550   -0.00418394
     atom    6 type  2   force =     0.00132917    0.00952665   -0.00356530
     atom    7 type  1   force =     0.00728747   -0.01536760   -0.00755645
     atom    8 type  2   force =     0.00053758   -0.00446018    0.01665354
     atom    9 type  2   force =     0.01219385    0.00646390    0.01378018
     atom   10 type  1   force =    -0.00968898    0.01014578   -0.02249824
     atom   11 type  2   force =     0.00853383   -0.00489500   -0.00999872
     atom   12 type  2   force =     0.00177949    0.00053134    0.00398105
     atom   13 type  1   force =    -0.00396621    0.00517549   -0.09629807
     atom   14 type  2   force =     0.30540814   -0.14360132   -0.49838063
     atom   15 type  2   force =    -0.01221785    0.00377442   -0.00675517
     atom   16 type  1   force =    -0.00236180    0.00640703    0.00576404
     atom   17 type  2   force =     0.00291198    0.01075947    0.00000638
     atom   18 type  2   force =    -0.00449072   -0.00530177    0.01495419
     atom   19 type  1   force =     0.00711118   -0.01110691   -0.00487177
     atom   20 type  2   force =     0.00264167   -0.00258648    0.00066658
     atom   21 type  1   force =    -0.01701258   -0.00669470    0.02171584
     atom   22 type  2   force =    -0.00351453   -0.00390829   -0.00077884
     atom   23 type  2   force =    -0.00060438    0.00264153    0.00711636
     atom   24 type  1   force =    -0.00940643   -0.00571926   -0.02558308
     atom   25 type  2   force =    -0.00914310    0.01572297   -0.00274405
     atom   26 type  2   force =    -0.01046038    0.00173569   -0.00072139
     atom   27 type  1   force =     0.00019109    0.00526530    0.00442255
     atom   28 type  2   force =     0.00108980   -0.00086408   -0.00379810
     atom   29 type  2   force =     0.00131161   -0.00096143   -0.00275828
     atom   30 type  1   force =    -0.00341959    0.00994221   -0.00587962
     atom   31 type  2   force =    -0.00031227   -0.00111959    0.01638804
     atom   32 type  2   force =    -0.00825788    0.00745412    0.00850707
     atom   33 type  1   force =     0.01369884   -0.00104392   -0.01243627
     atom   34 type  2   force =     0.00337973   -0.04300342   -0.00977870
     atom   35 type  2   force =    -0.00817133    0.00680351    0.01569445
     atom   36 type  3   force =    -0.25912491    0.13711644    0.56866857
     The non-local contrib.  to forces
     atom    1 type  1   force =    -0.00561711    0.00433400    0.00070544
     atom    2 type  2   force =    -0.01866288    0.00734719   -0.26854813
     atom    3 type  2   force =    -0.01201774   -0.00495208    0.26764257
     atom    4 type  1   force =     0.00444723    0.00801004    0.00677913
     atom    5 type  2   force =     0.00556720   -0.03985689   -0.25204220
     atom    6 type  2   force =     0.00100523    0.01074920    0.26300603
     atom    7 type  1   force =    -0.01896118    0.00158691   -0.01842819
     atom    8 type  2   force =     0.00139341   -0.00367746   -0.25793123
     atom    9 type  2   force =     0.00612998   -0.00705349    0.27694112
     atom   10 type  1   force =     0.00853555   -0.00214112   -0.00334679
     atom   11 type  2   force =     0.01057886    0.00912837   -0.25902892
     atom   12 type  2   force =    -0.01232865   -0.01824718    0.26178360
     atom   13 type  1   force =     0.03010659    0.00654751    0.02296282
     atom   14 type  2   force =     0.05761183   -0.04471697   -0.10974467
     atom   15 type  2   force =    -0.01041876   -0.00838887    0.26132235
     atom   16 type  1   force =    -0.00315583    0.02481860   -0.03120702
     atom   17 type  2   force =    -0.00042874    0.00758375   -0.25040855
     atom   18 type  2   force =    -0.00039192   -0.00107212    0.27236961
     atom   19 type  1   force =     0.00313184   -0.00498754   -0.01830346
     atom   20 type  2   force =     0.00006803   -0.02142950    0.26676502
     atom   21 type  1   force =     0.01119875    0.04027275    0.00236130
     atom   22 type  2   force =    -0.00273496    0.00611879   -0.25949088
     atom   23 type  2   force =     0.00992715   -0.01669502    0.26831374
     atom   24 type  1   force =     0.01118579    0.01629993   -0.00156085
     atom   25 type  2   force =    -0.04280575   -0.00268502   -0.26261609
     atom   26 type  2   force =    -0.00196937   -0.01601465    0.26297884
     atom   27 type  1   force =    -0.00079287    0.00213961    0.01203027
     atom   28 type  2   force =    -0.00446456   -0.02313052   -0.27579649
     atom   29 type  2   force =     0.00628500    0.00135454    0.26341270
     atom   30 type  1   force =     0.00122065    0.01748979    0.00887057
     atom   31 type  2   force =    -0.00342168    0.00424621   -0.25411035
     atom   32 type  2   force =    -0.00180115   -0.00944333    0.27526004
     atom   33 type  1   force =    -0.00742716    0.01068837    0.00564475
     atom   34 type  2   force =    -0.00371930   -0.03597387   -0.27266947
     atom   35 type  2   force =    -0.00301365   -0.00997867    0.27089008
     atom   36 type  3   force =     1.61376557   -0.82466500   -1.56115496
     The ionic contribution  to forces
     atom    1 type  1   force =     2.41264891    0.80029236    2.65066588
     atom    2 type  2   force =    -0.10518998    0.27580267   38.91407159
     atom    3 type  2   force =    -0.05314987   -0.02507756  -36.79034779
     atom    4 type  1   force =     0.37500194    1.19074767   -0.46634533
     atom    5 type  2   force =    -0.14603641    2.49915264   38.24132932
     atom    6 type  2   force =     0.50758235   -0.28721816  -38.75803311
     atom    7 type  1   force =    -2.31552140   -3.03199021    1.50572156
     atom    8 type  2   force =    -0.89386446    0.09743192   37.19863182
     atom    9 type  2   force =     0.37627948   -0.00549888  -38.47426378
     atom   10 type  1   force =    -0.66346141   -1.00913140    4.33629091
     atom   11 type  2   force =    -0.05506343   -2.38002822   38.79207421
     atom   12 type  2   force =     0.56501752    0.49441484  -38.48881493
     atom   13 type  1   force =    -1.14434865    2.13966498   -3.26448341
     atom   14 type  2   force =     6.75755806   -3.47484477   29.76222830
     atom   15 type  2   force =     0.32533254   -0.14661956  -38.03651384
     atom   16 type  1   force =     0.31163359    5.34325797   -1.39480412
     atom   17 type  2   force =     0.15850717    3.61661568   36.89667719
     atom   18 type  2   force =    -0.24335212   -0.36633491  -39.43094732
     atom   19 type  1   force =     2.57077716   -2.78119001   -0.55001014
     atom   20 type  2   force =     0.26201599   -0.15182110  -39.02557936
     atom   21 type  1   force =     0.75796178   -2.03956179   -1.87360939
     atom   22 type  2   force =     0.14815873   -3.05853033   37.87417055
     atom   23 type  2   force =    -0.15178514    0.40559946  -39.02761512
     atom   24 type  1   force =    -1.28939156    1.38678515    4.16119817
     atom   25 type  2   force =    -1.85031245   -0.20312071   38.09743655
     atom   26 type  2   force =    -0.55086518    0.00936204  -38.26807203
     atom   27 type  1   force =    -0.57435619    1.35952837   -3.72473134
     atom   28 type  2   force =    -0.24500032    1.44906191   37.92142597
     atom   29 type  2   force =    -0.33836732   -0.27615544  -37.86956620
     atom   30 type  1   force =    -0.48725405   -1.07146185   -0.95650421
     atom   31 type  2   force =     1.04352470    0.06236263   37.09788436
     atom   32 type  2   force =    -0.54577238    0.03229639  -39.14376142
     atom   33 type  1   force =    -0.31519549   -2.09605989    0.03122880
     atom   34 type  2   force =     0.01423451   -1.85412576   39.12621344
     atom   35 type  2   force =    -0.35908738    0.33236351  -38.36568791
     atom   36 type  3   force =    -4.25885925    2.76403037   51.30244213
     The local contribution  to forces
     atom    1 type  1   force =    -2.39774375   -0.81122539   -2.62416560
     atom    2 type  2   force =     0.11203624   -0.26932912  -38.66747892
     atom    3 type  2   force =     0.05544822    0.03571968   36.53905213
     atom    4 type  1   force =    -0.37452493   -1.19519433    0.45685034
     atom    5 type  2   force =     0.13940963   -2.46686284  -38.01411851
     atom    6 type  2   force =    -0.50748853    0.28700690   38.51226227
     atom    7 type  1   force =     2.34168983    3.01521179   -1.49558142
     atom    8 type  2   force =     0.89298844   -0.09878196  -36.94504731
     atom    9 type  2   force =    -0.37013267    0.01856512   38.23197492
     atom   10 type  1   force =     0.64519621    1.02166527   -4.35605304
     atom   11 type  2   force =     0.05332331    2.36702459  -38.56403480
     atom   12 type  2   force =    -0.55209266   -0.47702941   38.25176726
     atom   13 type  1   force =     1.11021100   -2.14091633    3.14490516
     atom   14 type  2   force =    -6.50441163    3.37290901  -30.16699389
     atom   15 type  2   force =    -0.32772496    0.15832605   37.78907041
     atom   16 type  1   force =    -0.31098698   -5.36221464    1.43125981
     atom   17 type  2   force =    -0.15522538   -3.61329195  -36.66702901
     atom   18 type  2   force =     0.23939320    0.36281328   39.19444548
     atom   19 type  1   force =    -2.56687706    2.77527664    0.56273848
     atom   20 type  2   force =    -0.25961042    0.16980426   38.78053288
     atom   21 type  1   force =    -0.78635280    1.99267717    1.89252494
     atom   22 type  2   force =    -0.14874818    3.04941686  -37.63638606
     atom   23 type  2   force =     0.14197932   -0.38759603   38.78730366
     atom   24 type  1   force =     1.26889015   -1.40876346   -4.18572155
     atom   25 type  2   force =     1.88145722    0.22150197  -37.85896672
     atom   26 type  2   force =     0.54252603    0.00757106   38.02519373
     atom   27 type  1   force =     0.57549214   -1.35667988    3.71649555
     atom   28 type  2   force =     0.25032437   -1.42868576  -37.67084359
     atom   29 type  2   force =     0.33396053    0.27441033   37.62390057
     atom   30 type  1   force =     0.48277376    1.06392358    0.94093906
     atom   31 type  2   force =    -1.04063569   -0.06768495  -36.84834832
     atom   32 type  2   force =     0.53954235   -0.01599831   38.89801014
     atom   33 type  1   force =     0.33654322    2.08458768   -0.04980095
     atom   34 type  2   force =    -0.00759526    1.84609398  -38.88482226
     atom   35 type  2   force =     0.35401353   -0.31648751   38.13151354
     atom   36 type  3   force =     2.40072350   -1.80971773  -49.18519457
     The core correction contribution to forces
     atom    1 type  1   force =     0.00000000    0.00000000    0.00000000
     atom    2 type  2   force =     0.00082870   -0.00035093    0.02060313
     atom    3 type  2   force =     0.00054620    0.00017692   -0.02078050
     atom    4 type  1   force =     0.00000000    0.00000000    0.00000000
     atom    5 type  2   force =    -0.00054808    0.00228386    0.02029261
     atom    6 type  2   force =     0.00016376   -0.00107515   -0.02085383
     atom    7 type  1   force =     0.00000000    0.00000000    0.00000000
     atom    8 type  2   force =     0.00002607    0.00050858    0.02058665
     atom    9 type  2   force =    -0.00006761    0.00041678   -0.02101794
     atom   10 type  1   force =     0.00000000    0.00000000    0.00000000
     atom   11 type  2   force =    -0.00041568   -0.00082329    0.02056309
     atom   12 type  2   force =     0.00113122    0.00142601   -0.02080614
     atom   13 type  1   force =     0.00000000    0.00000000    0.00000000
     atom   14 type  2   force =    -0.00536020    0.00307056    0.01599906
     atom   15 type  2   force =     0.00055518    0.00052401   -0.02068732
     atom   16 type  1   force =     0.00000000    0.00000000    0.00000000
     atom   17 type  2   force =     0.00008148   -0.00034357    0.02042879
     atom   18 type  2   force =    -0.00014127   -0.00073637   -0.02093013
     atom   19 type  1   force =     0.00000000    0.00000000    0.00000000
     atom   20 type  2   force =     0.00012063    0.00081837   -0.02124495
     atom   21 type  1   force =     0.00000000    0.00000000    0.00000000
     atom   22 type  2   force =    -0.00016640   -0.00071083    0.02055396
     atom   23 type  2   force =    -0.00071048    0.00135496   -0.02090069
     atom   24 type  1   force =     0.00000000    0.00000000    0.00000000
     atom   25 type  2   force =     0.00266091    0.00009829    0.02107255
     atom   26 type  2   force =    -0.00010542    0.00087749   -0.02081176
     atom   27 type  1   force =     0.00000000    0.00000000    0.00000000
     atom   28 type  2   force =     0.00032335    0.00174215    0.02103877
     atom   29 type  2   force =    -0.00051028   -0.00059741   -0.02056885
     atom   30 type  1   force =     0.00000000    0.00000000    0.00000000
     atom   31 type  2   force =     0.00025924   -0.00012801    0.02056585
     atom   32 type  2   force =    -0.00020357    0.00054819   -0.02110294
     atom   33 type  1   force =     0.00000000    0.00000000    0.00000000
     atom   34 type  2   force =     0.00054071    0.00114571    0.02110645
     atom   35 type  2   force =    -0.00004859    0.00091423   -0.02109605
     atom   36 type  3   force =    -0.01469978    0.00746173    0.01221932
     The Hubbard contrib.    to forces
     atom    1 type  1   force =     0.00000000    0.00000000    0.00000000
     atom    2 type  2   force =     0.00000000    0.00000000    0.00000000
     atom    3 type  2   force =     0.00000000    0.00000000    0.00000000
     atom    4 type  1   force =     0.00000000    0.00000000    0.00000000
     atom    5 type  2   force =     0.00000000    0.00000000    0.00000000
     atom    6 type  2   force =     0.00000000    0.00000000    0.00000000
     atom    7 type  1   force =     0.00000000    0.00000000    0.00000000
     atom    8 type  2   force =     0.00000000    0.00000000    0.00000000
     atom    9 type  2   force =     0.00000000    0.00000000    0.00000000
     atom   10 type  1   force =     0.00000000    0.00000000    0.00000000
     atom   11 type  2   force =     0.00000000    0.00000000    0.00000000
     atom   12 type  2   force =     0.00000000    0.00000000    0.00000000
     atom   13 type  1   force =     0.00000000    0.00000000    0.00000000
     atom   14 type  2   force =     0.00000000    0.00000000    0.00000000
     atom   15 type  2   force =     0.00000000    0.00000000    0.00000000
     atom   16 type  1   force =     0.00000000    0.00000000    0.00000000
     atom   17 type  2   force =     0.00000000    0.00000000    0.00000000
     atom   18 type  2   force =     0.00000000    0.00000000    0.00000000
     atom   19 type  1   force =     0.00000000    0.00000000    0.00000000
     atom   20 type  2   force =     0.00000000    0.00000000    0.00000000
     atom   21 type  1   force =     0.00000000    0.00000000    0.00000000
     atom   22 type  2   force =     0.00000000    0.00000000    0.00000000
     atom   23 type  2   force =     0.00000000    0.00000000    0.00000000
     atom   24 type  1   force =     0.00000000    0.00000000    0.00000000
     atom   25 type  2   force =     0.00000000    0.00000000    0.00000000
     atom   26 type  2   force =     0.00000000    0.00000000    0.00000000
     atom   27 type  1   force =     0.00000000    0.00000000    0.00000000
     atom   28 type  2   force =     0.00000000    0.00000000    0.00000000
     atom   29 type  2   force =     0.00000000    0.00000000    0.00000000
     atom   30 type  1   force =     0.00000000    0.00000000    0.00000000
     atom   31 type  2   force =     0.00000000    0.00000000    0.00000000
     atom   32 type  2   force =     0.00000000    0.00000000    0.00000000
     atom   33 type  1   force =     0.00000000    0.00000000    0.00000000
     atom   34 type  2   force =     0.00000000    0.00000000    0.00000000
     atom   35 type  2   force =     0.00000000    0.00000000    0.00000000
     atom   36 type  3   force =     0.00000000    0.00000000    0.00000000
     The SCF correction term to forces
     atom    1 type  1   force =     0.00006038   -0.00021619    0.00048816
     atom    2 type  2   force =     0.00004532   -0.00008028    0.00034669
     atom    3 type  2   force =     0.00001181   -0.00007423    0.00001893
     atom    4 type  1   force =     0.00006075    0.00033650    0.00067355
     atom    5 type  2   force =     0.00012293    0.00018857    0.00034572
     atom    6 type  2   force =     0.00006580    0.00006468    0.00004422
     atom    7 type  1   force =     0.00007966   -0.00017526    0.00072248
     atom    8 type  2   force =    -0.00000643    0.00005958    0.00040449
     atom    9 type  2   force =    -0.00001590    0.00003521    0.00013674
     atom   10 type  1   force =     0.00004011   -0.00024613    0.00060155
     atom   11 type  2   force =     0.00011021   -0.00019561    0.00041859
     atom   12 type  2   force =     0.00005150   -0.00003209    0.00004214
     atom   13 type  1   force =     0.00006429   -0.00011985    0.00030824
     atom   14 type  2   force =     0.00000952   -0.00001832    0.00012144
     atom   15 type  2   force =     0.00003759   -0.00006639    0.00004411
     atom   16 type  1   force =     0.00014686    0.00054593    0.00050625
     atom   17 type  2   force =    -0.00002311    0.00019639    0.00032884
     atom   18 type  2   force =     0.00000083    0.00002917    0.00000742
     atom   19 type  1   force =     0.00007868   -0.00020517    0.00069422
     atom   20 type  2   force =     0.00004688    0.00004231    0.00018386
     atom   21 type  1   force =     0.00017913   -0.00008200    0.00042987
     atom   22 type  2   force =    -0.00002427   -0.00020195    0.00036446
     atom   23 type  2   force =    -0.00001580   -0.00002101    0.00000565
     atom   24 type  1   force =    -0.00009136   -0.00004004    0.00049203
     atom   25 type  2   force =    -0.00014359   -0.00007072    0.00032053
     atom   26 type  2   force =    -0.00004700   -0.00005942   -0.00001930
     atom   27 type  1   force =    -0.00015254    0.00027802    0.00061895
     atom   28 type  2   force =    -0.00009360    0.00014897    0.00036812
     atom   29 type  2   force =    -0.00005687    0.00002738    0.00005439
     atom   30 type  1   force =    -0.00016051   -0.00000847    0.00080585
     atom   31 type  2   force =    -0.00003940    0.00008536    0.00038738
     atom   32 type  2   force =    -0.00002369    0.00005199    0.00009214
     atom   33 type  1   force =    -0.00022229   -0.00025925    0.00048201
     atom   34 type  2   force =    -0.00008149   -0.00014266    0.00038402
     atom   35 type  2   force =    -0.00003581   -0.00000722    0.00006566
     atom   36 type  3   force =    -0.00005550    0.00000790    0.00034754

     Total force =     0.889248     Total SCF correction =     0.002635

     BFGS Geometry Optimization
     Energy error            =      0.0E+00 Ry
     Gradient error          =      5.7E-01 Ry/Bohr

     number of scf cycles    =   1
     number of bfgs steps    =   0

     energy             new  =   -2246.2212383048 Ry

     new trust radius        =       0.5000000000 bohr
     new conv_thr            =       0.0000010000 Ry


ATOMIC_POSITIONS (angstrom)
Mo            6.5784147385        1.7849874113        2.8350997710
S             8.1721841956        0.8152409981        4.4341262356
S             8.1894445732        0.8136370202        1.2760614854
Mo            8.0972243697        4.4966694216        2.7169775593
S             6.4992954709        3.7203042165        4.3449303560
S             6.5538994847        3.5156773575        1.1198057789
Mo            6.4929954708        7.2120819245        2.6687594694
S             8.0819500494        6.3420264611        4.2493487309
S             8.0859604826        6.3073754973        1.0895618698
Mo            8.1566121143        9.9063762574        2.8341574830
S             6.4986968115        8.9409024609        4.3789705077
S             6.6186831169        9.0489309521        1.1415536893
Mo            3.4200194122        1.7490962027        2.7366465444
S             5.1014687745        0.7575540620        4.1444249295
S             5.0527809912        0.8478230419        1.2238648203
Mo            4.9787799449        4.5158276651        2.6352683017
S             3.4290459276        3.6760493257        4.2797122193
S             3.4360634193        3.5460361205        1.0645360746
Mo            3.4568026094        7.2117312109        2.6286621148
S             4.9843266691        6.3258626330        1.0375294003
Mo            5.0052282694        9.8988314196        2.7523816694
S             3.4695046646        8.9421349716        4.3252692179
S             3.4081792211        9.0660824031        1.0990113102
Mo            0.2922004059        1.7451443000        2.8388646813
S             1.8466810303        0.7991963325        4.3970746205
S             1.8564740841        0.8551437216        1.2091025191
Mo            1.8607703356        4.4978442558        2.6620263511
S             0.2726645415        3.6540414818        4.3360133720
S             0.2317736320        3.5268516233        1.1708771824
Mo            0.2697379604        7.2207577522        2.6992648794
S             1.9021091046        6.3123358208        4.2292214887
S             1.8588231224        6.3134265052        1.0480774324
Mo            1.8500118981        9.9397074337        2.7678031615
S             0.2973106064        9.0722135158        4.4098254300
S             0.2733920995        9.0463393449        1.1568913076
O             4.0958418543        1.2710275105        5.5786379071



     Writing config-only to output data dir ./MoS2-V-O.save/
     NEW-OLD atomic charge density approx. for the potential

     negative rho (up, down):  1.841E-04 0.000E+00

     total cpu time spent up to now is      156.3 secs

     Self-consistent Calculation

     iteration #  1     ecut=    80.00 Ry     beta= 0.70
     Davidson diagonalization with overlap
     c_bands:  1 eigenvalues not converged
     ethr =  1.00E-06,  avg # of iterations = 20.0

     negative rho (up, down):  5.432E-03 0.000E+00

     total cpu time spent up to now is      180.3 secs

     total energy              =   -2246.22563155 Ry
     estimated scf accuracy    <       0.16973127 Ry

     iteration #  2     ecut=    80.00 Ry     beta= 0.70
     Davidson diagonalization with overlap
     ethr =  5.44E-05,  avg # of iterations =  6.0

     negative rho (up, down):  8.068E-03 0.000E+00

     total cpu time spent up to now is      201.0 secs

     total energy              =   -2246.24688427 Ry
     estimated scf accuracy    <       0.13007776 Ry

     iteration #  3     ecut=    80.00 Ry     beta= 0.70
     Davidson diagonalization with overlap
     ethr =  4.17E-05,  avg # of iterations =  4.0

     negative rho (up, down):  1.522E-02 0.000E+00

     total cpu time spent up to now is      213.7 secs

     total energy              =   -2246.25127166 Ry
     estimated scf accuracy    <       0.01712156 Ry

     iteration #  4     ecut=    80.00 Ry     beta= 0.70
     Davidson diagonalization with overlap
     ethr =  5.49E-06,  avg # of iterations =  3.0

     negative rho (up, down):  1.695E-02 0.000E+00

     total cpu time spent up to now is      228.9 secs

     total energy              =   -2246.25291762 Ry
     estimated scf accuracy    <       0.00664580 Ry

     iteration #  5     ecut=    80.00 Ry     beta= 0.70
     Davidson diagonalization with overlap
     ethr =  2.13E-06,  avg # of iterations =  2.0

     negative rho (up, down):  1.730E-02 0.000E+00

     total cpu time spent up to now is      244.2 secs

     total energy              =   -2246.25240242 Ry
     estimated scf accuracy    <       0.00336893 Ry

     iteration #  6     ecut=    80.00 Ry     beta= 0.70
     Davidson diagonalization with overlap
     ethr =  1.08E-06,  avg # of iterations =  4.0

     negative rho (up, down):  1.571E-02 0.000E+00

     total cpu time spent up to now is      261.1 secs

     total energy              =   -2246.25269973 Ry
     estimated scf accuracy    <       0.00031784 Ry

     iteration #  7     ecut=    80.00 Ry     beta= 0.70
     Davidson diagonalization with overlap
     ethr =  1.02E-07,  avg # of iterations =  6.0

     negative rho (up, down):  1.215E-02 0.000E+00

     total cpu time spent up to now is      276.5 secs

     total energy              =   -2246.25264703 Ry
     estimated scf accuracy    <       0.00018200 Ry

     iteration #  8     ecut=    80.00 Ry     beta= 0.70
     Davidson diagonalization with overlap
     ethr =  5.83E-08,  avg # of iterations =  5.0

     negative rho (up, down):  8.715E-03 0.000E+00

     total cpu time spent up to now is      290.8 secs

     total energy              =   -2246.25261367 Ry
     estimated scf accuracy    <       0.00007621 Ry

     iteration #  9     ecut=    80.00 Ry     beta= 0.70
     Davidson diagonalization with overlap
     ethr =  2.44E-08,  avg # of iterations =  2.0

     negative rho (up, down):  5.033E-03 0.000E+00

     total cpu time spent up to now is      301.7 secs

     total energy              =   -2246.25256986 Ry
     estimated scf accuracy    <       0.00002792 Ry

     iteration # 10     ecut=    80.00 Ry     beta= 0.70
     Davidson diagonalization with overlap
     ethr =  8.95E-09,  avg # of iterations =  2.0

     negative rho (up, down):  2.611E-03 0.000E+00

     total cpu time spent up to now is      310.5 secs

     total energy              =   -2246.25254835 Ry
     estimated scf accuracy    <       0.00000952 Ry

     iteration # 11     ecut=    80.00 Ry     beta= 0.70
     Davidson diagonalization with overlap
     ethr =  3.05E-09,  avg # of iterations =  5.0

     negative rho (up, down):  2.148E-03 0.000E+00

     total cpu time spent up to now is      320.0 secs

     total energy              =   -2246.25254541 Ry
     estimated scf accuracy    <       0.00000506 Ry

     iteration # 12     ecut=    80.00 Ry     beta= 0.70
     Davidson diagonalization with overlap
     ethr =  1.62E-09,  avg # of iterations =  2.0

     negative rho (up, down):  5.317E-04 0.000E+00

     total cpu time spent up to now is      331.2 secs

     total energy              =   -2246.25253393 Ry
     estimated scf accuracy    <       0.00000340 Ry

     iteration # 13     ecut=    80.00 Ry     beta= 0.70
     Davidson diagonalization with overlap
     ethr =  1.09E-09,  avg # of iterations =  2.0

     negative rho (up, down):  1.933E-04 0.000E+00

     total cpu time spent up to now is      336.3 secs

     End of self-consistent calculation

          k = 0.0000 0.0000 0.0000 (105382 PWs)   bands (ev):

   -63.1285 -63.0558 -63.0498 -63.0314 -63.0113 -63.0012 -62.9920 -62.9859
   -62.9725 -62.9643 -62.9590 -62.9075 -37.5026 -37.3873 -37.3717 -37.3557
   -37.3239 -37.3128 -37.2973 -37.2835 -37.2691 -37.2549 -37.2401 -37.2377
   -37.2231 -37.2144 -37.1903 -37.1849 -37.1822 -37.1698 -37.1676 -37.1605
   -37.1487 -37.1427 -37.1325 -37.1272 -37.1231 -37.1159 -37.0916 -37.0715
   -37.0672 -37.0606 -37.0547 -37.0390 -37.0191 -36.9766 -36.9377 -36.9283
   -19.1585 -16.1332 -15.3879 -15.3439 -15.1637 -15.1076 -14.9413 -14.6792
   -14.6495 -14.6369 -14.6028 -14.5765 -14.5595 -14.4786 -14.4167 -14.3409
   -14.3083 -14.2751 -14.2437 -14.1717 -14.0465 -14.0411 -14.0106 -13.9332
    -7.9570  -7.8290  -7.7010  -7.5979  -7.4887  -7.4452  -7.4384  -7.3125
    -7.2267  -7.0320  -6.9546  -6.9255  -6.8748  -6.8142  -6.7539  -6.6389
    -6.6123  -6.5837  -6.4923  -6.4372  -6.2561  -6.1075  -6.0795  -5.9837
    -5.9806  -5.9540  -5.9170  -5.8682  -5.8222  -5.8179  -5.7839  -5.7069
    -5.6307  -5.6085  -5.5671  -5.4085  -5.3487  -5.2504  -5.2197  -5.1938
    -5.1390  -5.0886  -5.0169  -4.9053  -4.7638  -4.6837  -4.5368  -4.4913
    -4.3990  -4.3815  -4.2727  -4.2203  -4.1714  -4.1125  -3.9891  -3.9178
    -3.8662  -3.7931  -3.7497  -3.7125  -3.6895  -3.6742  -3.6486  -3.6437
    -3.6196  -3.5906  -3.4618  -3.3461  -3.1892  -3.0794  -3.0478  -3.0046
    -2.9715  -2.9646  -2.8819  -2.8638  -2.8196  -2.7553  -2.4450  -2.3757
    -2.2185  -2.1383  -2.0363  -1.5961  -0.9963  -0.9439  -0.7289  -0.4027
    -0.3280  -0.2971  -0.1194  -0.0854  -0.0525   0.0113   0.0590   0.0904
     0.1771   0.2350   0.2700   0.3278   0.3475   0.3713   0.3968   0.4193
     0.5059   0.5627   0.5736   0.5931   0.6548   0.6943   0.7667   0.7888
     0.8707   0.9919   1.0976

     the Fermi energy is    -1.2980 ev

!    total energy              =   -2246.25253415 Ry
     estimated scf accuracy    <       0.00000061 Ry
     smearing contrib. (-TS)   =      -0.00009426 Ry
     internal energy E=F+TS    =   -2246.25243988 Ry

     The total energy is F=E-TS. E is the sum of the following terms:
     one-electron contribution =  -18444.49846424 Ry
     hartree contribution      =    9209.41764293 Ry
     xc contribution           =    -392.00666114 Ry
     ewald contribution        =    7390.70573574 Ry
     one-center paw contrib.   =      -9.87069318 Ry

     convergence has been achieved in  13 iterations

     negative rho (up, down):  1.933E-04 0.000E+00

     Forces acting on atoms (cartesian axes, Ry/au):

     atom    1 type  1   force =     0.06108369    0.02472237   -0.04270964
     atom    2 type  2   force =    -0.00274576    0.00846131    0.00354762
     atom    3 type  2   force =    -0.01017832    0.00571197   -0.00712746
     atom    4 type  1   force =     0.00384753    0.00542079   -0.00202872
     atom    5 type  2   force =    -0.00075780   -0.00563062   -0.00233286
     atom    6 type  2   force =     0.00060526    0.00981249   -0.00182944
     atom    7 type  1   force =     0.00671602   -0.01126234   -0.00304406
     atom    8 type  2   force =     0.00100153   -0.00475053    0.01446573
     atom    9 type  2   force =     0.01129470    0.00531315    0.00900065
     atom   10 type  1   force =    -0.00363685    0.00816224   -0.01445935
     atom   11 type  2   force =     0.00906881   -0.00726682   -0.00642549
     atom   12 type  2   force =    -0.00238218    0.00009620    0.00286916
     atom   13 type  1   force =    -0.00696361    0.00944795   -0.02050263
     atom   14 type  2   force =    -0.16622394    0.07973556    0.21912901
     atom   15 type  2   force =    -0.00497086    0.00055542   -0.02417101
     atom   16 type  1   force =    -0.00250536    0.00632626    0.00441713
     atom   17 type  2   force =     0.00328593   -0.00491660   -0.00326709
     atom   18 type  2   force =    -0.00346273   -0.00221796    0.00737812
     atom   19 type  1   force =     0.00171410   -0.00945054   -0.00096870
     atom   20 type  2   force =     0.00298735   -0.00349980   -0.00206278
     atom   21 type  1   force =    -0.00466415   -0.05124360   -0.03661947
     atom   22 type  2   force =    -0.00474342   -0.00219547    0.00063787
     atom   23 type  2   force =    -0.00079218    0.00001438    0.00417327
     atom   24 type  1   force =    -0.01214101   -0.00450950   -0.01772917
     atom   25 type  2   force =     0.01381404    0.01825921   -0.00621056
     atom   26 type  2   force =    -0.01248654   -0.00113841   -0.01101611
     atom   27 type  1   force =     0.00180461    0.00734911    0.00436456
     atom   28 type  2   force =     0.00125705   -0.00291104   -0.00398852
     atom   29 type  2   force =     0.00096141    0.00057957   -0.00515943
     atom   30 type  1   force =    -0.00314769    0.00446250    0.00011756
     atom   31 type  2   force =     0.00036345   -0.00001942    0.01313531
     atom   32 type  2   force =    -0.00711551    0.00610503    0.00644423
     atom   33 type  1   force =     0.00554986    0.00095213   -0.00307892
     atom   34 type  2   force =     0.00147576   -0.03373418   -0.01183441
     atom   35 type  2   force =    -0.00690837    0.00669145    0.00911155
     atom   36 type  3   force =     0.12899520   -0.06343227   -0.07222593
     The non-local contrib.  to forces
     atom    1 type  1   force =    -0.00300469    0.01415400   -0.00498024
     atom    2 type  2   force =    -0.01084847    0.00313456   -0.27449611
     atom    3 type  2   force =    -0.01354586   -0.00589019    0.26594325
     atom    4 type  1   force =     0.00512440    0.00916662    0.00830652
     atom    5 type  2   force =     0.00652380   -0.03463851   -0.25575254
     atom    6 type  2   force =    -0.00212101    0.01094403    0.26168230
     atom    7 type  1   force =    -0.01987326   -0.00050355   -0.01813825
     atom    8 type  2   force =     0.00154412   -0.00244941   -0.26113143
     atom    9 type  2   force =     0.00467492   -0.00750773    0.27473252
     atom   10 type  1   force =     0.01153808   -0.00210602   -0.00343373
     atom   11 type  2   force =     0.00916013    0.00630490   -0.26627702
     atom   12 type  2   force =    -0.01438233   -0.01785408    0.26288352
     atom   13 type  1   force =     0.00271632    0.02472597    0.00778305
     atom   14 type  2   force =    -0.25751238    0.10886606    0.34077607
     atom   15 type  2   force =    -0.00600004   -0.01057672    0.25723924
     atom   16 type  1   force =    -0.00457911    0.02753114   -0.03122093
     atom   17 type  2   force =     0.00699149   -0.00589670   -0.25650412
     atom   18 type  2   force =    -0.00149751   -0.00385011    0.27072491
     atom   19 type  1   force =     0.00382841   -0.00325363   -0.01856845
     atom   20 type  2   force =     0.00080726   -0.02155849    0.26589370
     atom   21 type  1   force =     0.00472072    0.03173266   -0.00041814
     atom   22 type  2   force =    -0.00555677    0.00162503   -0.26303942
     atom   23 type  2   force =     0.00857023   -0.01666949    0.26375479
     atom   24 type  1   force =     0.01743129    0.01072347    0.00072070
     atom   25 type  2   force =    -0.00815688    0.00279624   -0.26582478
     atom   26 type  2   force =     0.00010119   -0.01505783    0.25937273
     atom   27 type  1   force =     0.00026289    0.00073930    0.01022792
     atom   28 type  2   force =    -0.00683613   -0.02204619   -0.27831680
     atom   29 type  2   force =     0.00658827    0.00157786    0.26131451
     atom   30 type  1   force =     0.00269748    0.01849668    0.00893474
     atom   31 type  2   force =    -0.00437284    0.00355373   -0.25935742
     atom   32 type  2   force =     0.00007304   -0.00829073    0.27430972
     atom   33 type  1   force =    -0.00847481    0.01069645    0.00515319
     atom   34 type  2   force =    -0.00373583   -0.02909886   -0.27907442
     atom   35 type  2   force =    -0.00287729   -0.00903117    0.26969262
     atom   36 type  3   force =     0.86878680   -0.45132746   -1.05704342
     The ionic contribution  to forces
     atom    1 type  1   force =     2.78733731    1.83119873    2.98097152
     atom    2 type  2   force =     0.08296909    0.21288976   39.07935687
     atom    3 type  2   force =    -0.07336495    0.01350209  -36.87580426
     atom    4 type  1   force =     0.34370952    1.12680217   -0.39172195
     atom    5 type  2   force =    -0.27293862    2.42379716   38.29018045
     atom    6 type  2   force =     0.48567200   -0.30958775  -38.68850654
     atom    7 type  1   force =    -2.36208328   -2.93443264    1.47492849
     atom    8 type  2   force =    -0.89061235    0.09942968   37.30934211
     atom    9 type  2   force =     0.37670673   -0.03505858  -38.44834038
     atom   10 type  1   force =    -0.37798867   -1.11359676    4.16007602
     atom   11 type  2   force =    -0.04813428   -2.41875064   38.85570291
     atom   12 type  2   force =     0.47851023    0.44841528  -38.46132224
     atom   13 type  1   force =    -1.05907777    1.99157900   -3.35972538
     atom   14 type  2   force =     2.23817110   -1.32035569   32.11991054
     atom   15 type  2   force =     0.46509093   -0.18949361  -38.19078458
     atom   16 type  1   force =     0.31837497    5.11683081   -1.02912839
     atom   17 type  2   force =     0.28771289    3.14501463   36.82906374
     atom   18 type  2   force =    -0.22362519   -0.17702145  -39.38035208
     atom   19 type  1   force =     2.50357347   -2.72260617   -0.51197622
     atom   20 type  2   force =     0.25328811   -0.15854786  -39.05051132
     atom   21 type  1   force =     0.37387975   -2.88682111   -1.50749106
     atom   22 type  2   force =     0.11409639   -2.88004392   38.00510686
     atom   23 type  2   force =    -0.13114857    0.34642515  -38.99834426
     atom   24 type  1   force =    -1.02256563    1.37494877    3.97960027
     atom   25 type  2   force =    -1.41049755   -0.16295664   37.89724953
     atom   26 type  2   force =    -0.65537987   -0.08119936  -38.25409086
     atom   27 type  1   force =    -0.55932389    1.27624837   -3.42682602
     atom   28 type  2   force =    -0.20208587    1.36111726   37.89757434
     atom   29 type  2   force =    -0.32774339   -0.21664404  -37.85388610
     atom   30 type  1   force =    -0.39322950   -1.13515462   -0.93285356
     atom   31 type  2   force =     1.04390941    0.08854381   37.16550581
     atom   32 type  2   force =    -0.53175489    0.01927145  -39.09501834
     atom   33 type  1   force =    -0.32257248   -1.88745323    0.28656062
     atom   34 type  2   force =     0.03030891   -1.68234082   39.06840568
     atom   35 type  2   force =    -0.31322804    0.32923542  -38.29246617
     atom   36 type  3   force =    -1.00595599    1.10681534   47.34961396
     The local contribution  to forces
     atom    1 type  1   force =    -2.72319195   -1.82065731   -3.01819517
     atom    2 type  2   force =    -0.07548836   -0.20732911  -38.82205069
     atom    3 type  2   force =     0.07605158   -0.00212275   36.62346475
     atom    4 type  1   force =    -0.34522662   -1.13104173    0.38192548
     atom    5 type  2   force =     0.26629585   -2.39688809  -38.05712708
     atom    6 type  2   force =    -0.48329625    0.30946063   38.44564502
     atom    7 type  1   force =     2.38840404    2.92386041   -1.45936425
     atom    8 type  2   force =     0.88997172   -0.10222843  -37.05418802
     atom    9 type  2   force =    -0.37011911    0.04743615   38.20332995
     atom   10 type  1   force =     0.36253671    1.12433121   -4.17044810
     atom   11 type  2   force =     0.04825339    2.40608769  -38.61652362
     atom   12 type  2   force =    -0.46776627   -0.43169476   38.22202041
     atom   13 type  1   force =     1.04951953   -2.00688233    3.33192405
     atom   14 type  2   force =    -2.16042605    1.29758448  -32.23178682
     atom   15 type  2   force =    -0.46456213    0.20009143   37.92969114
     atom   16 type  1   force =    -0.31626204   -5.13832482    1.06531540
     atom   17 type  2   force =    -0.29125607   -3.14370798  -36.59650879
     atom   18 type  2   force =     0.22182102    0.17893106   39.13787883
     atom   19 type  1   force =    -2.50555069    2.71657550    0.53014790
     atom   20 type  2   force =    -0.25124216    0.17574997   38.80360410
     atom   21 type  1   force =    -0.38318886    2.80396279    1.47179323
     atom   22 type  2   force =    -0.11315980    2.87666031  -37.76209893
     atom   23 type  2   force =     0.12249296   -0.33099833   38.75939228
     atom   24 type  1   force =     0.99285364   -1.39032047   -3.99729890
     atom   25 type  2   force =     1.43066747    0.17841052  -37.65874094
     atom   26 type  2   force =     0.64319487    0.09443278   38.00434983
     atom   27 type  1   force =     0.56103782   -1.26987079    3.42153590
     atom   28 type  2   force =     0.20971189   -1.34377075  -37.64412702
     atom   29 type  2   force =     0.32259384    0.21610482   37.60772152
     atom   30 type  1   force =     0.38751849    1.12117551    0.92448392
     atom   31 type  2   force =    -1.03933921   -0.09206465  -36.91351976
     atom   32 type  2   force =     0.52491268   -0.00534550   38.84801288
     atom   33 type  1   force =     0.33674949    1.87795120   -0.29406652
     atom   34 type  2   force =    -0.02557106    1.67697250  -38.82227645
     atom   35 type  2   force =     0.30922448   -0.31429100   38.05277954
     atom   36 type  3   force =     0.27621268   -0.72410461  -46.37601994
     The core correction contribution to forces
     atom    1 type  1   force =     0.00000000    0.00000000    0.00000000
     atom    2 type  2   force =     0.00055481   -0.00018222    0.02105518
     atom    3 type  2   force =     0.00058682    0.00026904   -0.02078039
     atom    4 type  1   force =     0.00000000    0.00000000    0.00000000
     atom    5 type  2   force =    -0.00071889    0.00195964    0.02070480
     atom    6 type  2   force =     0.00029782   -0.00112184   -0.02073595
     atom    7 type  1   force =     0.00000000    0.00000000    0.00000000
     atom    8 type  2   force =     0.00004263    0.00044649    0.02075643
     atom    9 type  2   force =     0.00002551    0.00040672   -0.02099280
     atom   10 type  1   force =     0.00000000    0.00000000    0.00000000
     atom   11 type  2   force =    -0.00032321   -0.00071558    0.02102517
     atom   12 type  2   force =     0.00116023    0.00137934   -0.02085565
     atom   13 type  1   force =     0.00000000    0.00000000    0.00000000
     atom   14 type  2   force =     0.01360618   -0.00637724   -0.00946294
     atom   15 type  2   force =     0.00058220    0.00052753   -0.02040212
     atom   16 type  1   force =     0.00000000    0.00000000    0.00000000
     atom   17 type  2   force =    -0.00007562   -0.00038681    0.02107763
     atom   18 type  2   force =    -0.00007240   -0.00032635   -0.02100833
     atom   19 type  1   force =     0.00000000    0.00000000    0.00000000
     atom   20 type  2   force =     0.00008801    0.00081840   -0.02124850
     atom   21 type  1   force =     0.00000000    0.00000000    0.00000000
     atom   22 type  2   force =    -0.00006465   -0.00033664    0.02102753
     atom   23 type  2   force =    -0.00062712    0.00130542   -0.02075213
     atom   24 type  1   force =     0.00000000    0.00000000    0.00000000
     atom   25 type  2   force =     0.00178597   -0.00000866    0.02155072
     atom   26 type  2   force =    -0.00039693    0.00069085   -0.02076323
     atom   27 type  1   force =     0.00000000    0.00000000    0.00000000
     atom   28 type  2   force =     0.00046253    0.00161801    0.02119780
     atom   29 type  2   force =    -0.00051239   -0.00055845   -0.02046590
     atom   30 type  1   force =     0.00000000    0.00000000    0.00000000
     atom   31 type  2   force =     0.00028884   -0.00005740    0.02079709
     atom   32 type  2   force =    -0.00030250    0.00047323   -0.02107585
     atom   33 type  1   force =     0.00000000    0.00000000    0.00000000
     atom   34 type  2   force =     0.00053024    0.00090233    0.02142701
     atom   35 type  2   force =    -0.00001910    0.00085999   -0.02108030
     atom   36 type  3   force =    -0.01010343    0.00519984    0.01160556
     The Hubbard contrib.    to forces
     atom    1 type  1   force =     0.00000000    0.00000000    0.00000000
     atom    2 type  2   force =     0.00000000    0.00000000    0.00000000
     atom    3 type  2   force =     0.00000000    0.00000000    0.00000000
     atom    4 type  1   force =     0.00000000    0.00000000    0.00000000
     atom    5 type  2   force =     0.00000000    0.00000000    0.00000000
     atom    6 type  2   force =     0.00000000    0.00000000    0.00000000
     atom    7 type  1   force =     0.00000000    0.00000000    0.00000000
     atom    8 type  2   force =     0.00000000    0.00000000    0.00000000
     atom    9 type  2   force =     0.00000000    0.00000000    0.00000000
     atom   10 type  1   force =     0.00000000    0.00000000    0.00000000
     atom   11 type  2   force =     0.00000000    0.00000000    0.00000000
     atom   12 type  2   force =     0.00000000    0.00000000    0.00000000
     atom   13 type  1   force =     0.00000000    0.00000000    0.00000000
     atom   14 type  2   force =     0.00000000    0.00000000    0.00000000
     atom   15 type  2   force =     0.00000000    0.00000000    0.00000000
     atom   16 type  1   force =     0.00000000    0.00000000    0.00000000
     atom   17 type  2   force =     0.00000000    0.00000000    0.00000000
     atom   18 type  2   force =     0.00000000    0.00000000    0.00000000
     atom   19 type  1   force =     0.00000000    0.00000000    0.00000000
     atom   20 type  2   force =     0.00000000    0.00000000    0.00000000
     atom   21 type  1   force =     0.00000000    0.00000000    0.00000000
     atom   22 type  2   force =     0.00000000    0.00000000    0.00000000
     atom   23 type  2   force =     0.00000000    0.00000000    0.00000000
     atom   24 type  1   force =     0.00000000    0.00000000    0.00000000
     atom   25 type  2   force =     0.00000000    0.00000000    0.00000000
     atom   26 type  2   force =     0.00000000    0.00000000    0.00000000
     atom   27 type  1   force =     0.00000000    0.00000000    0.00000000
     atom   28 type  2   force =     0.00000000    0.00000000    0.00000000
     atom   29 type  2   force =     0.00000000    0.00000000    0.00000000
     atom   30 type  1   force =     0.00000000    0.00000000    0.00000000
     atom   31 type  2   force =     0.00000000    0.00000000    0.00000000
     atom   32 type  2   force =     0.00000000    0.00000000    0.00000000
     atom   33 type  1   force =     0.00000000    0.00000000    0.00000000
     atom   34 type  2   force =     0.00000000    0.00000000    0.00000000
     atom   35 type  2   force =     0.00000000    0.00000000    0.00000000
     atom   36 type  3   force =     0.00000000    0.00000000    0.00000000
     The SCF correction term to forces
     atom    1 type  1   force =    -0.00005845    0.00002713   -0.00051782
     atom    2 type  2   force =     0.00006571   -0.00005149   -0.00032969
     atom    3 type  2   force =     0.00009262   -0.00004603    0.00003712
     atom    4 type  1   force =     0.00023876    0.00049391   -0.00055084
     atom    5 type  2   force =     0.00007861    0.00013936   -0.00035057
     atom    6 type  2   force =     0.00005123    0.00011760    0.00007366
     atom    7 type  1   force =     0.00026705   -0.00018638   -0.00048211
     atom    8 type  2   force =     0.00005394    0.00005131   -0.00032541
     atom    9 type  2   force =     0.00000518    0.00003677    0.00025929
     atom   10 type  1   force =     0.00027556   -0.00046601   -0.00066562
     atom   11 type  2   force =     0.00011131   -0.00019300   -0.00036499
     atom   12 type  2   force =     0.00009450   -0.00014940    0.00013105
     atom   13 type  1   force =    -0.00012317    0.00002549   -0.00049641
     atom   14 type  2   force =    -0.00006426    0.00001812   -0.00031991
     atom   15 type  2   force =    -0.00008329    0.00000697    0.00007324
     atom   16 type  1   force =    -0.00004064    0.00028931   -0.00056102
     atom   17 type  2   force =    -0.00008822    0.00006044   -0.00040762
     atom   18 type  2   force =    -0.00009012    0.00004907    0.00012272
     atom   19 type  1   force =    -0.00013856   -0.00016607   -0.00058399
     atom   20 type  2   force =     0.00004466    0.00003835    0.00018717
     atom   21 type  1   force =    -0.00007722   -0.00011777   -0.00051557
     atom   22 type  2   force =    -0.00006005   -0.00010007   -0.00037025
     atom   23 type  2   force =    -0.00008115   -0.00004819    0.00011053
     atom   24 type  1   force =     0.00013823    0.00013891   -0.00076330
     atom   25 type  2   force =     0.00001356    0.00001794   -0.00045716
     atom   26 type  2   force =    -0.00000727   -0.00000467    0.00010335
     atom   27 type  1   force =    -0.00017367    0.00023241   -0.00058531
     atom   28 type  2   force =     0.00000317    0.00017081   -0.00032891
     atom   29 type  2   force =     0.00003361    0.00009955    0.00014448
     atom   30 type  1   force =    -0.00013564   -0.00005489   -0.00045961
     atom   31 type  2   force =    -0.00012420    0.00000527   -0.00030248
     atom   32 type  2   force =    -0.00004530   -0.00000324    0.00020375
     atom   33 type  1   force =    -0.00015380   -0.00024211   -0.00073827
     atom   34 type  2   force =    -0.00005797   -0.00016914   -0.00032829
     atom   35 type  2   force =    -0.00000988   -0.00008161    0.00017380
     atom   36 type  3   force =     0.00005367   -0.00001520   -0.00039416

     Total force =     0.352750     Total SCF correction =     0.002704
     Energy error            =      3.1E-02 Ry
     Gradient error          =      2.2E-01 Ry/Bohr

     number of scf cycles    =   2
     number of bfgs steps    =   1

     energy             old  =   -2246.2212383047 Ry
     energy             new  =   -2246.2525341464 Ry

     CASE: energy            _new < energy            _old

     new trust radius        =       0.1663903766 bohr
     new conv_thr            =       0.0000002191 Ry


ATOMIC_POSITIONS (angstrom)
Mo            6.6034521993        1.7946361564        2.8191591465
S             8.1705776582        0.8192621438        4.4355099733
S             8.1849249726        0.8162031357        1.2729884686
Mo            8.0990024532        4.4990316792        2.7160672450
S             6.4989223019        3.7178027180        4.3437991673
S             6.5542041091        3.5200662965        1.1189057023
Mo            6.4960344906        7.2068417940        2.6671875464
S             8.0823781354        6.3399085887        4.2559382738
S             8.0910685377        6.3098116596        1.0938182059
Mo            8.1547038589        9.9101286354        2.8273032759
S             6.5027407342        8.9377509216        4.3759245731
S             6.6178047245        9.0489940055        1.1428916680
Mo            3.4170324964        1.7531393247        2.7239832340
S             5.0484629194        0.7831128686        4.2099224748
S             5.0502196472        0.8482193907        1.2138176995
Mo            4.9776625725        4.5186693974        2.6373114644
S             3.4305029402        3.6745604298        4.2783962343
S             3.4344629925        3.5449001156        1.0681923893
Mo            3.4578183445        7.2074158450        2.6280490855
S             4.9856510247        6.3243343387        1.0367288036
Mo            5.0025712706        9.8778797910        2.7386209628
S             3.4674328958        8.9410717395        4.3254905966
S             3.4078324274        9.0662089732        1.1010180579
Mo            0.2868788303        1.7430659667        2.8305520518
S             1.8518285185        0.8072716816        4.3944469833
S             1.8509651060        0.8547644286        1.2046312569
Mo            1.8615061329        4.5010458818        2.6639869992
S             0.2732208217        3.6528291437        4.3342327763
S             0.2322209436        3.5270411671        1.1686723861
Mo            0.2683134337        7.2230102328        2.6990434116
S             1.9022412570        6.3122768067        4.2352628771
S             1.8555787849        6.3162269831        1.0510627146
Mo            1.8528742277        9.9400433078        2.7659940745
S             0.2980597036        9.0566561230        4.4046103588
S             0.2702351706        9.0493463360        1.1612798532
O             4.1359648195        1.2517406254        5.5755398794



     Writing config-only to output data dir ./MoS2-V-O.save/
     NEW-OLD atomic charge density approx. for the potential

     negative rho (up, down):  2.123E-04 0.000E+00

     total cpu time spent up to now is      345.6 secs

     Self-consistent Calculation

     iteration #  1     ecut=    80.00 Ry     beta= 0.70
     Davidson diagonalization with overlap
     ethr =  1.00E-06,  avg # of iterations = 11.0

     negative rho (up, down):  8.307E-05 0.000E+00

     total cpu time spent up to now is      363.2 secs

     total energy              =   -2246.31533825 Ry
     estimated scf accuracy    <       0.00797109 Ry

     iteration #  2     ecut=    80.00 Ry     beta= 0.70
     Davidson diagonalization with overlap
     ethr =  2.55E-06,  avg # of iterations =  3.0

     negative rho (up, down):  6.250E-05 0.000E+00

     total cpu time spent up to now is      377.0 secs

     total energy              =   -2246.31561320 Ry
     estimated scf accuracy    <       0.00261201 Ry

     iteration #  3     ecut=    80.00 Ry     beta= 0.70
     Davidson diagonalization with overlap
     ethr =  8.37E-07,  avg # of iterations =  3.0

     negative rho (up, down):  5.986E-05 0.000E+00

     total cpu time spent up to now is      395.3 secs

     total energy              =   -2246.31564346 Ry
     estimated scf accuracy    <       0.00059108 Ry

     iteration #  4     ecut=    80.00 Ry     beta= 0.70
     Davidson diagonalization with overlap
     ethr =  1.89E-07,  avg # of iterations =  5.0

     negative rho (up, down):  5.689E-05 0.000E+00

     total cpu time spent up to now is      409.6 secs

     total energy              =   -2246.31570153 Ry
     estimated scf accuracy    <       0.00008508 Ry

     iteration #  5     ecut=    80.00 Ry     beta= 0.70
     Davidson diagonalization with overlap
     ethr =  2.73E-08,  avg # of iterations =  4.0

     negative rho (up, down):  4.691E-05 0.000E+00

     total cpu time spent up to now is      422.5 secs

     total energy              =   -2246.31571008 Ry
     estimated scf accuracy    <       0.00002231 Ry

     iteration #  6     ecut=    80.00 Ry     beta= 0.70
     Davidson diagonalization with overlap
     ethr =  7.15E-09,  avg # of iterations =  4.0

     negative rho (up, down):  3.302E-05 0.000E+00

     total cpu time spent up to now is      436.9 secs

     total energy              =   -2246.31571389 Ry
     estimated scf accuracy    <       0.00000583 Ry

     iteration #  7     ecut=    80.00 Ry     beta= 0.70
     Davidson diagonalization with overlap
     ethr =  1.87E-09,  avg # of iterations =  5.0

     negative rho (up, down):  2.786E-05 0.000E+00

     total cpu time spent up to now is      449.1 secs

     total energy              =   -2246.31571668 Ry
     estimated scf accuracy    <       0.00000179 Ry

     iteration #  8     ecut=    80.00 Ry     beta= 0.70
     Davidson diagonalization with overlap
     ethr =  5.74E-10,  avg # of iterations =  4.0

     negative rho (up, down):  3.741E-05 0.000E+00

     total cpu time spent up to now is      462.9 secs

     total energy              =   -2246.31571815 Ry
     estimated scf accuracy    <       0.00000068 Ry

     iteration #  9     ecut=    80.00 Ry     beta= 0.70
     Davidson diagonalization with overlap
     ethr =  2.17E-10,  avg # of iterations =  3.0

     negative rho (up, down):  8.562E-05 0.000E+00

     total cpu time spent up to now is      478.2 secs

     total energy              =   -2246.31571886 Ry
     estimated scf accuracy    <       0.00000022 Ry

     iteration # 10     ecut=    80.00 Ry     beta= 0.70
     Davidson diagonalization with overlap
     ethr =  7.09E-11,  avg # of iterations =  4.0

     negative rho (up, down):  1.933E-04 0.000E+00

     total cpu time spent up to now is      483.5 secs

     End of self-consistent calculation

          k = 0.0000 0.0000 0.0000 (105382 PWs)   bands (ev):

   -63.1013 -63.0328 -63.0204 -63.0121 -62.9969 -62.9889 -62.9774 -62.9722
   -62.9631 -62.9489 -62.9398 -62.8657 -37.4461 -37.3643 -37.3381 -37.3251
   -37.2972 -37.2891 -37.2802 -37.2525 -37.2478 -37.2349 -37.2158 -37.2131
   -37.1981 -37.1915 -37.1709 -37.1683 -37.1662 -37.1539 -37.1529 -37.1423
   -37.1373 -37.1263 -37.1110 -37.1083 -37.1018 -37.0984 -37.0680 -37.0495
   -37.0448 -37.0370 -37.0249 -37.0219 -36.9994 -36.9555 -36.9163 -36.9128
   -20.1121 -16.1032 -15.3506 -15.2831 -15.1277 -15.0748 -14.9033 -14.6355
   -14.6224 -14.5978 -14.5867 -14.5511 -14.5269 -14.4566 -14.3856 -14.3047
   -14.2935 -14.2544 -14.2337 -14.0866 -14.0400 -14.0242 -13.9891 -13.9149
    -7.9241  -7.7654  -7.6446  -7.5792  -7.4568  -7.4414  -7.4225  -7.3023
    -7.2172  -7.0288  -6.9448  -6.9213  -6.8572  -6.8142  -6.7307  -6.6984
    -6.5992  -6.5831  -6.4834  -6.4193  -6.2393  -6.0842  -6.0782  -5.9751
    -5.9712  -5.9415  -5.8980  -5.8466  -5.8123  -5.8063  -5.7683  -5.6717
    -5.6011  -5.5875  -5.5489  -5.3729  -5.3165  -5.2436  -5.2211  -5.1759
    -5.1264  -5.0945  -4.9989  -4.9145  -4.7829  -4.6699  -4.5265  -4.4846
    -4.3848  -4.3783  -4.2700  -4.2266  -4.1968  -4.0930  -3.9924  -3.9031
    -3.8512  -3.7885  -3.7403  -3.7028  -3.6718  -3.6551  -3.6391  -3.6261
    -3.5904  -3.5716  -3.4724  -3.3506  -3.1821  -3.0511  -3.0294  -2.9937
    -2.9673  -2.9467  -2.8700  -2.8444  -2.8032  -2.7324  -2.5025  -2.4278
    -2.2182  -2.1314  -2.0623  -1.7862  -0.9711  -0.9183  -0.6495  -0.3807
    -0.3115  -0.2490  -0.0890  -0.0528  -0.0279   0.0222   0.0789   0.1189
     0.2028   0.2615   0.2955   0.3419   0.3787   0.4033   0.4201   0.4435
     0.5329   0.5873   0.5917   0.6195   0.6853   0.7284   0.7855   0.8049
     0.8805   0.9842   1.1112

     the Fermi energy is    -1.3794 ev

!    total energy              =   -2246.31571894 Ry
     estimated scf accuracy    <       0.00000008 Ry
     smearing contrib. (-TS)   =      -0.00000149 Ry
     internal energy E=F+TS    =   -2246.31571745 Ry

     The total energy is F=E-TS. E is the sum of the following terms:
     one-electron contribution =  -18437.86310531 Ry
     hartree contribution      =    9206.27075272 Ry
     xc contribution           =    -392.01775822 Ry
     ewald contribution        =    7387.16189630 Ry
     one-center paw contrib.   =      -9.86750294 Ry

     convergence has been achieved in  10 iterations

     negative rho (up, down):  1.933E-04 0.000E+00

     Forces acting on atoms (cartesian axes, Ry/au):

     atom    1 type  1   force =     0.01130252    0.00015165   -0.00618397
     atom    2 type  2   force =    -0.00301489    0.00826319   -0.00103588
     atom    3 type  2   force =    -0.00672779    0.00394157   -0.01435771
     atom    4 type  1   force =     0.00325945    0.00436204    0.00084831
     atom    5 type  2   force =     0.00196511   -0.00375969   -0.00376015
     atom    6 type  2   force =     0.00173772    0.01127601   -0.00332339
     atom    7 type  1   force =     0.00644804   -0.00896944   -0.00028172
     atom    8 type  2   force =     0.00160964   -0.00476235    0.01108929
     atom    9 type  2   force =     0.01051563    0.00481051    0.00564779
     atom   10 type  1   force =    -0.00429742    0.00739439   -0.00529494
     atom   11 type  2   force =     0.00585908   -0.00554711   -0.00940290
     atom   12 type  2   force =    -0.00066694   -0.00297611   -0.00170671
     atom   13 type  1   force =    -0.00444899    0.00664082   -0.01692931
     atom   14 type  2   force =    -0.13158235    0.07171924    0.14606420
     atom   15 type  2   force =    -0.00014556   -0.00173523   -0.01259758
     atom   16 type  1   force =     0.00066145    0.00385956    0.00299513
     atom   17 type  2   force =     0.00245700   -0.00393425   -0.00368527
     atom   18 type  2   force =    -0.00295049    0.00204181    0.00353433
     atom   19 type  1   force =     0.00003636   -0.00666066    0.00156653
     atom   20 type  2   force =     0.00278037   -0.00345310   -0.00304536
     atom   21 type  1   force =    -0.00292876   -0.01225324   -0.00374449
     atom   22 type  2   force =    -0.00340681   -0.00419486   -0.00130564
     atom   23 type  2   force =    -0.00239567   -0.00317267    0.00014968
     atom   24 type  1   force =    -0.00542158   -0.00332828   -0.00862946
     atom   25 type  2   force =     0.00917180    0.01643546   -0.01163700
     atom   26 type  2   force =    -0.01218157   -0.00291902   -0.01301511
     atom   27 type  1   force =     0.00050616    0.00327956    0.00435489
     atom   28 type  2   force =     0.00081713   -0.00321175   -0.00520728
     atom   29 type  2   force =     0.00151159    0.00253921   -0.00509257
     atom   30 type  1   force =    -0.00177330    0.00014181    0.00388328
     atom   31 type  2   force =     0.00004984   -0.00007358    0.00998927
     atom   32 type  2   force =    -0.00631495    0.00581759    0.00506602
     atom   33 type  1   force =     0.00456427    0.00077175    0.00058860
     atom   34 type  2   force =     0.00053086   -0.02611633   -0.01302228
     atom   35 type  2   force =    -0.00528822    0.00681910    0.00565576
     atom   36 type  3   force =     0.12776128   -0.06319760   -0.05817438
     The non-local contrib.  to forces
     atom    1 type  1   force =     0.00401108    0.01676141   -0.00524179
     atom    2 type  2   force =    -0.01033426    0.00200517   -0.27445140
     atom    3 type  2   force =    -0.01029868   -0.00704641    0.26054451
     atom    4 type  1   force =     0.00501051    0.00898262    0.00701975
     atom    5 type  2   force =     0.00843777   -0.03139509   -0.25654287
     atom    6 type  2   force =    -0.00028761    0.01067305    0.26180941
     atom    7 type  1   force =    -0.01817075   -0.00129915   -0.02008580
     atom    8 type  2   force =     0.00206765   -0.00303218   -0.26257088
     atom    9 type  2   force =     0.00395294   -0.00843145    0.27296626
     atom   10 type  1   force =     0.00905384   -0.00009368   -0.00403578
     atom   11 type  2   force =     0.00891474    0.00566121   -0.26610744
[...]
     atom   28 type  2   force =    -0.00016566   -0.01329830   -0.27884487
     atom   29 type  2   force =     0.00052743   -0.01090535    0.27080199
     atom   30 type  1   force =     0.00046021    0.02101623    0.00411431
     atom   31 type  2   force =    -0.00540888    0.00160319   -0.26672626
     atom   32 type  2   force =     0.00673837   -0.01426880    0.26921247
     atom   33 type  1   force =    -0.00189389    0.00744263    0.00194090
     atom   34 type  2   force =    -0.00057149   -0.00688129   -0.27546007
     atom   35 type  2   force =     0.00084812   -0.01272158    0.26684510
     atom   36 type  3   force =    -0.00097775    0.02191478   -2.32538144
     The ionic contribution  to forces
     atom    1 type  1   force =     0.69589622    1.32194334   -1.98451961
     atom    2 type  2   force =     0.85843699    0.09582246   38.10438861
     atom    3 type  2   force =     0.08220028   -0.17041409  -38.39278414
     atom    4 type  1   force =     0.22470153    0.83504868   -0.82748802
     atom    5 type  2   force =    -0.37014658    2.13667075   37.68503488
     atom    6 type  2   force =     0.18218785   -0.15476083  -38.90117976
     atom    7 type  1   force =    -2.60493957   -2.44348063    2.57309973
     atom    8 type  2   force =    -1.01544615    0.07548210   38.19921650
     atom    9 type  2   force =     0.33221790    0.07216355  -38.30213270
     atom   10 type  1   force =     0.13823543   -1.00591936    1.86215073
     atom   11 type  2   force =     0.11867961   -2.38678436   38.11190698
     atom   12 type  2   force =     0.26663692    0.17674033  -38.49995823
     atom   13 type  1   force =    -0.74513596    1.32707418   -1.85502036
     atom   14 type  2   force =    -0.01789302    0.04324738   28.34633294
     atom   15 type  2   force =     0.01255106   -0.18800744  -38.12336632
     atom   16 type  1   force =    -0.02313156    4.21859695    0.47744382
     atom   17 type  2   force =     0.36217318    2.12218805   37.66877402
     atom   18 type  2   force =    -0.16689095   -0.17171859  -38.90975913
     atom   19 type  1   force =     2.57998093   -2.40575859    1.92571597
     atom   20 type  2   force =     0.02736569    0.04925134  -38.85929932
     atom   21 type  1   force =    -0.01277717   -1.43698747   -2.33858614
     atom   22 type  2   force =    -0.13581365   -2.38986596   38.00234820
     atom   23 type  2   force =    -0.25902372    0.19332012  -38.58582625
     atom   24 type  1   force =     0.02287893    0.81643091    0.44140357
     atom   25 type  2   force =    -0.82544142    0.09623532   38.12249156
     atom   26 type  2   force =    -0.08149017   -0.13045074  -38.43859375
     atom   27 type  1   force =    -0.24174643    0.82799175   -1.08736517
     atom   28 type  2   force =     0.01976790    0.78305366   37.68561948
     atom   29 type  2   force =    -0.00471503    0.02478715  -38.19987526
     atom   30 type  1   force =     0.01118911   -0.78286280    1.57136855
     atom   31 type  2   force =     1.05106398    0.07184002   38.11303967
     atom   32 type  2   force =    -0.36035184    0.06424862  -38.39793827
     atom   33 type  1   force =    -0.09981276   -1.01014484    1.57621875
     atom   34 type  2   force =     0.00853890   -0.75838864   38.67230580
     atom   35 type  2   force =    -0.01990904   -0.00329145  -37.85076117
     atom   36 type  3   force =    -0.01003739    0.08669913   50.41559383
     The local contribution  to forces
     atom    1 type  1   force =    -0.68810526   -1.33733548    1.97233652
     atom    2 type  2   force =    -0.85704426   -0.08912923  -37.85244554
     atom    3 type  2   force =    -0.08011312    0.17901208   38.14963661
     atom    4 type  1   force =    -0.23037581   -0.84232949    0.82163056
     atom    5 type  2   force =     0.36738308   -2.11610204  -37.44789237
     atom    6 type  2   force =    -0.18319672    0.15821012   38.65746728
     atom    7 type  1   force =     2.61333467    2.44359944   -2.54936115
     atom    8 type  2   force =     1.01128818   -0.07711948  -37.95341196
     atom    9 type  2   force =    -0.32675432   -0.05854494   38.05463617
     atom   10 type  1   force =    -0.13941043    0.99872146   -1.86371659
     atom   11 type  2   force =    -0.12481645    2.38799646  -37.86907768
     atom   12 type  2   force =    -0.25850659   -0.16374013   38.25603163
     atom   13 type  1   force =     0.73517332   -1.33966205    1.84190391
     atom   14 type  2   force =     0.01701553   -0.03627982  -28.63432794
     atom   15 type  2   force =    -0.01249795    0.19763492   37.87002839
     atom   16 type  1   force =     0.02414074   -4.24872743   -0.44527575
     atom   17 type  2   force =    -0.35961055   -2.10111374  -37.43166140
     atom   18 type  2   force =     0.16803367    0.17486199   38.66624591
     atom   19 type  1   force =    -2.58980972    2.40517155   -1.90195169
     atom   20 type  2   force =    -0.02681573   -0.03494710   38.61503366
     atom   21 type  1   force =     0.01238304    1.40135571    2.32257107
     atom   22 type  2   force =     0.14148517    2.39074102  -37.75930755
     atom   23 type  2   force =     0.25110764   -0.18060529   38.34241936
     atom   24 type  1   force =    -0.02278869   -0.83426290   -0.45045350
     atom   25 type  2   force =     0.82455416   -0.08978326  -37.87143537
     atom   26 type  2   force =     0.07965468    0.13952737   38.19640688
     atom   27 type  1   force =     0.24741217   -0.83425359    1.08135059
     atom   28 type  2   force =    -0.01938898   -0.77062434  -37.42736495
     atom   29 type  2   force =     0.00465586   -0.01456954   37.95022897
     atom   30 type  1   force =    -0.01209634    0.76161950   -1.57519902
     atom   31 type  2   force =    -1.04647147   -0.07304562  -37.86699506
     atom   32 type  2   force =     0.35396622   -0.05065058   38.15055237
     atom   33 type  1   force =     0.10173573    1.00223556   -1.57827931
     atom   34 type  2   force =    -0.00806710    0.76563637  -38.41785922
     atom   35 type  2   force =     0.01949481    0.01470746   37.60454015
     atom   36 type  3   force =     0.01122230   -0.10844491  -48.11511956
     The core correction contribution to forces
     atom    1 type  1   force =     0.00000000    0.00000000    0.00000000
     atom    2 type  2   force =    -0.00002597    0.00034232    0.02132076
     atom    3 type  2   force =     0.00011206    0.00022740   -0.02078075
     atom    4 type  1   force =     0.00000000    0.00000000    0.00000000
     atom    5 type  2   force =    -0.00034895    0.00093664    0.02067741
     atom    6 type  2   force =     0.00005476   -0.00017380   -0.02083016
     atom    7 type  1   force =     0.00000000    0.00000000    0.00000000
     atom    8 type  2   force =    -0.00012531    0.00010003    0.02100603
     atom    9 type  2   force =     0.00060798    0.00087302   -0.02099832
     atom   10 type  1   force =     0.00000000    0.00000000    0.00000000
     atom   11 type  2   force =    -0.00013756   -0.00007132    0.02102335
     atom   12 type  2   force =     0.00073516    0.00090902   -0.02084720
     atom   13 type  1   force =     0.00000000    0.00000000    0.00000000
     atom   14 type  2   force =     0.00000530    0.00014760   -0.00989838
     atom   15 type  2   force =    -0.00002773    0.00032566   -0.02111567
     atom   16 type  1   force =     0.00000000    0.00000000    0.00000000
     atom   17 type  2   force =     0.00030292    0.00101021    0.02068946
     atom   18 type  2   force =    -0.00001202   -0.00022935   -0.02084119
     atom   19 type  1   force =     0.00000000    0.00000000    0.00000000
     atom   20 type  2   force =     0.00008555    0.00076153   -0.02126069
     atom   21 type  1   force =     0.00000000    0.00000000    0.00000000
     atom   22 type  2   force =     0.00004203   -0.00012211    0.02100700
     atom   23 type  2   force =    -0.00071670    0.00098361   -0.02084012
     atom   24 type  1   force =     0.00000000    0.00000000    0.00000000
     atom   25 type  2   force =    -0.00004795    0.00029636    0.02133596
     atom   26 type  2   force =    -0.00013500    0.00024351   -0.02081113
     atom   27 type  1   force =     0.00000000    0.00000000    0.00000000
     atom   28 type  2   force =     0.00002652    0.00082560    0.02134847
     atom   29 type  2   force =    -0.00003383    0.00032789   -0.02088914
     atom   30 type  1   force =     0.00000000    0.00000000    0.00000000
     atom   31 type  2   force =     0.00027041    0.00010255    0.02098654
     atom   32 type  2   force =    -0.00063821    0.00080735   -0.02100246
     atom   33 type  1   force =     0.00000000    0.00000000    0.00000000
     atom   34 type  2   force =     0.00003413    0.00024504    0.02128134
     atom   35 type  2   force =    -0.00006043    0.00074016   -0.02091861
     atom   36 type  3   force =     0.00001020   -0.00025019    0.02466418
     The Hubbard contrib.    to forces
     atom    1 type  1   force =     0.00000000    0.00000000    0.00000000
     atom    2 type  2   force =     0.00000000    0.00000000    0.00000000
     atom    3 type  2   force =     0.00000000    0.00000000    0.00000000
     atom    4 type  1   force =     0.00000000    0.00000000    0.00000000
     atom    5 type  2   force =     0.00000000    0.00000000    0.00000000
     atom    6 type  2   force =     0.00000000    0.00000000    0.00000000
     atom    7 type  1   force =     0.00000000    0.00000000    0.00000000
     atom    8 type  2   force =     0.00000000    0.00000000    0.00000000
     atom    9 type  2   force =     0.00000000    0.00000000    0.00000000
     atom   10 type  1   force =     0.00000000    0.00000000    0.00000000
     atom   11 type  2   force =     0.00000000    0.00000000    0.00000000
     atom   12 type  2   force =     0.00000000    0.00000000    0.00000000
     atom   13 type  1   force =     0.00000000    0.00000000    0.00000000
     atom   14 type  2   force =     0.00000000    0.00000000    0.00000000
     atom   15 type  2   force =     0.00000000    0.00000000    0.00000000
     atom   16 type  1   force =     0.00000000    0.00000000    0.00000000
     atom   17 type  2   force =     0.00000000    0.00000000    0.00000000
     atom   18 type  2   force =     0.00000000    0.00000000    0.00000000
     atom   19 type  1   force =     0.00000000    0.00000000    0.00000000
     atom   20 type  2   force =     0.00000000    0.00000000    0.00000000
     atom   21 type  1   force =     0.00000000    0.00000000    0.00000000
     atom   22 type  2   force =     0.00000000    0.00000000    0.00000000
     atom   23 type  2   force =     0.00000000    0.00000000    0.00000000
     atom   24 type  1   force =     0.00000000    0.00000000    0.00000000
     atom   25 type  2   force =     0.00000000    0.00000000    0.00000000
     atom   26 type  2   force =     0.00000000    0.00000000    0.00000000
     atom   27 type  1   force =     0.00000000    0.00000000    0.00000000
     atom   28 type  2   force =     0.00000000    0.00000000    0.00000000
     atom   29 type  2   force =     0.00000000    0.00000000    0.00000000
     atom   30 type  1   force =     0.00000000    0.00000000    0.00000000
     atom   31 type  2   force =     0.00000000    0.00000000    0.00000000
     atom   32 type  2   force =     0.00000000    0.00000000    0.00000000
     atom   33 type  1   force =     0.00000000    0.00000000    0.00000000
     atom   34 type  2   force =     0.00000000    0.00000000    0.00000000
     atom   35 type  2   force =     0.00000000    0.00000000    0.00000000
     atom   36 type  3   force =     0.00000000    0.00000000    0.00000000
     The SCF correction term to forces
     atom    1 type  1   force =    -0.00002618    0.00004488   -0.00002351
     atom    2 type  2   force =     0.00001827    0.00000323   -0.00000446
     atom    3 type  2   force =     0.00000461    0.00001778   -0.00001264
     atom    4 type  1   force =    -0.00000430   -0.00001608   -0.00002687
     atom    5 type  2   force =    -0.00001661    0.00000144    0.00000794
     atom    6 type  2   force =    -0.00000246   -0.00000475   -0.00001345
     atom    7 type  1   force =    -0.00002318   -0.00000260    0.00002685
     atom    8 type  2   force =    -0.00000290    0.00000204    0.00000232
     atom    9 type  2   force =     0.00001009   -0.00001361   -0.00000333
     atom   10 type  1   force =     0.00000910   -0.00001263    0.00001158
     atom   11 type  2   force =    -0.00000818   -0.00001551   -0.00000163
     atom   12 type  2   force =    -0.00001479    0.00000169    0.00000035
     atom   13 type  1   force =    -0.00004206    0.00002262    0.00001562
     atom   14 type  2   force =    -0.00006161    0.00002858    0.00001651
     atom   15 type  2   force =    -0.00002157    0.00001107   -0.00000741
     atom   16 type  1   force =    -0.00004262   -0.00001827   -0.00002032
     atom   17 type  2   force =     0.00000425   -0.00002742    0.00001354
     atom   18 type  2   force =    -0.00001169   -0.00000488   -0.00000704
     atom   19 type  1   force =     0.00001626    0.00001206   -0.00001813
     atom   20 type  2   force =    -0.00002219   -0.00000684   -0.00000642
     atom   21 type  1   force =    -0.00005405   -0.00001726   -0.00000221
     atom   22 type  2   force =    -0.00000577    0.00000340    0.00000070
     atom   23 type  2   force =     0.00000218   -0.00000061    0.00000560
     atom   24 type  1   force =     0.00004025    0.00000749   -0.00004403
     atom   25 type  2   force =     0.00003682    0.00001123    0.00002602
     atom   26 type  2   force =     0.00001525    0.00001999   -0.00001375
     atom   27 type  1   force =     0.00005014   -0.00002470   -0.00006939
     atom   28 type  2   force =     0.00001500   -0.00000352    0.00000064
     atom   29 type  2   force =     0.00001543   -0.00000294   -0.00001913
     atom   30 type  1   force =     0.00004908   -0.00001227   -0.00002034
     atom   31 type  2   force =     0.00001176    0.00000203   -0.00000432
     atom   32 type  2   force =     0.00000740   -0.00001164   -0.00000600
     atom   33 type  1   force =     0.00004335    0.00000808   -0.00000891
     atom   34 type  2   force =     0.00001078    0.00000068    0.00000719
     atom   35 type  2   force =     0.00001369   -0.00000677   -0.00000163
     atom   36 type  3   force =    -0.00019079    0.00011169    0.00003118

     Total force =     0.006139     Total SCF correction =     0.000309
     Energy error            =      7.5E-05 Ry
     Gradient error          =      1.9E-03 Ry/Bohr

     bfgs converged in  22 scf cycles and  21 bfgs steps
     (criteria: energy <  1.0E-04 Ry, force <  1.0E-02 Ry/Bohr)

     End of BFGS Geometry Optimization

     Final energy             =   -2246.4491614852 Ry

     File ./MoS2-V-O.bfgs deleted, as requested
Begin final coordinates

ATOMIC_POSITIONS (angstrom)
Mo            6.5654804752        1.7891252346        2.7357999875
S             8.1057766187        0.8764911445        4.3606838666
S             8.1258530003        0.8394769876        1.1607571039
Mo            8.0997033888        4.5119301417        2.7050560261
S             6.5043322538        3.6798320334        4.3058865953
S             6.5330712569        3.5965398668        1.0929214046
Mo            6.5068817959        7.1949009631        2.6881743770
S             8.0760111969        6.3079971679        4.3127987644
S             8.1245883426        6.3475707757        1.1200186354
Mo            8.1135884568        9.9504959598        2.7767860216
S             6.4995494213        8.9634635018        4.3430830560
S             6.5828489881        9.0263354381        1.1342329066
Mo            3.3797258356        1.7838094909        2.7372790639
S             4.9750169126        0.8349162588        4.2475363687
S             4.9719680625        0.8407908480        1.1804513331
Mo            4.9722961224        4.5484256322        2.6561074738
S             3.4383336654        3.6776017368        4.3050776755
S             3.4151424335        3.5909450823        1.0912433048
Mo            3.4436087186        7.1968260052        2.6765128377
S             4.9792191626        6.3385494971        1.0604246652
Mo            4.9738559818        9.8824857868        2.7274139845
S             3.4414749667        8.9636883161        4.3341225637
S             3.3653483826        9.0328744551        1.1257963720
Mo            0.2432543006        1.7478997823        2.7541133126
S             1.8327187166        0.8725291730        4.3617994872
S             1.8146853083        0.8393801252        1.1559898980
Mo            1.8479378742        4.5087491529        2.7001308329
S             0.2455904630        3.6186443444        4.3015833679
S             0.2417331276        3.5730603726        1.1367045512
Mo            0.2495239714        7.2273406478        2.7458612473
S             1.8862631031        6.3062962783        4.3052402153
S             1.8268067481        6.3435078943        1.1120275510
Mo            1.8293382585        9.9520449339        2.7714503250
S             0.2463322876        9.0407077216        4.3692824816
S             0.2415779558        9.0630784384        1.1820622739
O             4.9759139021        0.8269574438        5.7459299398
End final coordinates



     Writing all to output data dir ./MoS2-V-O.save/
 
     init_run     :      6.77s CPU      7.76s WALL (       1 calls)
     electrons    :   2386.64s CPU   2704.39s WALL (      22 calls)
     update_pot   :     75.36s CPU     81.40s WALL (      21 calls)
     forces       :     78.39s CPU     91.90s WALL (      22 calls)

     Called by init_run:
     wfcinit      :      0.92s CPU      1.03s WALL (       1 calls)
     potinit      :      3.07s CPU      3.53s WALL (       1 calls)
     hinit0       :      0.45s CPU      0.55s WALL (       1 calls)

     Called by electrons:
     c_bands      :    422.19s CPU    434.06s WALL (     205 calls)
     sum_band     :    148.41s CPU    206.01s WALL (     205 calls)
     v_of_rho     :    307.02s CPU    368.28s WALL (     219 calls)
     newd         :     91.80s CPU    148.00s WALL (     219 calls)
     PAW_pot      :      8.99s CPU      9.03s WALL (     240 calls)
     mix_rho      :   1444.04s CPU   1579.88s WALL (     205 calls)

     Called by c_bands:
     init_us_2    :      4.90s CPU      5.35s WALL (     432 calls)
     init_us_2:cp :      4.90s CPU      5.35s WALL (     432 calls)
     regterg      :    406.02s CPU    417.48s WALL (     205 calls)

     Called by *egterg:
     rdiaghg      :     19.21s CPU     19.45s WALL (    1076 calls)
     h_psi        :    242.54s CPU    244.36s WALL (    1106 calls)
     s_psi        :     20.11s CPU     20.21s WALL (    1106 calls)
     g_psi        :      2.09s CPU      2.10s WALL (     900 calls)

     Called by h_psi:
     h_psi:calbec :     23.02s CPU     23.19s WALL (    1106 calls)
     vloc_psi     :    193.46s CPU    194.94s WALL (    1106 calls)
     add_vuspsi   :     19.65s CPU     19.79s WALL (    1106 calls)

     General routines
     calbec       :     33.02s CPU     33.27s WALL (    1420 calls)
     fft          :    213.59s CPU    237.30s WALL (   14642 calls)
     ffts         :    622.26s CPU    752.63s WALL (  316955 calls)
     fftw         :    164.87s CPU    165.94s WALL (  124676 calls)
     interpolate  :      2.98s CPU      3.37s WALL (     219 calls)
 
     Parallel routines
 
     PWSCF        :  42m39.10s CPU  48m24.43s WALL

 
   This run was terminated on:  12:32:20   1Nov2023            

=------------------------------------------------------------------------------=
   JOB DONE.
=------------------------------------------------------------------------------=
