
     Program PWSCF v.7.2 starts on  4Nov2023 at 12:26:38 

     This program is part of the open-source Quantum ESPRESSO suite
     for quantum simulation of materials; please cite
         "P. Giannozzi et al., J. Phys.:Condens. Matter 21 395502 (2009);
         "P. Giannozzi et al., J. Phys.:Condens. Matter 29 465901 (2017);
         "P. Giannozzi et al., J. Chem. Phys. 152 154105 (2020);
          URL http://www.quantum-espresso.org", 
     in publications or presentations arising from this work. More details at
     http://www.quantum-espresso.org/quote

     Parallel version (MPI & OpenMP), running on      48 processor cores
     Number of MPI processes:                48
     Threads/MPI process:                     1

     MPI processes distributed on     1 nodes
     62763 MiB available memory on the printing compute node when the environment starts
 
     Waiting for input...
     Reading input from standard input
Warning: card &CELL ignored
Warning: card CELL_DYNAMICS = 'BFGS', ignored
Warning: card CELL_DOFREE = '2DXY' ignored
Warning: card / ignored

     Current dimensions of program PWSCF are:
     Max number of different atomic species (ntypx) = 10
     Max number of k-points (npk) =  40000
     Max angular momentum in pseudopotentials (lmaxx) =  4
     file O.pbe-n-kjpaw_psl.0.1.UPF: wavefunction(s)  2P renormalized

     IMPORTANT: XC functional enforced from input :
     Exchange-correlation= RVV10
                           (   1   4  13   4  26   0   0)
     Any further DFT definition will be discarded
     Please, verify this is what you really want


     gamma-point specific algorithms are used
     signal trapping enabled: kill the code with -SIGUSR1 to stop cleanly the simulation 
 
     R & G space division:  proc/nbgrp/npool/nimage =      48
     Subspace diagonalization in iterative solution of the eigenvalue problem:
     one sub-group per band group will be used
     scalapack distributed-memory algorithm (size of sub-group:  2*  2 procs)

 
     Parallelization info
     --------------------
     sticks:   dense  smooth     PW     G-vecs:    dense   smooth      PW
     Min         396     194     47               101632    35090    4376
     Max         398     196     50               101674    35128    4410
     Sum       19091    9389   2349              4879585  1685513  210763
 
     Using Slab Decomposition
 


     bravais-lattice index     =            0
     lattice parameter (alat)  =      17.8707  a.u.
     unit-cell volume          =   17436.2743 (a.u.)^3
     number of atoms/cell      =           36
     number of atomic types    =            3
     number of electrons       =       312.00
     number of Kohn-Sham states=          187
     kinetic-energy cutoff     =      80.0000  Ry
     charge density cutoff     =     650.0000  Ry
     scf convergence threshold =      1.0E-06
     mixing beta               =       0.7000
     number of iterations used =            8  local-TF  mixing
     energy convergence thresh.=      1.0E-04
     force convergence thresh. =      1.0E-02
     Exchange-correlation= RVV10
                           (   1   4  13   4  26   0   0)
     nstep                     =          200


     celldm(1)=  17.870686  celldm(2)=   0.000000  celldm(3)=   0.000000
     celldm(4)=   0.000000  celldm(5)=   0.000000  celldm(6)=   0.000000

     crystal axes: (cart. coord. in units of alat)
               a(1) = (   1.000000   0.000000   0.000000 )  
               a(2) = (   0.000000   1.155671   0.000000 )  
               a(3) = (   0.000000   0.000000   2.643601 )  

     reciprocal axes: (cart. coord. in units 2 pi/alat)
               b(1) = (  1.000000  0.000000  0.000000 )  
               b(2) = (  0.000000  0.865298  0.000000 )  
               b(3) = (  0.000000  0.000000  0.378272 )  


     PseudoPot. # 1 for Mo read from file:
     ../../pseudo/Mo_ONCV_PBE-1.0.oncvpsp.upf
     MD5 check sum: 1b5d28e075c9ccadda658a603575cd1f
     Pseudo is Norm-conserving, Zval = 14.0
     Generated using ONCVPSP code by D. R. Hamann
     Using radial grid of 1526 points,  6 beta functions with: 
                l(1) =   0
                l(2) =   0
                l(3) =   1
                l(4) =   1
                l(5) =   2
                l(6) =   2

     PseudoPot. # 2 for S  read from file:
     ../../pseudo/s_pbe_v1.4.uspp.F.UPF
     MD5 check sum: 88d86576ff6df21479756cfb9bdac1df
     Pseudo is Ultrasoft + core correction, Zval =  6.0
     Generated by new atomic code, or converted to UPF format
     Using radial grid of  907 points,  6 beta functions with: 
                l(1) =   0
                l(2) =   0
                l(3) =   1
                l(4) =   1
                l(5) =   2
                l(6) =   2
     Q(r) pseudized with  8 coefficients,  rinner =    1.300   1.300   1.300
                                                       1.300   1.300

     PseudoPot. # 3 for O  read from file:
     ../../pseudo/O.pbe-n-kjpaw_psl.0.1.UPF
     MD5 check sum: 0234752ac141de4415c5fc33072bef88
     Pseudo is Projector augmented-wave + core cor, Zval =  6.0
     Generated using "atomic" code by A. Dal Corso  v.5.0.99 svn rev. 10869
     Shape of augmentation charge: BESSEL
     Using radial grid of 1095 points,  4 beta functions with: 
                l(1) =   0
                l(2) =   0
                l(3) =   1
                l(4) =   1
     Q(r) pseudized with 0 coefficients 


     atomic species   valence    mass     pseudopotential
        Mo            14.00    95.94000     Mo( 1.00)
        S              6.00    32.06500     S ( 1.00)
        O              6.00    15.99940     O ( 1.00)

     No symmetry found



   Cartesian axes

     site n.     atom                  positions (alat units)
         1           Mo  tau(   1) = (   0.6952221   0.1890506   0.2985846  )
         2           S   tau(   2) = (   0.8646417   0.0856217   0.4689279  )
         3           S   tau(   3) = (   0.8663890   0.0857843   0.1351291  )
         4           Mo  tau(   4) = (   0.8560186   0.4753274   0.2873942  )
         5           S   tau(   5) = (   0.6873294   0.3936244   0.4596353  )
         6           S   tau(   6) = (   0.6929804   0.3713468   0.1185692  )
         7           Mo  tau(   7) = (   0.6862796   0.7633098   0.2825370  )
         8           S   tau(   8) = (   0.8545980   0.6708292   0.4486168  )
         9           S   tau(   9) = (   0.8545123   0.6666874   0.1146125  )
        10           Mo  tau(  10) = (   0.8629403   1.0471007   0.3006803  )
        11           S   tau(  11) = (   0.6868280   0.9456650   0.4634891  )
        12           S   tau(  12) = (   0.6998113   0.9568511   0.1205389  )
        13           Mo  tau(  13) = (   0.3618216   0.1847309   0.2935964  )
        14           S   tau(  14) = (   0.5260962   0.0863870   0.4600448  )
        15           S   tau(  15) = (   0.5348379   0.0894875   0.1297123  )
        16           Mo  tau(  16) = (   0.5265817   0.4772436   0.2784130  )
        17           S   tau(  17) = (   0.3624753   0.3882513   0.4525556  )
        18           S   tau(  18) = (   0.3635411   0.3752055   0.1119148  )
        19           Mo  tau(  19) = (   0.3652268   0.7630864   0.2781795  )
        20           S   tau(  20) = (   0.5269494   0.6690381   0.1096838  )
        21           Mo  tau(  21) = (   0.5300192   1.0470394   0.2900995  )
        22           S   tau(  22) = (   0.3670346   0.9457522   0.4574073  )
        23           S   tau(  23) = (   0.3604225   0.9585725   0.1159032  )
        24           Mo  tau(  24) = (   0.0313099   0.1847895   0.3013130  )
        25           S   tau(  25) = (   0.1956761   0.0838230   0.4650863  )
        26           S   tau(  26) = (   0.1967693   0.0903508   0.1278874  )
        27           Mo  tau(  27) = (   0.1967578   0.4753919   0.2813011  )
        28           S   tau(  28) = (   0.0287851   0.3864324   0.4586755  )
        29           S   tau(  29) = (   0.0244514   0.3729871   0.1239344  )
        30           Mo  tau(  30) = (   0.0286728   0.7631204   0.2856894  )
        31           S   tau(  31) = (   0.2011512   0.6675435   0.4465001  )
        32           S   tau(  32) = (   0.1969214   0.6672839   0.1104564  )
        33           Mo  tau(  33) = (   0.1950294   1.0511147   0.2932237  )
        34           S   tau(  34) = (   0.0312912   0.9612169   0.4667423  )
        35           S   tau(  35) = (   0.0292670   0.9563028   0.1216485  )
        36           O   tau(  36) = (   0.5555556   0.1284079   0.5575849  )

     number of k points=     1  Gaussian smearing, width (Ry)=  0.0100
                       cart. coord. in units 2pi/alat
        k(    1) = (   0.0000000   0.0000000   0.0000000), wk =   2.0000000

     Dense  grid:  2439793 G-vectors     FFT dimensions: ( 150, 180, 384)

     Smooth grid:   842757 G-vectors     FFT dimensions: ( 108, 120, 270)

     Estimated max dynamical RAM per process >     269.22 MB

     Estimated total dynamical RAM >      12.62 GB

     Initial potential from superposition of free atoms

     starting charge     311.9873, renormalised to     312.0000

     negative rho (up, down):  2.742E-04 0.000E+00


---------------------------------------------------------------------------------
Carrying out rVV10 run using the following parameters:
Nqs =      20    Nr_points =    1024   r_max =   100.000
b_value =  6.30000    beta =  0.00901
     q_mesh =  0.00010000  0.00030000  0.00058939  0.00100810
               0.00161396  0.00249058  0.00375900  0.00559430
               0.00824984  0.01209221  0.01765183  0.02569619
               0.03733578  0.05417739  0.07854596  0.11380545
               0.16482331  0.23864234  0.34545298  0.50000000

Gradients computed in Reciprocal space

---------------------------------------------------------------------------------


     Starting wfcs are  216 randomized atomic wfcs
     Checking if some PAW data can be deallocated... 

     total cpu time spent up to now is        6.0 secs

     Self-consistent Calculation

     iteration #  1     ecut=    80.00 Ry     beta= 0.70
     Davidson diagonalization with overlap
     ethr =  1.00E-02,  avg # of iterations =  3.0

     Threshold (ethr) on eigenvalues was too large:
     Diagonalizing with lowered threshold

     Davidson diagonalization with overlap
     ethr =  5.88E-04,  avg # of iterations =  2.0

     negative rho (up, down):  3.270E-08 0.000E+00

     total cpu time spent up to now is       27.4 secs

     total energy              =   -2245.24361301 Ry
     estimated scf accuracy    <       2.08214090 Ry

     iteration #  2     ecut=    80.00 Ry     beta= 0.70
     Davidson diagonalization with overlap
     ethr =  6.67E-04,  avg # of iterations =  4.0

     total cpu time spent up to now is       32.8 secs

     total energy              =   -2245.24518633 Ry
     estimated scf accuracy    <       0.61253433 Ry

     iteration #  3     ecut=    80.00 Ry     beta= 0.70
     Davidson diagonalization with overlap
     ethr =  1.96E-04,  avg # of iterations =  2.0

     total cpu time spent up to now is       37.3 secs

     total energy              =   -2245.27411572 Ry
     estimated scf accuracy    <       0.10654914 Ry

     iteration #  4     ecut=    80.00 Ry     beta= 0.70
     Davidson diagonalization with overlap
     ethr =  3.42E-05,  avg # of iterations =  9.0

     total cpu time spent up to now is       42.3 secs

     total energy              =   -2245.28789176 Ry
     estimated scf accuracy    <       0.02515775 Ry

     iteration #  5     ecut=    80.00 Ry     beta= 0.70
     Davidson diagonalization with overlap
     c_bands:  1 eigenvalues not converged
     ethr =  8.06E-06,  avg # of iterations = 20.0

     total cpu time spent up to now is       47.0 secs

     total energy              =   -2245.28742734 Ry
     estimated scf accuracy    <       0.01471610 Ry

     iteration #  6     ecut=    80.00 Ry     beta= 0.70
     Davidson diagonalization with overlap
     c_bands:  1 eigenvalues not converged
     ethr =  4.72E-06,  avg # of iterations = 20.0

     total cpu time spent up to now is       51.7 secs

     total energy              =   -2245.28618784 Ry
     estimated scf accuracy    <       0.00932279 Ry

     iteration #  7     ecut=    80.00 Ry     beta= 0.70
     Davidson diagonalization with overlap
     ethr =  2.99E-06,  avg # of iterations = 13.0

     negative rho (up, down):  3.319E-04 0.000E+00

     total cpu time spent up to now is       58.5 secs

     total energy              =   -2245.28521120 Ry
     estimated scf accuracy    <       0.00546852 Ry

     iteration #  8     ecut=    80.00 Ry     beta= 0.70
     Davidson diagonalization with overlap
     ethr =  1.75E-06,  avg # of iterations =  2.0

     negative rho (up, down):  1.980E-02 0.000E+00

     total cpu time spent up to now is       65.0 secs

     total energy              =   -2245.28475669 Ry
     estimated scf accuracy    <       0.00333333 Ry

     iteration #  9     ecut=    80.00 Ry     beta= 0.70
     Davidson diagonalization with overlap
     ethr =  1.07E-06,  avg # of iterations =  1.0

     negative rho (up, down):  3.274E-02 0.000E+00

     total cpu time spent up to now is       71.4 secs

     total energy              =   -2245.28466434 Ry
     estimated scf accuracy    <       0.00177399 Ry

     iteration # 10     ecut=    80.00 Ry     beta= 0.70
     Davidson diagonalization with overlap
     ethr =  5.69E-07,  avg # of iterations =  2.0

     negative rho (up, down):  2.125E-02 0.000E+00

     total cpu time spent up to now is       79.4 secs

     total energy              =   -2245.28465434 Ry
     estimated scf accuracy    <       0.00057613 Ry

     iteration # 11     ecut=    80.00 Ry     beta= 0.70
     Davidson diagonalization with overlap
     ethr =  1.85E-07,  avg # of iterations =  2.0

     negative rho (up, down):  8.319E-03 0.000E+00

     total cpu time spent up to now is       87.9 secs

     total energy              =   -2245.28470886 Ry
     estimated scf accuracy    <       0.00006831 Ry

     iteration # 12     ecut=    80.00 Ry     beta= 0.70
     Davidson diagonalization with overlap
     ethr =  2.19E-08,  avg # of iterations =  7.0

     negative rho (up, down):  2.575E-03 0.000E+00

     total cpu time spent up to now is       97.7 secs

     total energy              =   -2245.28474733 Ry
     estimated scf accuracy    <       0.00001628 Ry

     iteration # 13     ecut=    80.00 Ry     beta= 0.70
     Davidson diagonalization with overlap
     ethr =  5.22E-09,  avg # of iterations =  2.0

     negative rho (up, down):  3.586E-04 0.000E+00

     total cpu time spent up to now is      106.7 secs

     total energy              =   -2245.28474810 Ry
     estimated scf accuracy    <       0.00000366 Ry

     iteration # 14     ecut=    80.00 Ry     beta= 0.70
     Davidson diagonalization with overlap
     ethr =  1.17E-09,  avg # of iterations =  2.0

     negative rho (up, down):  3.417E-04 0.000E+00

     total cpu time spent up to now is      117.3 secs

     total energy              =   -2245.28474865 Ry
     estimated scf accuracy    <       0.00000107 Ry

     iteration # 15     ecut=    80.00 Ry     beta= 0.70
     Davidson diagonalization with overlap
     ethr =  3.43E-10,  avg # of iterations =  4.0

     negative rho (up, down):  2.961E-04 0.000E+00

     total cpu time spent up to now is      121.5 secs

     End of self-consistent calculation

          k = 0.0000 0.0000 0.0000 (105382 PWs)   bands (ev):

   -62.8414 -62.8365 -62.8224 -62.8130 -62.8032 -62.7869 -62.7811 -62.7710
   -62.7516 -62.7411 -62.6308 -62.4744 -37.2088 -37.1451 -37.1026 -37.0966
   -37.0837 -37.0602 -37.0540 -37.0346 -37.0260 -37.0105 -37.0058 -36.9989
   -36.9878 -36.9852 -36.9765 -36.9689 -36.9594 -36.9574 -36.9458 -36.9366
   -36.9143 -36.9109 -36.9034 -36.8894 -36.8503 -36.8420 -36.8362 -36.8302
   -36.8055 -36.8021 -36.7856 -36.7333 -36.7170 -36.6928 -36.6244 -36.5518
   -30.0337 -15.8933 -15.1567 -15.0419 -14.9339 -14.8469 -14.6948 -14.4738
   -14.4383 -14.4008 -14.3728 -14.3271 -14.3194 -14.2526 -14.1743 -14.0976
   -14.0786 -14.0566 -14.0329 -13.8798 -13.7978 -13.7741 -13.7546 -12.8916
   -12.1738 -12.1084  -8.9463  -7.5511  -7.3971  -7.2416  -7.2097  -7.1586
    -7.1202  -7.0392  -7.0073  -6.7655  -6.7186  -6.6817  -6.6626  -6.5915
    -6.4270  -6.3934  -6.3283  -6.2869  -6.2289  -6.0007  -5.9040  -5.8312
    -5.7866  -5.7578  -5.7177  -5.6904  -5.6468  -5.6154  -5.5822  -5.5224
    -5.4966  -5.4426  -5.4030  -5.3080  -5.2661  -5.1038  -5.0684  -5.0295
    -4.9608  -4.8804  -4.8700  -4.8383  -4.7905  -4.5353  -4.4341  -4.3665
    -4.2710  -4.2066  -4.1740  -4.1070  -4.0581  -3.9466  -3.9261  -3.7102
    -3.6769  -3.6576  -3.5927  -3.5227  -3.4965  -3.4780  -3.4472  -3.4188
    -3.4142  -3.3680  -3.2686  -3.1960  -3.1308  -2.9336  -2.8858  -2.7706
    -2.7654  -2.7143  -2.6616  -2.6393  -2.5966  -2.5415  -2.5208  -2.2999
    -2.1873  -1.9194  -1.8735  -1.7993  -0.7938  -0.7117  -0.3188  -0.1174
    -0.0763   0.0464   0.0612   0.1713   0.1955   0.2058   0.3135   0.3468
     0.4571   0.4917   0.5191   0.5670   0.5846   0.6143   0.6422   0.6676
     0.7675   0.7957   0.8019   0.8564   0.8728   0.9133   0.9586   1.0311
     1.0610   1.1767   1.3900

     the Fermi energy is    -1.2965 ev

!    total energy              =   -2245.28474953 Ry
     estimated scf accuracy    <       0.00000033 Ry
     smearing contrib. (-TS)   =      -0.00000001 Ry
     internal energy E=F+TS    =   -2245.28474951 Ry

     The total energy is F=E-TS. E is the sum of the following terms:
     one-electron contribution =  -18487.35637418 Ry
     hartree contribution      =    9232.18283274 Ry
     xc contribution           =    -393.08106406 Ry
     ewald contribution        =    7412.79003762 Ry
     one-center paw contrib.   =      -9.82018164 Ry

     convergence has been achieved in  15 iterations

     negative rho (up, down):  2.961E-04 0.000E+00

     Forces acting on atoms (cartesian axes, Ry/au):

     atom    1 type  1   force =     0.02924147   -0.03010607   -0.05957034
     atom    2 type  2   force =    -0.01629371    0.01639426    0.00360660
     atom    3 type  2   force =    -0.00963824    0.00802094   -0.00150199
     atom    4 type  1   force =     0.00486553    0.00511581   -0.00358681
     atom    5 type  2   force =    -0.00136892   -0.00287091   -0.00367076
     atom    6 type  2   force =    -0.00075460    0.01504612    0.00065191
     atom    7 type  1   force =     0.00309956   -0.01481370   -0.00816638
     atom    8 type  2   force =     0.00185860   -0.00538216    0.01661780
     atom    9 type  2   force =     0.01217712    0.00717102    0.01270964
     atom   10 type  1   force =    -0.00825555    0.01080604   -0.02932787
     atom   11 type  2   force =     0.00674739   -0.00379899   -0.00519359
     atom   12 type  2   force =     0.00035885    0.00127796    0.00383322
     atom   13 type  1   force =     0.00172493    0.00194825    0.00044291
     atom   14 type  2   force =    -1.03042562   -1.44463166   -3.68140490
     atom   15 type  2   force =    -0.01260927    0.00361454   -0.00423720
     atom   16 type  1   force =     0.00201846    0.01139786    0.00609636
     atom   17 type  2   force =     0.00744454    0.00072349    0.00422723
     atom   18 type  2   force =    -0.00158868   -0.00322112    0.01024264
     atom   19 type  1   force =     0.00364987   -0.01077289   -0.00508079
     atom   20 type  2   force =     0.00315485   -0.00279642    0.00084423
     atom   21 type  1   force =     0.00025995   -0.00598795    0.03588622
     atom   22 type  2   force =    -0.00640896   -0.00465303   -0.00440038
     atom   23 type  2   force =    -0.00383790    0.00152681    0.00674172
     atom   24 type  1   force =    -0.00997967   -0.00360908   -0.02558621
     atom   25 type  2   force =     0.01830123    0.01574421    0.00942278
     atom   26 type  2   force =    -0.01463901   -0.00459385   -0.00459214
     atom   27 type  1   force =    -0.00069784   -0.00110471    0.00597887
     atom   28 type  2   force =     0.00043172   -0.00063014   -0.00465050
     atom   29 type  2   force =     0.00280175   -0.00056726   -0.00156369
     atom   30 type  1   force =    -0.00360055    0.01053541   -0.00577734
     atom   31 type  2   force =     0.00125968   -0.00106049    0.01537105
     atom   32 type  2   force =    -0.00862532    0.00741367    0.01023931
     atom   33 type  1   force =     0.00998173   -0.00486153   -0.00840694
     atom   34 type  2   force =     0.00303141   -0.04360194   -0.01035447
     atom   35 type  2   force =    -0.00823909    0.00734229    0.01600443
     atom   36 type  3   force =     1.02455428    1.46498521    3.70815537
     The non-local contrib.  to forces
     atom    1 type  1   force =    -0.05036584    0.00851950    0.03448063
     atom    2 type  2   force =    -0.00854500    0.00709845   -0.26706244
     atom    3 type  2   force =    -0.01056032   -0.00764809    0.26720059
     atom    4 type  1   force =     0.00015044   -0.00018071    0.00781462
     atom    5 type  2   force =     0.00962548   -0.01766880   -0.24934273
     atom    6 type  2   force =    -0.00532587    0.01816344    0.25930743
     atom    7 type  1   force =    -0.01226554   -0.00245777   -0.02182610
     atom    8 type  2   force =    -0.00065922   -0.00124943   -0.25598022
     atom    9 type  2   force =     0.00611069   -0.00832188    0.27877802
     atom   10 type  1   force =     0.00425293    0.00412929   -0.00139394
     atom   11 type  2   force =     0.00646543    0.01329575   -0.25668721
     atom   12 type  2   force =    -0.01484191   -0.01918516    0.26386567
     atom   13 type  1   force =     0.02478958   -0.00827225    0.02089806
     atom   14 type  2   force =    -0.64213143   -0.94742691   -2.14901357
     atom   15 type  2   force =    -0.01558475   -0.00829724    0.26303469
     atom   16 type  1   force =     0.00093539    0.02134007   -0.03156389
     atom   17 type  2   force =     0.00033140   -0.03300974   -0.24402050
     atom   18 type  2   force =    -0.00344580    0.00136092    0.27145208
     atom   19 type  1   force =     0.01028858   -0.00404722   -0.01551541
     atom   20 type  2   force =    -0.00025801   -0.02071354    0.26714617
     atom   21 type  1   force =    -0.00358411    0.05017780    0.00829883
     atom   22 type  2   force =     0.00120251    0.01270706   -0.25420449
     atom   23 type  2   force =     0.00587162   -0.01725685    0.26732486
     atom   24 type  1   force =     0.00327758    0.02093398   -0.00039063
     atom   25 type  2   force =     0.03233575    0.01575319   -0.25558544
     atom   26 type  2   force =    -0.00672559   -0.01663803    0.25943702
     atom   27 type  1   force =    -0.00566085    0.00807570    0.01138427
     atom   28 type  2   force =    -0.00406033   -0.02471877   -0.27622160
     atom   29 type  2   force =     0.00715539   -0.00117825    0.26578117
     atom   30 type  1   force =     0.00016656    0.01682023    0.00840706
     atom   31 type  2   force =    -0.00407870    0.00155958   -0.25549232
     atom   32 type  2   force =    -0.00253433   -0.00908012    0.27377692
     atom   33 type  1   force =    -0.00635598    0.00880312    0.00402827
     atom   34 type  2   force =     0.00136663   -0.03647850   -0.27205068
     atom   35 type  2   force =    -0.00213056   -0.01003265    0.27118227
     atom   36 type  3   force =    -0.64956575   -0.91318059   -1.37384520
     The ionic contribution  to forces
     atom    1 type  1   force =     2.79950121    1.33358642    0.44989521
     atom    2 type  2   force =     0.99583310    0.13077784   38.64361608
     atom    3 type  2   force =     0.08646170   -0.03976702  -36.92925461
     atom    4 type  1   force =     0.66367652    1.43083930   -0.64384740
     atom    5 type  2   force =    -0.09950852    3.29885554   37.98103617
     atom    6 type  2   force =     0.48509288   -0.21819195  -38.88029935
     atom    7 type  1   force =    -2.38155153   -3.10891112    1.42333161
     atom    8 type  2   force =    -0.81422304    0.12131399   37.19328090
     atom    9 type  2   force =     0.40620609    0.00121170  -38.49728646
     atom   10 type  1   force =    -0.10839586   -1.35828942    3.98417732
     atom   11 type  2   force =    -0.09548083   -2.81547239   38.69447374
     atom   12 type  2   force =     0.54910096    0.43590359  -38.56925305
     atom   13 type  1   force =    -1.87702474    1.73399825   -1.18684418
     atom   14 type  2   force =    -4.87052108   -7.05920051   22.06634363
     atom   15 type  2   force =     0.11326778   -0.15748086  -38.13829553
     atom   16 type  1   force =    -0.15230899    5.47317835   -1.45718946
     atom   17 type  2   force =    -0.12235865    2.83881484   37.28516816
     atom   18 type  2   force =    -0.31737687   -0.40163764  -39.35116915
     atom   19 type  1   force =     2.43167609   -2.73306741   -0.44931550
     atom   20 type  2   force =     0.21690453   -0.14880016  -39.03178668
     atom   21 type  1   force =    -0.20736365   -2.33537622   -2.12848296
     atom   22 type  2   force =    -0.06620785   -2.68839273   38.02887821
     atom   23 type  2   force =    -0.20819903    0.43642194  -38.97032512
     atom   24 type  1   force =    -0.33856547    1.36125554    4.32784744
     atom   25 type  2   force =    -0.41671663    0.09206896   38.80182203
     atom   26 type  2   force =    -0.47949993    0.02268846  -38.09975581
     atom   27 type  1   force =    -0.40798562    1.10163397   -3.45827871
     atom   28 type  2   force =     0.14600690    1.40121336   37.96306594
     atom   29 type  2   force =    -0.23550185   -0.27882690  -37.85643397
     atom   30 type  1   force =    -0.29288875   -1.06447148   -0.92108146
     atom   31 type  2   force =     1.08687065    0.03089483   37.13879950
     atom   32 type  2   force =    -0.53186766    0.02669232  -39.11445827
     atom   33 type  1   force =     0.05560336   -1.67765958    0.57645090
     atom   34 type  2   force =     0.30242402   -1.81174806   39.15907012
     atom   35 type  2   force =    -0.28121346    0.33560046  -38.35378081
     atom   36 type  3   force =     3.96613423    6.29034378   58.31988149
     The local contribution  to forces
     atom    1 type  1   force =    -2.71998375   -1.37212835   -0.54317080
     atom    2 type  2   force =    -1.00414976   -0.12113767  -38.39297498
     atom    3 type  2   force =    -0.08593200    0.05510481   36.68143226
     atom    4 type  1   force =    -0.65901006   -1.42571405    0.63309235
     atom    5 type  2   force =     0.08913906   -3.28544413  -37.75507888
     atom    6 type  2   force =    -0.48104556    0.21661326   38.64244249
     atom    7 type  1   force =     2.39699377    3.09666415   -1.40913459
     atom    8 type  2   force =     0.81661145   -0.12584718  -36.94078234
     atom    9 type  2   force =    -0.40008659    0.01380126   38.25242154
     atom   10 type  1   force =     0.09585031    1.36509140   -4.01141063
     atom   11 type  2   force =     0.09589250    2.79960277  -38.46292456
     atom   12 type  2   force =    -0.53514102   -0.41691792   38.33025079
     atom   13 type  1   force =     1.85405791   -1.72367675    1.16710888
     atom   14 type  2   force =     4.44158331    6.50278055  -23.73986224
     atom   15 type  2   force =    -0.11117084    0.16892651   37.89199677
     atom   16 type  1   force =     0.15338967   -5.48344464    1.49543394
     atom   17 type  2   force =     0.12954984   -2.80714138  -37.05636636
     atom   18 type  2   force =     0.31923607    0.39780613   39.11104332
     atom   19 type  1   force =    -2.43836870    2.72641699    0.46025838
     atom   20 type  2   force =    -0.21363199    0.16593388   38.78684908
     atom   21 type  1   force =     0.21122152    2.27934292    2.15673975
     atom   22 type  2   force =     0.05894864    2.67219970  -37.79887312
     atom   23 type  2   force =     0.19896315   -0.41901325   38.73073567
     atom   24 type  1   force =     0.32530146   -1.38577474   -4.35230621
     atom   25 type  2   force =     0.40424850   -0.09110475  -38.55669665
     atom   26 type  2   force =     0.47154006   -0.01151259   37.85656912
     atom   27 type  1   force =     0.41300755   -1.11099638    3.45349557
     atom   28 type  2   force =    -0.14177297   -1.37900505  -37.71214122
     atom   29 type  2   force =     0.23175701    0.27991601   37.60990429
     atom   30 type  1   force =     0.28911554    1.05819122    0.90746073
     atom   31 type  2   force =    -1.08178359   -0.03358990  -36.88817171
     atom   32 type  2   force =     0.52595490   -0.01076902   38.87207806
     atom   33 type  1   force =    -0.03924225    1.66410837   -0.58824303
     atom   34 type  2   force =    -0.30103086    1.80354524  -38.91805076
     atom   35 type  2   force =     0.27519656   -0.31912088   38.11984023
     atom   36 type  3   force =    -2.29168086   -3.91154275  -53.22785593
     The core correction contribution to forces
     atom    1 type  1   force =     0.00000000    0.00000000    0.00000000
     atom    2 type  2   force =     0.00049723   -0.00029805    0.02043486
     atom    3 type  2   force =     0.00036042    0.00036130   -0.02071038
     atom    4 type  1   force =     0.00000000    0.00000000    0.00000000
     atom    5 type  2   force =    -0.00064722    0.00127485    0.02012291
     atom    6 type  2   force =     0.00050195   -0.00158229   -0.02063398
     atom    7 type  1   force =     0.00000000    0.00000000    0.00000000
     atom    8 type  2   force =     0.00010510    0.00036457    0.02048445
     atom    9 type  2   force =    -0.00007199    0.00045915   -0.02109945
     atom   10 type  1   force =     0.00000000    0.00000000    0.00000000
     atom   11 type  2   force =    -0.00012048   -0.00114482    0.02033096
     atom   12 type  2   force =     0.00125123    0.00148797   -0.02088948
     atom   13 type  1   force =     0.00000000    0.00000000    0.00000000
     atom   14 type  2   force =     0.04067389    0.05933915    0.14166932
     atom   15 type  2   force =     0.00086779    0.00053980   -0.02080369
     atom   16 type  1   force =     0.00000000    0.00000000    0.00000000
     atom   17 type  2   force =    -0.00004088    0.00195035    0.01982847
     atom   18 type  2   force =     0.00002303   -0.00079979   -0.02090662
     atom   19 type  1   force =     0.00000000    0.00000000    0.00000000
     atom   20 type  2   force =     0.00014472    0.00076407   -0.02126663
     atom   21 type  1   force =     0.00000000    0.00000000    0.00000000
     atom   22 type  2   force =    -0.00033754   -0.00108821    0.02017436
     atom   23 type  2   force =    -0.00047477    0.00139337   -0.02085730
     atom   24 type  1   force =     0.00000000    0.00000000    0.00000000
     atom   25 type  2   force =    -0.00150547   -0.00091427    0.02026794
     atom   26 type  2   force =     0.00008734    0.00090814   -0.02067746
     atom   27 type  1   force =     0.00000000    0.00000000    0.00000000
     atom   28 type  2   force =     0.00025041    0.00183281    0.02103323
     atom   29 type  2   force =    -0.00061043   -0.00048331   -0.02068266
     atom   30 type  1   force =     0.00000000    0.00000000    0.00000000
     atom   31 type  2   force =     0.00026647    0.00002978    0.02060441
     atom   32 type  2   force =    -0.00016042    0.00054731   -0.02105223
     atom   33 type  1   force =     0.00000000    0.00000000    0.00000000
     atom   34 type  2   force =     0.00025060    0.00115683    0.02103784
     atom   35 type  2   force =    -0.00009599    0.00093179   -0.02111252
     atom   36 type  3   force =    -0.00035799   -0.00063050   -0.00980124
     The Hubbard contrib.    to forces
     atom    1 type  1   force =     0.00000000    0.00000000    0.00000000
     atom    2 type  2   force =     0.00000000    0.00000000    0.00000000
     atom    3 type  2   force =     0.00000000    0.00000000    0.00000000
     atom    4 type  1   force =     0.00000000    0.00000000    0.00000000
     atom    5 type  2   force =     0.00000000    0.00000000    0.00000000
     atom    6 type  2   force =     0.00000000    0.00000000    0.00000000
     atom    7 type  1   force =     0.00000000    0.00000000    0.00000000
     atom    8 type  2   force =     0.00000000    0.00000000    0.00000000
     atom    9 type  2   force =     0.00000000    0.00000000    0.00000000
     atom   10 type  1   force =     0.00000000    0.00000000    0.00000000
     atom   11 type  2   force =     0.00000000    0.00000000    0.00000000
     atom   12 type  2   force =     0.00000000    0.00000000    0.00000000
     atom   13 type  1   force =     0.00000000    0.00000000    0.00000000
     atom   14 type  2   force =     0.00000000    0.00000000    0.00000000
     atom   15 type  2   force =     0.00000000    0.00000000    0.00000000
     atom   16 type  1   force =     0.00000000    0.00000000    0.00000000
     atom   17 type  2   force =     0.00000000    0.00000000    0.00000000
     atom   18 type  2   force =     0.00000000    0.00000000    0.00000000
     atom   19 type  1   force =     0.00000000    0.00000000    0.00000000
     atom   20 type  2   force =     0.00000000    0.00000000    0.00000000
     atom   21 type  1   force =     0.00000000    0.00000000    0.00000000
     atom   22 type  2   force =     0.00000000    0.00000000    0.00000000
     atom   23 type  2   force =     0.00000000    0.00000000    0.00000000
     atom   24 type  1   force =     0.00000000    0.00000000    0.00000000
     atom   25 type  2   force =     0.00000000    0.00000000    0.00000000
     atom   26 type  2   force =     0.00000000    0.00000000    0.00000000
     atom   27 type  1   force =     0.00000000    0.00000000    0.00000000
     atom   28 type  2   force =     0.00000000    0.00000000    0.00000000
     atom   29 type  2   force =     0.00000000    0.00000000    0.00000000
     atom   30 type  1   force =     0.00000000    0.00000000    0.00000000
     atom   31 type  2   force =     0.00000000    0.00000000    0.00000000
     atom   32 type  2   force =     0.00000000    0.00000000    0.00000000
     atom   33 type  1   force =     0.00000000    0.00000000    0.00000000
     atom   34 type  2   force =     0.00000000    0.00000000    0.00000000
     atom   35 type  2   force =     0.00000000    0.00000000    0.00000000
     atom   36 type  3   force =     0.00000000    0.00000000    0.00000000
     The SCF correction term to forces
     atom    1 type  1   force =     0.00009105   -0.00008010   -0.00074680
     atom    2 type  2   force =     0.00007193   -0.00004277   -0.00037835
     atom    3 type  2   force =     0.00003316   -0.00002653   -0.00014128
     atom    4 type  1   force =     0.00004984    0.00017481   -0.00061781
     atom    5 type  2   force =     0.00002348    0.00011518   -0.00037965
     atom    6 type  2   force =     0.00002322    0.00004720   -0.00013610
     atom    7 type  1   force =    -0.00007593   -0.00010542   -0.00050872
     atom    8 type  2   force =     0.00002551    0.00003943   -0.00035642
     atom    9 type  2   force =     0.00002013    0.00002434   -0.00007544
     atom   10 type  1   force =     0.00003827   -0.00012169   -0.00067205
     atom   11 type  2   force =    -0.00000802   -0.00007676   -0.00035795
     atom   12 type  2   force =    -0.00000919   -0.00000698   -0.00011213
     atom   13 type  1   force =    -0.00009661   -0.00009746   -0.00069127
     atom   14 type  2   force =    -0.00002910   -0.00012040   -0.00051348
     atom   15 type  2   force =     0.00001196   -0.00007013   -0.00014087
     atom   16 type  1   force =     0.00000361    0.00032763   -0.00055566
     atom   17 type  2   force =    -0.00003595    0.00011297   -0.00035396
     atom   18 type  2   force =    -0.00002391    0.00005280   -0.00014842
     atom   19 type  1   force =     0.00005511   -0.00007171   -0.00047969
     atom   20 type  2   force =    -0.00000319    0.00002288   -0.00006914
     atom   21 type  1   force =    -0.00001259   -0.00012891   -0.00064083
     atom   22 type  2   force =    -0.00001352   -0.00007530   -0.00034677
     atom   23 type  2   force =     0.00000233   -0.00001486   -0.00010782
     atom   24 type  1   force =     0.00000796   -0.00002032   -0.00070824
     atom   25 type  2   force =    -0.00005971   -0.00005538   -0.00035652
     atom   26 type  2   force =    -0.00003969   -0.00003627   -0.00013643
     atom   27 type  1   force =    -0.00005772    0.00018554   -0.00059369
     atom   28 type  2   force =     0.00000892    0.00005106   -0.00035827
     atom   29 type  2   force =     0.00000284    0.00000874   -0.00010395
     atom   30 type  1   force =     0.00000731   -0.00000102   -0.00053510
     atom   31 type  2   force =    -0.00001394    0.00004876   -0.00034025
     atom   32 type  2   force =    -0.00001660    0.00002672   -0.00007660
     atom   33 type  1   force =    -0.00002219   -0.00010990   -0.00061452
     atom   34 type  2   force =     0.00002224   -0.00007390   -0.00033242
     atom   35 type  2   force =     0.00000556   -0.00003288   -0.00009618
     atom   36 type  3   force =     0.00002587   -0.00000120   -0.00019519

     Total force =     5.802019     Total SCF correction =     0.002591

     BFGS Geometry Optimization
     Energy error            =      0.0E+00 Ry
     Gradient error          =      3.7E+00 Ry/Bohr

     number of scf cycles    =   1
     number of bfgs steps    =   0

     energy             new  =   -2245.2847495275 Ry

     new trust radius        =       0.5000000000 bohr
     new conv_thr            =       0.0000010000 Ry


ATOMIC_POSITIONS (angstrom)
Mo            6.5764278667        1.7858712000        2.8198142235
S             8.1756620813        0.8107577446        4.4347701622
S             8.1926136001        0.8117572807        1.2777868877
Mo            8.0954752909        4.4953857565        2.7175878559
S             6.4998212712        3.7222269637        4.3464247151
S             6.5533012976        3.5127046257        1.1213221289
Mo            6.4901809164        7.2174851518        2.6713596009
S             8.0818471874        6.3435250608        4.2435296514
S             8.0817003165        6.3051632249        1.0846798950
Mo            8.1600884329        9.9028749580        2.8415767492
S             6.4956012760        8.9426826391        4.3827717224
S             6.6179702645        9.0487933521        1.1401536777
Mo            3.4217705305        1.7470810721        2.7764996302
S             4.9089361825        0.7240893295        4.1139154311
S             5.0570233093        0.8464944290        1.2263861202
Mo            4.9798864155        4.5139105859        2.6332763850
S             3.4283201500        3.6716461873        4.2799812795
S             3.4378184702        3.5480216646        1.0590100146
Mo            3.4540963310        7.2156321248        2.6303503007
S             4.9834369671        6.3267525494        1.0373079928
Mo            5.0122806283        9.9012151830        2.7457075021
S             3.4705461894        8.9434522015        4.3253084829
S             3.4081824895        9.0650881174        1.0965016146
Mo            0.2954490562        1.7472775621        2.8478001876
S             1.8516385015        0.7937059461        4.3988150763
S             1.8598591301        0.8541306544        1.2091057003
Mo            1.8606464566        4.4955957575        2.6605816641
S             0.2722415976        3.6543583249        4.3372851947
S             0.2314112868        3.5272127667        1.1719173798
Mo            0.2709207300        7.2173232440        2.7013250965
S             1.9023192121        6.3127306732        4.2234320764
S             1.8616838328        6.3108203167        1.0452174019
Mo            1.8449882258        9.9398266847        2.7724059060
S             0.2961077396        9.0871953678        4.4132039451
S             0.2762418424        9.0439976311        1.1514294441
O             5.3196074911        1.3084823009        5.5112832658



     Writing config-only to output data dir ./MoS2-V-O.save/
     NEW-OLD atomic charge density approx. for the potential

     negative rho (up, down):  2.242E-04 0.000E+00

     total cpu time spent up to now is      129.5 secs

     Self-consistent Calculation

     iteration #  1     ecut=    80.00 Ry     beta= 0.70
     Davidson diagonalization with overlap
     c_bands:  1 eigenvalues not converged
     ethr =  1.00E-06,  avg # of iterations = 20.0

     negative rho (up, down):  8.542E-03 0.000E+00

     total cpu time spent up to now is      149.9 secs

     total energy              =   -2246.33464491 Ry
     estimated scf accuracy    <       0.33804896 Ry

     iteration #  2     ecut=    80.00 Ry     beta= 0.70
     Davidson diagonalization with overlap
     ethr =  1.08E-04,  avg # of iterations =  3.0

     negative rho (up, down):  2.014E-02 0.000E+00

     total cpu time spent up to now is      162.6 secs

     total energy              =   -2246.32592426 Ry
     estimated scf accuracy    <       0.09844179 Ry

     iteration #  3     ecut=    80.00 Ry     beta= 0.70
     Davidson diagonalization with overlap
     ethr =  3.16E-05,  avg # of iterations =  3.0

     negative rho (up, down):  2.542E-02 0.000E+00

     total cpu time spent up to now is      175.7 secs

     total energy              =   -2246.33385125 Ry
     estimated scf accuracy    <       0.01612633 Ry

     iteration #  4     ecut=    80.00 Ry     beta= 0.70
     Davidson diagonalization with overlap
     ethr =  5.17E-06,  avg # of iterations =  3.0

     negative rho (up, down):  2.553E-02 0.000E+00

     total cpu time spent up to now is      184.8 secs

     total energy              =   -2246.33361693 Ry
     estimated scf accuracy    <       0.00579060 Ry

     iteration #  5     ecut=    80.00 Ry     beta= 0.70
     Davidson diagonalization with overlap
     ethr =  1.86E-06,  avg # of iterations =  8.0

     negative rho (up, down):  2.336E-02 0.000E+00

     total cpu time spent up to now is      198.2 secs

     total energy              =   -2246.33440598 Ry
     estimated scf accuracy    <       0.00193855 Ry

     iteration #  6     ecut=    80.00 Ry     beta= 0.70
     Davidson diagonalization with overlap
     ethr =  6.21E-07,  avg # of iterations =  4.0

     negative rho (up, down):  1.952E-02 0.000E+00

     total cpu time spent up to now is      209.8 secs

     total energy              =   -2246.33447670 Ry
     estimated scf accuracy    <       0.00028190 Ry

     iteration #  7     ecut=    80.00 Ry     beta= 0.70
     Davidson diagonalization with overlap
     ethr =  9.04E-08,  avg # of iterations =  8.0

     negative rho (up, down):  1.436E-02 0.000E+00

     total cpu time spent up to now is      221.6 secs

     total energy              =   -2246.33438961 Ry
     estimated scf accuracy    <       0.00015890 Ry

     iteration #  8     ecut=    80.00 Ry     beta= 0.70
     Davidson diagonalization with overlap
     ethr =  5.09E-08,  avg # of iterations =  2.0

     negative rho (up, down):  9.372E-03 0.000E+00

     total cpu time spent up to now is      233.9 secs

     total energy              =   -2246.33431153 Ry
     estimated scf accuracy    <       0.00006061 Ry

     iteration #  9     ecut=    80.00 Ry     beta= 0.70
     Davidson diagonalization with overlap
     ethr =  1.94E-08,  avg # of iterations =  4.0

     negative rho (up, down):  5.490E-03 0.000E+00

     total cpu time spent up to now is      245.1 secs

     total energy              =   -2246.33426500 Ry
     estimated scf accuracy    <       0.00002945 Ry

     iteration # 10     ecut=    80.00 Ry     beta= 0.70
     Davidson diagonalization with overlap
     ethr =  9.44E-09,  avg # of iterations =  2.0

     negative rho (up, down):  2.879E-03 0.000E+00

     total cpu time spent up to now is      252.9 secs

     total energy              =   -2246.33424074 Ry
     estimated scf accuracy    <       0.00001101 Ry

     iteration # 11     ecut=    80.00 Ry     beta= 0.70
     Davidson diagonalization with overlap
     ethr =  3.53E-09,  avg # of iterations =  4.0

     negative rho (up, down):  1.218E-03 0.000E+00

     total cpu time spent up to now is      262.9 secs

     total energy              =   -2246.33422827 Ry
     estimated scf accuracy    <       0.00000469 Ry

     iteration # 12     ecut=    80.00 Ry     beta= 0.70
     Davidson diagonalization with overlap
     ethr =  1.50E-09,  avg # of iterations =  4.0

     negative rho (up, down):  3.790E-04 0.000E+00

     total cpu time spent up to now is      272.8 secs

     total energy              =   -2246.33422386 Ry
     estimated scf accuracy    <       0.00000148 Ry

     iteration # 13     ecut=    80.00 Ry     beta= 0.70
     Davidson diagonalization with overlap
     ethr =  4.75E-10,  avg # of iterations =  5.0

     negative rho (up, down):  1.882E-04 0.000E+00

     total cpu time spent up to now is      277.0 secs

     End of self-consistent calculation

          k = 0.0000 0.0000 0.0000 (105382 PWs)   bands (ev):

   -63.0644 -63.0099 -62.9964 -62.9934 -62.9804 -62.9702 -62.9679 -62.9620
   -62.9313 -62.9258 -62.8994 -62.8253 -37.4632 -37.3413 -37.3225 -37.2922
   -37.2818 -37.2754 -37.2487 -37.2316 -37.2226 -37.2086 -37.2066 -37.1880
   -37.1784 -37.1645 -37.1606 -37.1582 -37.1487 -37.1391 -37.1326 -37.1186
   -37.1134 -37.1000 -37.0953 -37.0885 -37.0779 -37.0695 -37.0497 -37.0321
   -37.0261 -37.0146 -37.0057 -36.9947 -36.9802 -36.9078 -36.9039 -36.8784
   -21.4744 -16.1071 -15.3443 -15.2836 -15.1161 -15.0803 -14.8940 -14.6363
   -14.6059 -14.5915 -14.5540 -14.5276 -14.5090 -14.4375 -14.3710 -14.2624
   -14.2531 -14.2278 -14.2019 -14.0817 -14.0228 -13.9988 -13.9636 -13.8966
    -8.1432  -7.9571  -7.8012  -7.6348  -7.4753  -7.4327  -7.4008  -7.2897
    -7.2451  -7.0418  -6.9697  -6.9427  -6.8459  -6.8257  -6.7513  -6.7013
    -6.5977  -6.5758  -6.4725  -6.4003  -6.2869  -6.0907  -6.0495  -5.9669
    -5.9534  -5.9217  -5.8911  -5.8430  -5.8277  -5.7790  -5.7744  -5.6837
    -5.6053  -5.5728  -5.5492  -5.4044  -5.2984  -5.2312  -5.2142  -5.1865
    -5.1239  -5.0450  -4.9954  -4.8900  -4.8106  -4.6904  -4.5776  -4.4573
    -4.3657  -4.3508  -4.2542  -4.2307  -4.1758  -4.1022  -4.0071  -3.8749
    -3.8352  -3.7723  -3.7415  -3.6892  -3.6793  -3.6639  -3.6384  -3.6136
    -3.5992  -3.5817  -3.4307  -3.3510  -3.1587  -3.0737  -3.0643  -3.0266
    -2.9880  -2.9498  -2.8584  -2.8282  -2.7933  -2.7206  -2.6409  -2.4348
    -2.2622  -2.1150  -2.0971  -1.8628  -0.9720  -0.8964  -0.4600  -0.3604
    -0.2858  -0.1857  -0.1147  -0.0253   0.0016   0.0299   0.0829   0.1413
     0.2789   0.2914   0.3255   0.3454   0.3908   0.4132   0.4363   0.4678
     0.5698   0.6023   0.6248   0.6702   0.6947   0.7098   0.7870   0.8388
     0.8950   0.9878   1.2133

     the Fermi energy is    -1.4176 ev

!    total energy              =   -2246.33422436 Ry
     estimated scf accuracy    <       0.00000027 Ry
     smearing contrib. (-TS)   =      -0.00000025 Ry
     internal energy E=F+TS    =   -2246.33422411 Ry

     The total energy is F=E-TS. E is the sum of the following terms:
     one-electron contribution =  -18461.11243819 Ry
     hartree contribution      =    9217.91648463 Ry
     xc contribution           =    -392.20064083 Ry
     ewald contribution        =    7398.92283456 Ry
     one-center paw contrib.   =      -9.86046427 Ry

     convergence has been achieved in  13 iterations

     negative rho (up, down):  1.882E-04 0.000E+00

     Forces acting on atoms (cartesian axes, Ry/au):

     atom    1 type  1   force =     0.03533884   -0.02359731   -0.05320600
     atom    2 type  2   force =    -0.01501019    0.01694341    0.00294607
     atom    3 type  2   force =    -0.01187783    0.01063760   -0.00210540
     atom    4 type  1   force =     0.00457609    0.00965340   -0.00406429
     atom    5 type  2   force =    -0.00146322   -0.00657062   -0.00547648
     atom    6 type  2   force =     0.00112775    0.01110650    0.00173432
     atom    7 type  1   force =     0.00537570   -0.01408757   -0.00733960
     atom    8 type  2   force =     0.00151085   -0.00534833    0.01714995
     atom    9 type  2   force =     0.01205987    0.00674786    0.01193610
     atom   10 type  1   force =    -0.00770670    0.01364200   -0.02661151
     atom   11 type  2   force =     0.00751351   -0.00343920   -0.00466127
     atom   12 type  2   force =     0.00206103   -0.00035745    0.00210138
     atom   13 type  1   force =    -0.04778813    0.02566396   -0.05116223
     atom   14 type  2   force =     0.08633484    0.13629781    0.17640199
     atom   15 type  2   force =    -0.01135373    0.00421267   -0.02232662
     atom   16 type  1   force =     0.00260240    0.00954057    0.00907181
     atom   17 type  2   force =     0.00814072   -0.00133974    0.00431052
     atom   18 type  2   force =    -0.00237082   -0.00228927    0.01017998
     atom   19 type  1   force =     0.00162991   -0.01010801   -0.00471428
     atom   20 type  2   force =     0.00309949   -0.00272776   -0.00007285
     atom   21 type  1   force =    -0.00391670   -0.07852062   -0.03698029
     atom   22 type  2   force =    -0.00803502   -0.00690057   -0.00198716
     atom   23 type  2   force =    -0.00321502    0.00048862    0.00596116
     atom   24 type  1   force =    -0.00724571   -0.00352047   -0.02481158
     atom   25 type  2   force =     0.01595127    0.01561893    0.01092995
     atom   26 type  2   force =    -0.01318668   -0.00299332   -0.00385719
     atom   27 type  1   force =     0.00058295    0.00227416    0.00344503
     atom   28 type  2   force =     0.00005011   -0.00201861   -0.00359147
     atom   29 type  2   force =     0.00296397   -0.00144167   -0.00220054
     atom   30 type  1   force =    -0.00335365    0.00986978   -0.00586750
     atom   31 type  2   force =     0.00156350   -0.00136114    0.01613993
     atom   32 type  2   force =    -0.00842189    0.00705883    0.01001542
     atom   33 type  1   force =     0.00912122   -0.00359676   -0.00941662
     atom   34 type  2   force =     0.00276757   -0.04167572   -0.00934825
     atom   35 type  2   force =    -0.00772606    0.00650616    0.01460980
     atom   36 type  3   force =    -0.05170023   -0.07436812   -0.01713230
     The non-local contrib.  to forces
     atom    1 type  1   force =    -0.02136949    0.02779408    0.00696712
     atom    2 type  2   force =     0.00689916   -0.00014026   -0.27778555
     atom    3 type  2   force =    -0.01666655   -0.00415022    0.26907769
     atom    4 type  1   force =    -0.00121454   -0.00128763    0.00905377
     atom    5 type  2   force =     0.00752817   -0.00758640   -0.25461004
     atom    6 type  2   force =    -0.00508698    0.01178043    0.26095744
     atom    7 type  1   force =    -0.01146785   -0.00191101   -0.02151038
     atom    8 type  2   force =    -0.00111845   -0.00059597   -0.25856354
     atom    9 type  2   force =     0.00483362   -0.00769225    0.27884757
     atom   10 type  1   force =     0.00763597    0.00291755    0.00079277
     atom   11 type  2   force =     0.01022682    0.00613938   -0.26589177
     atom   12 type  2   force =    -0.01150819   -0.01795825    0.26128966
     atom   13 type  1   force =     0.01015201    0.00420923    0.00789685
     atom   14 type  2   force =     0.10748852    0.10603893    0.40063213
     atom   15 type  2   force =    -0.01625407   -0.00861385    0.26117832
     atom   16 type  1   force =     0.00090873    0.02505722   -0.03094699
     atom   17 type  2   force =    -0.00045439   -0.02299104   -0.25159971
     atom   18 type  2   force =    -0.00158299    0.00208581    0.26886030
     atom   19 type  1   force =     0.01145750   -0.00457623   -0.01372571
     atom   20 type  2   force =    -0.00074578   -0.02061552    0.26729958
     atom   21 type  1   force =    -0.00085607    0.04535101    0.01061115
     atom   22 type  2   force =    -0.00005372    0.00819385   -0.26410749
     atom   23 type  2   force =     0.00584577   -0.01590968    0.26631233
     atom   24 type  1   force =     0.00075225    0.01671868    0.00204490
     atom   25 type  2   force =     0.02089815    0.01190758   -0.26802254
     atom   26 type  2   force =    -0.00248596   -0.01453287    0.26198000
     atom   27 type  1   force =    -0.00498865    0.00876831    0.01397058
     atom   28 type  2   force =    -0.00309328   -0.02424778   -0.27865126
     atom   29 type  2   force =     0.00725009   -0.00167130    0.26408694
     atom   30 type  1   force =    -0.00082223    0.01713248    0.00918598
     atom   31 type  2   force =    -0.00349878    0.00262821   -0.25834517
     atom   32 type  2   force =    -0.00154198   -0.00853471    0.27394110
     atom   33 type  1   force =    -0.01019895    0.00695087    0.00480470
     atom   34 type  2   force =     0.00042723   -0.03506715   -0.27599375
     atom   35 type  2   force =    -0.00138334   -0.00940120    0.27222961
     atom   36 type  3   force =    -0.64274299   -0.90883930   -1.75767364
     The ionic contribution  to forces
     atom    1 type  1   force =     2.82415992    1.58945637    1.16801363
     atom    2 type  2   force =     0.81315870    0.12447088   38.64573048
     atom    3 type  2   force =     0.11540486   -0.03158459  -36.91682592
     atom    4 type  1   force =     0.62240652    1.36753307   -0.58278132
     atom    5 type  2   force =    -0.18359087    3.11933298   37.88618892
     atom    6 type  2   force =     0.48211334   -0.19998155  -38.83258589
     atom    7 type  1   force =    -2.35958276   -3.12623184    1.46716389
     atom    8 type  2   force =    -0.81792846    0.12188820   37.21024726
     atom    9 type  2   force =     0.40670953   -0.01018326  -38.48029941
     atom   10 type  1   force =    -0.08584657   -1.30917364    4.09116201
     atom   11 type  2   force =    -0.08846654   -2.71415880   38.79243041
     atom   12 type  2   force =     0.56536059    0.40235273  -38.56643833
     atom   13 type  1   force =    -2.34211586    2.54403430   -0.96594744
     atom   14 type  2   force =    -1.56111850   -2.45627363   29.32816102
     atom   15 type  2   force =     0.15366903   -0.09577521  -38.33249391
     atom   16 type  1   force =    -0.13354168    5.33348112   -1.28603966
     atom   17 type  2   force =    -0.02884103    2.68134004   37.31345126
     atom   18 type  2   force =    -0.31583937   -0.37331653  -39.31492944
     atom   19 type  1   force =     2.41743313   -2.79756173   -0.41223653
     atom   20 type  2   force =     0.21613182   -0.16560472  -39.02488296
     atom   21 type  1   force =     0.09056191   -3.46668874   -2.34144144
     atom   22 type  2   force =    -0.06959072   -2.69642068   38.16042808
     atom   23 type  2   force =    -0.22275953    0.38724990  -38.99080797
     atom   24 type  1   force =    -0.36595729    1.36762358    4.38494679
     atom   25 type  2   force =    -0.36698074    0.13286139   38.91173879
     atom   26 type  2   force =    -0.51928206    0.04424653  -38.10167287
     atom   27 type  1   force =    -0.38616027    1.07546269   -3.36875946
     atom   28 type  2   force =     0.14772683    1.37160038   37.95799204
     atom   29 type  2   force =    -0.23615909   -0.26768155  -37.83655770
     atom   30 type  1   force =    -0.29720699   -1.09203891   -0.88586217
     atom   31 type  2   force =     1.08736538    0.02189390   37.15509343
     atom   32 type  2   force =    -0.53272353    0.01121581  -39.09515388
     atom   33 type  1   force =    -0.12661290   -1.69937180    0.66631237
     atom   34 type  2   force =     0.27922910   -1.77003950   39.16791956
     atom   35 type  2   force =    -0.28331590    0.32985567  -38.33363749
     atom   36 type  3   force =     1.10219000    2.24618713   49.36237383
     The local contribution  to forces
     atom    1 type  1   force =    -2.76799436   -1.64108001   -1.22863167
     atom    2 type  2   force =    -0.83435166   -0.10747671  -38.38636706
     atom    3 type  2   force =    -0.11140773    0.04624781   36.66624886
     atom    4 type  1   force =    -0.61682049   -1.35690084    0.56912546
     atom    5 type  2   force =     0.17532257   -3.11870017  -37.65790728
     atom    6 type  2   force =    -0.47649651    0.20039116   38.59389435
     atom    7 type  1   force =     2.37615725    3.11416385   -1.45342637
     atom    8 type  2   force =     0.82032732   -0.12695075  -36.95524284
     atom    9 type  2   force =    -0.39956061    0.02418864   38.23417495
     atom   10 type  1   force =     0.07029897    1.32017157   -4.11902066
     atom   11 type  2   force =     0.08597470    2.70531651  -38.55229256
     atom   12 type  2   force =    -0.55295953   -0.38605782   38.32781293
     atom   13 type  1   force =     2.28453535   -2.52291741    0.90657753
     atom   14 type  2   force =     1.54616828    2.49329311  -29.53885378
     atom   15 type  2   force =    -0.14968485    0.10810073   38.06956901
     atom   16 type  1   force =     0.13521548   -5.34929992    1.32547189
     atom   17 type  2   force =     0.03727902   -2.66100369  -37.07819344
     atom   18 type  2   force =     0.31520696    0.36962681   39.07686180
     atom   19 type  1   force =    -2.42697074    2.79217544    0.42079907
     atom   20 type  2   force =    -0.21242785    0.18266844   38.77855220
     atom   21 type  1   force =    -0.09369899    3.34333583    2.29360296
     atom   22 type  2   force =     0.06194472    2.68236897  -37.91921141
     atom   23 type  2   force =     0.21423373   -0.37198901   38.75106549
     atom   24 type  1   force =     0.35814920   -1.38797223   -4.41229888
     atom   25 type  2   force =     0.36298342   -0.12847139  -38.65399118
     atom   26 type  2   force =     0.50882082   -0.03349847   37.85647798
     atom   27 type  1   force =     0.39193804   -1.08238283    3.35769838
     atom   28 type  2   force =    -0.14474325   -1.35131922  -37.70420038
     atom   29 type  2   force =     0.23250914    0.26823407   37.59060428
     atom   30 type  1   force =     0.29465169    1.08492361    0.87029351
     atom   31 type  2   force =    -1.08246329   -0.02586736  -36.90143173
     atom   32 type  2   force =     0.52610916    0.00382908   38.85194810
     atom   33 type  1   force =     0.14623641    1.68926336   -0.68094091
     atom   34 type  2   force =    -0.27713008    1.76247660  -38.92261438
     atom   35 type  2   force =     0.27713032   -0.31469308   38.09691470
     atom   36 type  3   force =    -0.51837503   -1.42191044  -47.64047230
     The core correction contribution to forces
     atom    1 type  1   force =     0.00000000    0.00000000    0.00000000
     atom    2 type  2   force =    -0.00079842    0.00010593    0.02137814
     atom    3 type  2   force =     0.00072813    0.00014623   -0.02083998
     atom    4 type  1   force =     0.00000000    0.00000000    0.00000000
     atom    5 type  2   force =    -0.00084154    0.00023380    0.02080870
     atom    6 type  2   force =     0.00047929   -0.00117575   -0.02074757
     atom    7 type  1   force =     0.00000000    0.00000000    0.00000000
     atom    8 type  2   force =     0.00012058    0.00031960    0.02065066
     atom    9 type  2   force =     0.00000128    0.00041789   -0.02110573
     atom   10 type  1   force =     0.00000000    0.00000000    0.00000000
     atom   11 type  2   force =    -0.00033356   -0.00061168    0.02106261
     atom   12 type  2   force =     0.00110334    0.00140317   -0.02078749
     atom   13 type  1   force =     0.00000000    0.00000000    0.00000000
     atom   14 type  2   force =    -0.00623596   -0.00671842   -0.01371481
     atom   15 type  2   force =     0.00088584    0.00053579   -0.02065072
     atom   16 type  1   force =     0.00000000    0.00000000    0.00000000
     atom   17 type  2   force =     0.00024521    0.00114222    0.02057409
     atom   18 type  2   force =    -0.00006643   -0.00078115   -0.02080694
     atom   19 type  1   force =     0.00000000    0.00000000    0.00000000
     atom   20 type  2   force =     0.00016523    0.00076458   -0.02128266
     atom   21 type  1   force =     0.00000000    0.00000000    0.00000000
     atom   22 type  2   force =    -0.00024884   -0.00083953    0.02086219
     atom   23 type  2   force =    -0.00049579    0.00129387   -0.02083102
     atom   24 type  1   force =     0.00000000    0.00000000    0.00000000
     atom   25 type  2   force =    -0.00081187   -0.00066902    0.02114180
     atom   26 type  2   force =    -0.00015551    0.00079282   -0.02080794
     atom   27 type  1   force =     0.00000000    0.00000000    0.00000000
     atom   28 type  2   force =     0.00019325    0.00179289    0.02122579
     atom   29 type  2   force =    -0.00061296   -0.00043200   -0.02060244
     atom   30 type  1   force =     0.00000000    0.00000000    0.00000000
     atom   31 type  2   force =     0.00024077   -0.00003500    0.02077731
     atom   32 type  2   force =    -0.00021929    0.00050679   -0.02105959
     atom   33 type  1   force =     0.00000000    0.00000000    0.00000000
     atom   34 type  2   force =     0.00027451    0.00111322    0.02130244
     atom   35 type  2   force =    -0.00013529    0.00087042   -0.02116770
     atom   36 type  3   force =     0.00717979    0.01013055    0.01880622
     The Hubbard contrib.    to forces
     atom    1 type  1   force =     0.00000000    0.00000000    0.00000000
     atom    2 type  2   force =     0.00000000    0.00000000    0.00000000
     atom    3 type  2   force =     0.00000000    0.00000000    0.00000000
     atom    4 type  1   force =     0.00000000    0.00000000    0.00000000
     atom    5 type  2   force =     0.00000000    0.00000000    0.00000000
     atom    6 type  2   force =     0.00000000    0.00000000    0.00000000
     atom    7 type  1   force =     0.00000000    0.00000000    0.00000000
     atom    8 type  2   force =     0.00000000    0.00000000    0.00000000
     atom    9 type  2   force =     0.00000000    0.00000000    0.00000000
     atom   10 type  1   force =     0.00000000    0.00000000    0.00000000
     atom   11 type  2   force =     0.00000000    0.00000000    0.00000000
     atom   12 type  2   force =     0.00000000    0.00000000    0.00000000
     atom   13 type  1   force =     0.00000000    0.00000000    0.00000000
     atom   14 type  2   force =     0.00000000    0.00000000    0.00000000
     atom   15 type  2   force =     0.00000000    0.00000000    0.00000000
     atom   16 type  1   force =     0.00000000    0.00000000    0.00000000
     atom   17 type  2   force =     0.00000000    0.00000000    0.00000000
     atom   18 type  2   force =     0.00000000    0.00000000    0.00000000
     atom   19 type  1   force =     0.00000000    0.00000000    0.00000000
     atom   20 type  2   force =     0.00000000    0.00000000    0.00000000
     atom   21 type  1   force =     0.00000000    0.00000000    0.00000000
     atom   22 type  2   force =     0.00000000    0.00000000    0.00000000
     atom   23 type  2   force =     0.00000000    0.00000000    0.00000000
     atom   24 type  1   force =     0.00000000    0.00000000    0.00000000
     atom   25 type  2   force =     0.00000000    0.00000000    0.00000000
     atom   26 type  2   force =     0.00000000    0.00000000    0.00000000
     atom   27 type  1   force =     0.00000000    0.00000000    0.00000000
     atom   28 type  2   force =     0.00000000    0.00000000    0.00000000
     atom   29 type  2   force =     0.00000000    0.00000000    0.00000000
     atom   30 type  1   force =     0.00000000    0.00000000    0.00000000
     atom   31 type  2   force =     0.00000000    0.00000000    0.00000000
     atom   32 type  2   force =     0.00000000    0.00000000    0.00000000
     atom   33 type  1   force =     0.00000000    0.00000000    0.00000000
     atom   34 type  2   force =     0.00000000    0.00000000    0.00000000
     atom   35 type  2   force =     0.00000000    0.00000000    0.00000000
     atom   36 type  3   force =     0.00000000    0.00000000    0.00000000
     The SCF correction term to forces
     atom    1 type  1   force =     0.00054177    0.00023296    0.00043059
     atom    2 type  2   force =     0.00008103   -0.00001571   -0.00002426
     atom    3 type  2   force =     0.00006246   -0.00002091    0.00021962
     atom    4 type  1   force =     0.00020360    0.00030953    0.00052347
     atom    5 type  2   force =     0.00011746    0.00014990    0.00002890
     atom    6 type  2   force =     0.00011762    0.00009294    0.00020165
     atom    7 type  1   force =     0.00026807   -0.00010785    0.00041893
     atom    8 type  2   force =     0.00010887   -0.00000868    0.00004409
     atom    9 type  2   force =     0.00007504    0.00001757    0.00030440
     atom   10 type  1   force =     0.00020393   -0.00027275    0.00044004
     atom   11 type  2   force =     0.00011110   -0.00012388    0.00001571
     atom   12 type  2   force =     0.00006383   -0.00009656    0.00021029
     atom   13 type  1   force =    -0.00036062    0.00033857    0.00029650
     atom   14 type  2   force =     0.00003150   -0.00004146    0.00016310
     atom   15 type  2   force =     0.00002932   -0.00003408    0.00005635
     atom   16 type  1   force =     0.00001889    0.00030288    0.00057224
     atom   17 type  2   force =    -0.00008908    0.00017347    0.00006399
     atom   18 type  2   force =    -0.00009000    0.00009651    0.00017993
     atom   19 type  1   force =    -0.00029098   -0.00014476    0.00043457
     atom   20 type  2   force =    -0.00002492    0.00006018    0.00022667
     atom   21 type  1   force =     0.00007545   -0.00051799    0.00023271
     atom   22 type  2   force =    -0.00008746   -0.00020247    0.00002714
     atom   23 type  2   force =    -0.00004019   -0.00015573    0.00020799
     atom   24 type  1   force =    -0.00019086    0.00011023    0.00048129
     atom   25 type  2   force =    -0.00013867   -0.00000891    0.00004874
     atom   26 type  2   force =    -0.00008497   -0.00000060    0.00015131
     atom   27 type  1   force =    -0.00020717    0.00042672    0.00052118
     atom   28 type  2   force =    -0.00003444    0.00015584    0.00002802
     atom   29 type  2   force =    -0.00002420    0.00010983    0.00025405
     atom   30 type  1   force =     0.00002289   -0.00014668    0.00050085
     atom   31 type  2   force =    -0.00008157    0.00001984    0.00003176
     atom   32 type  2   force =    -0.00004724    0.00004258    0.00032537
     atom   33 type  1   force =    -0.00030433   -0.00043846    0.00039290
     atom   34 type  2   force =    -0.00003418   -0.00015816    0.00002355
     atom   35 type  2   force =    -0.00002284   -0.00012493    0.00025636
     atom   36 type  3   force =     0.00004700    0.00006466   -0.00018074

     Total force =     0.303868     Total SCF correction =     0.002336
     Energy error            =      1.0E+00 Ry
     Gradient error          =      1.8E-01 Ry/Bohr

     number of scf cycles    =   2
     number of bfgs steps    =   1

     energy             old  =   -2245.2847495275 Ry
     energy             new  =   -2246.3342243594 Ry

     CASE: energy            _new < energy            _old

     new trust radius        =       0.1176752715 bohr
     new conv_thr            =       0.0000001764 Ry


ATOMIC_POSITIONS (angstrom)
Mo            6.5949828494        1.7733107295        2.7916274485
S             8.1677184320        0.8196922948        4.4363358572
S             8.1863800990        0.8173300603        1.2766852972
Mo            8.0978953952        4.5004080851        2.7154502568
S             6.4990504439        3.7188183463        4.3435631117
S             6.5538662364        3.5186305553        1.1222201301
Mo            6.4929817463        7.2100374756        2.6674721497
S             8.0826502746        6.3407014573        4.2525734986
S             8.0880678788        6.3087318321        1.0909927025
Mo            8.1560116889        9.9100300471        2.8274863734
S             6.4995548601        8.9408614974        4.3803027447
S             6.6190307298        9.0486310297        1.1412907748
Mo            3.3973438999        1.7602453809        2.7503257252
S             4.9365122647        0.7705584736        4.1448648210
S             5.0510101309        0.8487084040        1.2148927355
Mo            4.9812506568        4.5189764046        2.6380168985
S             3.4326059257        3.6709722676        4.2822552011
S             3.4365796590        3.5467982807        1.0643844195
Mo            3.4549892107        7.2102860076        2.6278560124
S             4.9850738904        6.3253116224        1.0372843172
Mo            5.0102805409        9.8609376554        2.7273619764
S             3.4663311887        8.9398460224        4.3242206961
S             3.4064754402        9.0653627590        1.0996607264
Mo            0.2915804337        1.7454178919        2.8346911781
S             1.8600960777        0.8019522508        4.4045600478
S             1.8528752770        0.8525248722        1.2070578822
Mo            1.8609335222        4.4967417031        2.6624409131
S             0.2722741951        3.6533151949        4.3353724125
S             0.2329731707        3.5264658872        1.1707661109
Mo            0.2691465627        7.2225436262        2.6982294510
S             1.9031395927        6.3120170533        4.2319389801
S             1.8572351518        6.3145519618        1.0505075441
Mo            1.8498166305        9.9379077952        2.7674517133
S             0.2975728216        9.0651662448        4.4082533574
S             0.2721554575        9.0474453139        1.1591635431
O             5.3096602320        1.2940321488        5.5622673542



     Writing config-only to output data dir ./MoS2-V-O.save/
     NEW-OLD atomic charge density approx. for the potential

     negative rho (up, down):  1.602E-04 0.000E+00

     total cpu time spent up to now is      285.1 secs

     Self-consistent Calculation

     iteration #  1     ecut=    80.00 Ry     beta= 0.70
     Davidson diagonalization with overlap
     c_bands:  1 eigenvalues not converged
     ethr =  1.00E-06,  avg # of iterations = 20.0

     negative rho (up, down):  2.377E-04 0.000E+00

     total cpu time spent up to now is      303.7 secs

     total energy              =   -2246.37578123 Ry
     estimated scf accuracy    <       0.00724537 Ry

     iteration #  2     ecut=    80.00 Ry     beta= 0.70
     Davidson diagonalization with overlap
     ethr =  2.32E-06,  avg # of iterations =  7.0

     negative rho (up, down):  3.342E-04 0.000E+00

     total cpu time spent up to now is      317.9 secs

     total energy              =   -2246.37593930 Ry
     estimated scf accuracy    <       0.00194051 Ry

     iteration #  3     ecut=    80.00 Ry     beta= 0.70
     Davidson diagonalization with overlap
     ethr =  6.22E-07,  avg # of iterations =  2.0

     negative rho (up, down):  3.929E-04 0.000E+00

     total cpu time spent up to now is      331.8 secs

     total energy              =   -2246.37600810 Ry
     estimated scf accuracy    <       0.00034075 Ry

     iteration #  4     ecut=    80.00 Ry     beta= 0.70
     Davidson diagonalization with overlap
     ethr =  1.09E-07,  avg # of iterations =  8.0

     negative rho (up, down):  3.732E-04 0.000E+00

     total cpu time spent up to now is      353.3 secs

     total energy              =   -2246.37607535 Ry
     estimated scf accuracy    <       0.00004007 Ry

     iteration #  5     ecut=    80.00 Ry     beta= 0.70
     Davidson diagonalization with overlap
     ethr =  1.28E-08,  avg # of iterations =  5.0

     negative rho (up, down):  3.541E-04 0.000E+00

     total cpu time spent up to now is      366.6 secs

     total energy              =   -2246.37608463 Ry
     estimated scf accuracy    <       0.00001297 Ry

     iteration #  6     ecut=    80.00 Ry     beta= 0.70
     Davidson diagonalization with overlap
     ethr =  4.16E-09,  avg # of iterations =  2.0

     negative rho (up, down):  3.257E-04 0.000E+00

     total cpu time spent up to now is      379.7 secs

     total energy              =   -2246.37608501 Ry
     estimated scf accuracy    <       0.00000432 Ry

     iteration #  7     ecut=    80.00 Ry     beta= 0.70
     Davidson diagonalization with overlap
     ethr =  1.38E-09,  avg # of iterations =  5.0

     negative rho (up, down):  2.974E-04 0.000E+00

     total cpu time spent up to now is      394.7 secs

     total energy              =   -2246.37608555 Ry
     estimated scf accuracy    <       0.00000073 Ry

     iteration #  8     ecut=    80.00 Ry     beta= 0.70
     Davidson diagonalization with overlap
     ethr =  2.34E-10,  avg # of iterations =  4.0

     negative rho (up, down):  2.585E-04 0.000E+00

     total cpu time spent up to now is      405.2 secs

     total energy              =   -2246.37608569 Ry
     estimated scf accuracy    <       0.00000032 Ry

     iteration #  9     ecut=    80.00 Ry     beta= 0.70
     Davidson diagonalization with overlap
     ethr =  1.02E-10,  avg # of iterations =  5.0

     negative rho (up, down):  1.868E-04 0.000E+00

     total cpu time spent up to now is      409.4 secs

     End of self-consistent calculation

          k = 0.0000 0.0000 0.0000 (105382 PWs)   bands (ev):

   -63.0597 -63.0126 -62.9922 -62.9878 -62.9812 -62.9748 -62.9675 -62.9621
   -62.9337 -62.9285 -62.9119 -62.8280 -37.4279 -37.3454 -37.3070 -37.2902
   -37.2772 -37.2729 -37.2565 -37.2246 -37.2204 -37.2094 -37.1988 -37.1879
   -37.1754 -37.1613 -37.1581 -37.1571 -37.1483 -37.1420 -37.1332 -37.1171
   -37.1155 -37.1016 -37.0967 -37.0916 -37.0813 -37.0691 -37.0545 -37.0331
   -37.0239 -37.0177 -37.0076 -36.9999 -36.9808 -36.9161 -36.9074 -36.8905
   -21.6377 -16.1025 -15.3392 -15.2744 -15.1174 -15.0660 -14.8880 -14.6385
   -14.6116 -14.5811 -14.5570 -14.5401 -14.4974 -14.4435 -14.3688 -14.2727
   -14.2616 -14.2359 -14.2102 -14.0393 -14.0248 -14.0077 -13.9272 -13.8898
    -8.0518  -7.8784  -7.7709  -7.6183  -7.4647  -7.4449  -7.4115  -7.3033
    -7.2374  -7.0545  -6.9755  -6.9525  -6.8501  -6.8393  -6.7378  -6.7216
    -6.6050  -6.5829  -6.4782  -6.3957  -6.2900  -6.0882  -6.0538  -5.9731
    -5.9589  -5.9307  -5.8914  -5.8420  -5.8251  -5.7951  -5.7676  -5.6648
    -5.5985  -5.5757  -5.5320  -5.3811  -5.2909  -5.2432  -5.2151  -5.1776
    -5.1303  -5.0589  -4.9927  -4.9170  -4.8236  -4.6763  -4.5560  -4.4793
    -4.3693  -4.3680  -4.2849  -4.2483  -4.2045  -4.1022  -4.0261  -3.8746
    -3.8371  -3.7911  -3.7594  -3.6866  -3.6726  -3.6590  -3.6401  -3.6151
    -3.5991  -3.5765  -3.4392  -3.3663  -3.1836  -3.0962  -3.0546  -2.9855
    -2.9735  -2.9404  -2.8586  -2.8347  -2.7986  -2.7160  -2.6599  -2.4285
    -2.3153  -2.1160  -2.1037  -1.9890  -0.9623  -0.9049  -0.4265  -0.3322
    -0.2990  -0.1859  -0.0968  -0.0194   0.0274   0.0340   0.0952   0.1292
     0.2827   0.2984   0.3355   0.3452   0.4004   0.4159   0.4595   0.4688
     0.5819   0.5894   0.6010   0.6833   0.7052   0.7456   0.7954   0.8304
     0.8893   0.9600   1.1887

     the Fermi energy is    -1.4759 ev

!    total energy              =   -2246.37608576 Ry
     estimated scf accuracy    <       0.00000010 Ry
     smearing contrib. (-TS)   =      -0.00000001 Ry
     internal energy E=F+TS    =   -2246.37608575 Ry

     The total energy is F=E-TS. E is the sum of the following terms:
     one-electron contribution =  -18448.37471682 Ry
     hartree contribution      =    9211.52089007 Ry
     xc contribution           =    -392.17053540 Ry
     ewald contribution        =    7392.50827770 Ry
     one-center paw contrib.   =      -9.86000129 Ry

     convergence has been achieved in   9 iterations

     negative rho (up, down):  1.868E-04 0.000E+00

     Forces acting on atoms (cartesian axes, Ry/au):

     atom    1 type  1   force =     0.01821427   -0.00672609   -0.02521298
     atom    2 type  2   force =    -0.01229869    0.01312516   -0.00499571
     atom    3 type  2   force =    -0.00422839    0.00505778   -0.01642072
     atom    4 type  1   force =     0.00341112    0.00439775    0.00043443
     atom    5 type  2   force =     0.00192837   -0.01008148   -0.00975053
     atom    6 type  2   force =     0.00115537    0.01268283   -0.00254197
     atom    7 type  1   force =     0.00805311   -0.01108565   -0.00100667
     atom    8 type  2   force =     0.00182781   -0.00443055    0.01210674
     atom    9 type  2   force =     0.01128068    0.00597529    0.00636217
     atom   10 type  1   force =    -0.00482847    0.00912523   -0.00785971
     atom   11 type  2   force =     0.00575548   -0.00455613   -0.00820524
     atom   12 type  2   force =     0.00296802   -0.00515969   -0.00483135
     atom   13 type  1   force =    -0.01182738    0.01356913   -0.01440397
     atom   14 type  2   force =     0.06812535    0.09145152    0.11663035
     atom   15 type  2   force =    -0.01324630   -0.00509911   -0.01475629
     atom   16 type  1   force =     0.00068329    0.00560906    0.00612370
     atom   17 type  2   force =     0.00422039   -0.00130789    0.00118108
     atom   18 type  2   force =    -0.00232652    0.00264105    0.00489758
     atom   19 type  1   force =    -0.00112715   -0.00901463    0.00021911
     atom   20 type  2   force =     0.00275715   -0.00342527   -0.00291792
     atom   21 type  1   force =    -0.00570699   -0.01432644   -0.00015383
     atom   22 type  2   force =    -0.00366364   -0.00668383   -0.00371216
     atom   23 type  2   force =    -0.00510198   -0.00491645   -0.00163790
     atom   24 type  1   force =    -0.00686913   -0.00538113   -0.00754426
     atom   25 type  2   force =     0.01107776    0.01397900    0.00026484
     atom   26 type  2   force =    -0.01587333   -0.00553430   -0.01322704
     atom   27 type  1   force =     0.00060330    0.00200040    0.00665584
     atom   28 type  2   force =    -0.00023682   -0.00254325   -0.00576359
     atom   29 type  2   force =     0.00264753    0.00199410   -0.00465957
     atom   30 type  1   force =    -0.00205098    0.00104733    0.00332961
     atom   31 type  2   force =     0.00019730   -0.00114280    0.01040709
     atom   32 type  2   force =    -0.00761957    0.00577485    0.00630784
     atom   33 type  1   force =     0.00658454   -0.00052031    0.00163102
     atom   34 type  2   force =    -0.00007939   -0.03031312   -0.01402413
     atom   35 type  2   force =    -0.00585445    0.00737695    0.00682785
     atom   36 type  3   force =    -0.04855166   -0.06355932   -0.01975369
     The non-local contrib.  to forces
     atom    1 type  1   force =    -0.01514165    0.02315198    0.01206875
     atom    2 type  2   force =     0.00834477   -0.00155022   -0.27947985
     atom    3 type  2   force =    -0.00982138   -0.00902505    0.25836663
     atom    4 type  1   force =    -0.00013016    0.00169094    0.00703953
     atom    5 type  2   force =     0.00936819   -0.01180574   -0.25955405
     atom    6 type  2   force =    -0.00408858    0.01128796    0.26011872
     atom    7 type  1   force =    -0.01296093   -0.00231382   -0.02244035
     atom    8 type  2   force =    -0.00021876   -0.00110738   -0.26180974
     atom    9 type  2   force =     0.00445218   -0.00802161    0.27518953
     atom   10 type  1   force =     0.00556299    0.00446224   -0.00267328
[...]
     atom   28 type  2   force =     0.00016947   -0.01321886   -0.27900124
     atom   29 type  2   force =    -0.00084660   -0.01118882    0.27044929
     atom   30 type  1   force =    -0.00006792    0.02094259    0.00398046
     atom   31 type  2   force =    -0.00367968    0.00218379   -0.26725464
     atom   32 type  2   force =     0.00597961   -0.01515200    0.26912917
     atom   33 type  1   force =    -0.00174492    0.00721432    0.00122946
     atom   34 type  2   force =     0.00051222   -0.00810156   -0.27563710
     atom   35 type  2   force =    -0.00064821   -0.01200371    0.26655760
     atom   36 type  3   force =    -0.00851883   -0.00925565   -2.32258157
     The ionic contribution  to forces
     atom    1 type  1   force =     0.70527390    1.30710182   -2.15660594
     atom    2 type  2   force =     0.82722709    0.09866350   38.08487996
     atom    3 type  2   force =     0.10870039   -0.16478233  -38.46153587
     atom    4 type  1   force =     0.21978709    0.84474094   -1.16990557
     atom    5 type  2   force =    -0.34805754    2.13834902   37.62438087
     atom    6 type  2   force =     0.16937588   -0.14327547  -38.95487996
     atom    7 type  1   force =    -2.59879634   -2.41178988    1.99295602
     atom    8 type  2   force =    -1.05978278    0.06224778   38.13539344
     atom    9 type  2   force =     0.35490102    0.08344381  -38.40974416
     atom   10 type  1   force =     0.10915309   -1.03021415    1.58866569
     atom   11 type  2   force =     0.11737452   -2.37989519   38.03413179
     atom   12 type  2   force =     0.24534907    0.18016062  -38.56092618
     atom   13 type  1   force =    -0.73331765    1.27541879   -2.02343822
     atom   14 type  2   force =    -0.02228277   -0.06022393   28.31514304
     atom   15 type  2   force =    -0.01671937   -0.20374707  -38.13791227
     atom   16 type  1   force =     0.02343253    4.25385240    0.40551275
     atom   17 type  2   force =     0.36918704    2.13526688   37.67220486
     atom   18 type  2   force =    -0.18247901   -0.14352847  -38.92059371
     atom   19 type  1   force =     2.63702722   -2.43118104    2.73466405
     atom   20 type  2   force =    -0.02749531    0.06411667  -38.82507526
     atom   21 type  1   force =     0.00597695   -1.44556040   -2.19007604
     atom   22 type  2   force =    -0.10998200   -2.35763758   38.15010917
     atom   23 type  2   force =    -0.27022804    0.16793492  -38.46178656
     atom   24 type  1   force =     0.00992296    0.81583551    0.34702657
     atom   25 type  2   force =    -0.82586999    0.10749325   38.10073001
     atom   26 type  2   force =    -0.07983674   -0.18597794  -38.39483049
     atom   27 type  1   force =    -0.23608569    0.84069352   -0.81547183
     atom   28 type  2   force =    -0.01621890    0.77508537   37.67808947
     atom   29 type  2   force =     0.01761589    0.02979226  -38.20832345
     atom   30 type  1   force =     0.00320310   -0.77936191    1.69859841
     atom   31 type  2   force =     1.01170387    0.06896440   38.23552322
     atom   32 type  2   force =    -0.33432936    0.08816580  -38.29328322
     atom   33 type  1   force =    -0.10126038   -0.99840159    1.92250441
     atom   34 type  2   force =    -0.01971778   -0.76377170   38.70536643
     atom   35 type  2   force =     0.02008902   -0.00491486  -37.83417229
     atom   36 type  3   force =     0.02715902    0.16693628   50.39268088
     The local contribution  to forces
     atom    1 type  1   force =    -0.69705340   -1.32028585    2.14350329
     atom    2 type  2   force =    -0.82654377   -0.09172401  -37.83320179
     atom    3 type  2   force =    -0.10634368    0.17369991   38.21862628
     atom    4 type  1   force =    -0.22571157   -0.85154048    1.16387354
     atom    5 type  2   force =     0.34545319   -2.11789092  -37.38705047
     atom    6 type  2   force =    -0.17048800    0.14675540   38.71129653
     atom    7 type  1   force =     2.60747487    2.41159090   -1.96939285
     atom    8 type  2   force =     1.05496922   -0.06385577  -37.88955950
     atom    9 type  2   force =    -0.34868287   -0.06980790   38.16270012
     atom   10 type  1   force =    -0.11122548    1.02249419   -1.59035157
     atom   11 type  2   force =    -0.12279857    2.38069431  -37.79097540
     atom   12 type  2   force =    -0.23744694   -0.16752836   38.31706763
     atom   13 type  1   force =     0.72501026   -1.29081607    2.01094151
     atom   14 type  2   force =     0.02179391    0.06546068  -28.60142107
     atom   15 type  2   force =     0.01662700    0.21314003   37.88423770
     atom   16 type  1   force =    -0.02382947   -4.28367482   -0.37372406
     atom   17 type  2   force =    -0.36625938   -2.11510439  -37.43477414
     atom   18 type  2   force =     0.18348663    0.14730344   38.67692770
     atom   19 type  1   force =    -2.64599003    2.43126098   -2.71087659
     atom   20 type  2   force =     0.02687415   -0.04961824   38.58057812
     atom   21 type  1   force =    -0.00542155    1.41040188    2.17493452
     atom   22 type  2   force =     0.11596121    2.35887497  -37.90734090
     atom   23 type  2   force =     0.26210643   -0.15518390   38.21778553
     atom   24 type  1   force =    -0.00905618   -0.83419142   -0.35608106
     atom   25 type  2   force =     0.82486037   -0.10047252  -37.84872060
     atom   26 type  2   force =     0.07793428    0.19459017   38.15151874
     atom   27 type  1   force =     0.24145292   -0.84787588    0.80960565
     atom   28 type  2   force =     0.01572576   -0.76285469  -37.41973720
     atom   29 type  2   force =    -0.01745521   -0.01946833   37.95841232
     atom   30 type  1   force =    -0.00295689    0.75835152   -1.70245130
     atom   31 type  2   force =    -1.00770550   -0.07087062  -37.98989282
     atom   32 type  2   force =     0.32864609   -0.07442106   38.04603477
     atom   33 type  1   force =     0.10272561    0.99138394   -1.92426139
     atom   34 type  2   force =     0.01918566    0.77102748  -38.45108084
     atom   35 type  2   force =    -0.01968084    0.01619744   37.58786744
     atom   36 type  3   force =    -0.01906732   -0.15904408  -48.09714354
     The core correction contribution to forces
     atom    1 type  1   force =     0.00000000    0.00000000    0.00000000
     atom    2 type  2   force =     0.00000534    0.00030057    0.02132767
     atom    3 type  2   force =     0.00009585    0.00023718   -0.02078338
     atom    4 type  1   force =     0.00000000    0.00000000    0.00000000
     atom    5 type  2   force =    -0.00028442    0.00093634    0.02068832
     atom    6 type  2   force =     0.00000864   -0.00021718   -0.02083386
     atom    7 type  1   force =     0.00000000    0.00000000    0.00000000
     atom    8 type  2   force =    -0.00026411    0.00008452    0.02098779
     atom    9 type  2   force =     0.00065831    0.00082887   -0.02101294
     atom   10 type  1   force =     0.00000000    0.00000000    0.00000000
     atom   11 type  2   force =    -0.00004164   -0.00012061    0.02100432
     atom   12 type  2   force =     0.00069444    0.00099488   -0.02083505
     atom   13 type  1   force =     0.00000000    0.00000000    0.00000000
     atom   14 type  2   force =    -0.00004928    0.00001524   -0.01002643
     atom   15 type  2   force =    -0.00004065    0.00026335   -0.02111678
     atom   16 type  1   force =     0.00000000    0.00000000    0.00000000
     atom   17 type  2   force =     0.00035560    0.00091786    0.02068756
     atom   18 type  2   force =    -0.00004764   -0.00017799   -0.02083180
     atom   19 type  1   force =     0.00000000    0.00000000    0.00000000
     atom   20 type  2   force =    -0.00010026    0.00079496   -0.02125623
     atom   21 type  1   force =     0.00000000    0.00000000    0.00000000
     atom   22 type  2   force =     0.00010950   -0.00005132    0.02100754
     atom   23 type  2   force =    -0.00075509    0.00090070   -0.02084091
     atom   24 type  1   force =     0.00000000    0.00000000    0.00000000
     atom   25 type  2   force =    -0.00002826    0.00034575    0.02131259
     atom   26 type  2   force =    -0.00012329    0.00021579   -0.02077949
     atom   27 type  1   force =     0.00000000    0.00000000    0.00000000
     atom   28 type  2   force =    -0.00002384    0.00082067    0.02135161
     atom   29 type  2   force =     0.00006478    0.00034611   -0.02087685
     atom   30 type  1   force =     0.00000000    0.00000000    0.00000000
     atom   31 type  2   force =     0.00013552    0.00007739    0.02100573
     atom   32 type  2   force =    -0.00057804    0.00087727   -0.02100860
     atom   33 type  1   force =     0.00000000    0.00000000    0.00000000
     atom   34 type  2   force =    -0.00004743    0.00029905    0.02128721
     atom   35 type  2   force =     0.00004632    0.00070140   -0.02091305
     atom   36 type  3   force =     0.00009220    0.00008792    0.02465111
     The Hubbard contrib.    to forces
     atom    1 type  1   force =     0.00000000    0.00000000    0.00000000
     atom    2 type  2   force =     0.00000000    0.00000000    0.00000000
     atom    3 type  2   force =     0.00000000    0.00000000    0.00000000
     atom    4 type  1   force =     0.00000000    0.00000000    0.00000000
     atom    5 type  2   force =     0.00000000    0.00000000    0.00000000
     atom    6 type  2   force =     0.00000000    0.00000000    0.00000000
     atom    7 type  1   force =     0.00000000    0.00000000    0.00000000
     atom    8 type  2   force =     0.00000000    0.00000000    0.00000000
     atom    9 type  2   force =     0.00000000    0.00000000    0.00000000
     atom   10 type  1   force =     0.00000000    0.00000000    0.00000000
     atom   11 type  2   force =     0.00000000    0.00000000    0.00000000
     atom   12 type  2   force =     0.00000000    0.00000000    0.00000000
     atom   13 type  1   force =     0.00000000    0.00000000    0.00000000
     atom   14 type  2   force =     0.00000000    0.00000000    0.00000000
     atom   15 type  2   force =     0.00000000    0.00000000    0.00000000
     atom   16 type  1   force =     0.00000000    0.00000000    0.00000000
     atom   17 type  2   force =     0.00000000    0.00000000    0.00000000
     atom   18 type  2   force =     0.00000000    0.00000000    0.00000000
     atom   19 type  1   force =     0.00000000    0.00000000    0.00000000
     atom   20 type  2   force =     0.00000000    0.00000000    0.00000000
     atom   21 type  1   force =     0.00000000    0.00000000    0.00000000
     atom   22 type  2   force =     0.00000000    0.00000000    0.00000000
     atom   23 type  2   force =     0.00000000    0.00000000    0.00000000
     atom   24 type  1   force =     0.00000000    0.00000000    0.00000000
     atom   25 type  2   force =     0.00000000    0.00000000    0.00000000
     atom   26 type  2   force =     0.00000000    0.00000000    0.00000000
     atom   27 type  1   force =     0.00000000    0.00000000    0.00000000
     atom   28 type  2   force =     0.00000000    0.00000000    0.00000000
     atom   29 type  2   force =     0.00000000    0.00000000    0.00000000
     atom   30 type  1   force =     0.00000000    0.00000000    0.00000000
     atom   31 type  2   force =     0.00000000    0.00000000    0.00000000
     atom   32 type  2   force =     0.00000000    0.00000000    0.00000000
     atom   33 type  1   force =     0.00000000    0.00000000    0.00000000
     atom   34 type  2   force =     0.00000000    0.00000000    0.00000000
     atom   35 type  2   force =     0.00000000    0.00000000    0.00000000
     atom   36 type  3   force =     0.00000000    0.00000000    0.00000000
     The SCF correction term to forces
     atom    1 type  1   force =    -0.00001859   -0.00002456   -0.00002809
     atom    2 type  2   force =     0.00000252   -0.00000881   -0.00001195
     atom    3 type  2   force =     0.00000575   -0.00000424   -0.00001204
     atom    4 type  1   force =     0.00000317    0.00000180   -0.00002781
     atom    5 type  2   force =    -0.00000748    0.00000420    0.00000514
     atom    6 type  2   force =     0.00000598    0.00000195   -0.00001906
     atom    7 type  1   force =    -0.00000271    0.00000215   -0.00001308
     atom    8 type  2   force =     0.00000523    0.00000313    0.00000152
     atom    9 type  2   force =     0.00000197   -0.00000611   -0.00000539
     atom   10 type  1   force =     0.00001400    0.00001002   -0.00001402
     atom   11 type  2   force =    -0.00000369    0.00000202   -0.00001435
     atom   12 type  2   force =     0.00000471    0.00000669    0.00000044
     atom   13 type  1   force =     0.00001649   -0.00002615   -0.00001241
     atom   14 type  2   force =    -0.00000428    0.00000653   -0.00003765
     atom   15 type  2   force =     0.00000052   -0.00000269    0.00001206
     atom   16 type  1   force =    -0.00001261   -0.00000362   -0.00000378
     atom   17 type  2   force =    -0.00000041    0.00000670    0.00000442
     atom   18 type  2   force =    -0.00000587    0.00000353   -0.00000894
     atom   19 type  1   force =    -0.00000221    0.00000159    0.00000709
     atom   20 type  2   force =     0.00000083   -0.00000241   -0.00000279
     atom   21 type  1   force =    -0.00000352    0.00002449   -0.00000011
     atom   22 type  2   force =    -0.00000260   -0.00000234   -0.00001657
     atom   23 type  2   force =    -0.00000354    0.00000444    0.00001068
     atom   24 type  1   force =     0.00000719   -0.00000113   -0.00003510
     atom   25 type  2   force =     0.00000393   -0.00000720   -0.00001377
     atom   26 type  2   force =    -0.00000839   -0.00000311   -0.00000160
     atom   27 type  1   force =    -0.00000236    0.00000005   -0.00001861
     atom   28 type  2   force =     0.00000894    0.00000223   -0.00000880
     atom   29 type  2   force =     0.00000368   -0.00000626   -0.00001224
     atom   30 type  1   force =     0.00001089    0.00001283    0.00000266
     atom   31 type  2   force =     0.00000165   -0.00000029   -0.00000095
     atom   32 type  2   force =    -0.00000224   -0.00000767    0.00000514
     atom   33 type  1   force =    -0.00000482    0.00000886   -0.00000813
     atom   34 type  2   force =     0.00000436   -0.00000386   -0.00001166
     atom   35 type  2   force =    -0.00000125    0.00001016    0.00000676
     atom   36 type  3   force =     0.00000496    0.00006708   -0.00000696

     Total force =     0.006831     Total SCF correction =     0.000129
     Energy error            =      7.5E-05 Ry
     Gradient error          =      2.4E-03 Ry/Bohr

     bfgs converged in  21 scf cycles and  20 bfgs steps
     (criteria: energy <  1.0E-04 Ry, force <  1.0E-02 Ry/Bohr)

     End of BFGS Geometry Optimization

     Final energy             =   -2246.4491038641 Ry

     File ./MoS2-V-O.bfgs deleted, as requested
Begin final coordinates

ATOMIC_POSITIONS (angstrom)
Mo            6.5957759819        1.7840883257        2.7299303885
S             8.1393174084        0.8716489916        4.3558396053
S             8.1564926151        0.8381836686        1.1541394299
Mo            8.1296618116        4.5096849184        2.6965802606
S             6.5396656348        3.6746648970        4.2995593866
S             6.5614743793        3.5908529227        1.0865512872
Mo            6.5359699132        7.1955776747        2.6762313299
S             8.0937128337        6.3053201945        4.3047069272
S             8.1539034208        6.3446915356        1.1095904499
Mo            8.1453903470        9.9504169272        2.7699647770
S             6.5336817142        8.9625322117        4.3337995881
S             6.6091397170        9.0322565681        1.1266628148
Mo            3.4079630424        1.7877755630        2.7326591597
S             5.0024586491        0.8393557503        4.2411477285
S             4.9983745271        0.8365617765        1.1772463296
Mo            5.0046102756        4.5461383407        2.6530336283
S             3.4723475170        3.6772857879        4.3027527501
S             3.4430502643        3.5939220667        1.0900567591
Mo            3.4717556279        7.1944141170        2.6895581155
S             4.9989075401        6.3391970467        1.0611067486
Mo            5.0010211010        9.8815317357        2.7275500750
S             3.4748291184        8.9657420502        4.3433839390
S             3.3918671681        9.0253924150        1.1354339894
Mo            0.2724650949        1.7483968972        2.7503426232
S             1.8631933679        0.8759478224        4.3577261150
S             1.8456744421        0.8375680617        1.1585501407
Mo            1.8784467592        4.5114934514        2.7033649470
S             0.2738173303        3.6187223349        4.2988005910
S             0.2792245707        3.5743575710        1.1347633058
Mo            0.2733131874        7.2261693019        2.7465115558
S             1.9049464734        6.3064696332        4.3136790840
S             1.8570679715        6.3469919016        1.1190608724
Mo            1.8600969934        9.9497984860        2.7764334395
S             0.2721170743        9.0426712444        4.3699779462
S             0.2768585488        9.0598761033        1.1822446337
O             5.0075101461        0.8495703383        5.7408836403
End final coordinates



     Writing all to output data dir ./MoS2-V-O.save/
 
     init_run     :      5.21s CPU      5.74s WALL (       1 calls)
     electrons    :   1800.78s CPU   2066.35s WALL (      21 calls)
     update_pot   :     63.99s CPU     68.91s WALL (      20 calls)
     forces       :     61.34s CPU     72.15s WALL (      21 calls)

     Called by init_run:
     wfcinit      :      0.49s CPU      0.54s WALL (       1 calls)
     potinit      :      2.96s CPU      3.22s WALL (       1 calls)
     hinit0       :      0.45s CPU      0.47s WALL (       1 calls)

     Called by electrons:
     c_bands      :    270.75s CPU    277.25s WALL (     184 calls)
     sum_band     :    111.37s CPU    155.03s WALL (     184 calls)
     v_of_rho     :    213.33s CPU    262.00s WALL (     195 calls)
     newd         :     62.00s CPU    101.26s WALL (     195 calls)
     PAW_pot      :      7.86s CPU      7.89s WALL (     215 calls)
     mix_rho      :   1160.34s CPU   1291.84s WALL (     184 calls)

     Called by c_bands:
     init_us_2    :      4.22s CPU      4.55s WALL (     389 calls)
     init_us_2:cp :      4.21s CPU      4.55s WALL (     389 calls)
     regterg      :    256.86s CPU    263.02s WALL (     184 calls)

     Called by *egterg:
     rdiaghg      :     17.81s CPU     18.02s WALL (    1017 calls)
     h_psi        :    164.78s CPU    166.15s WALL (    1048 calls)
     s_psi        :     15.80s CPU     15.85s WALL (    1048 calls)
     g_psi        :      0.84s CPU      0.85s WALL (     863 calls)

     Called by h_psi:
     h_psi:calbec :     18.21s CPU     18.30s WALL (    1048 calls)
     vloc_psi     :    128.64s CPU    129.82s WALL (    1048 calls)
     add_vuspsi   :     15.81s CPU     15.91s WALL (    1048 calls)

     General routines
     calbec       :     26.69s CPU     26.83s WALL (    1336 calls)
     fft          :    149.78s CPU    169.28s WALL (   13122 calls)
     ffts         :    516.56s CPU    643.02s WALL (  283642 calls)
     fftw         :     81.89s CPU     82.59s WALL (  113802 calls)
     interpolate  :      2.43s CPU      2.78s WALL (     195 calls)
 
     Parallel routines
 
     PWSCF        :  32m20.71s CPU  37m 8.04s WALL

 
   This run was terminated on:  13: 3:46   4Nov2023            

=------------------------------------------------------------------------------=
   JOB DONE.
=------------------------------------------------------------------------------=
