
     Program PWSCF v.7.2 starts on  1Nov2023 at 11:43:54 

     This program is part of the open-source Quantum ESPRESSO suite
     for quantum simulation of materials; please cite
         "P. Giannozzi et al., J. Phys.:Condens. Matter 21 395502 (2009);
         "P. Giannozzi et al., J. Phys.:Condens. Matter 29 465901 (2017);
         "P. Giannozzi et al., J. Chem. Phys. 152 154105 (2020);
          URL http://www.quantum-espresso.org", 
     in publications or presentations arising from this work. More details at
     http://www.quantum-espresso.org/quote

     Parallel version (MPI & OpenMP), running on      48 processor cores
     Number of MPI processes:                48
     Threads/MPI process:                     1

     MPI processes distributed on     1 nodes
     80697 MiB available memory on the printing compute node when the environment starts
 
     Waiting for input...
     Reading input from standard input
Warning: card &CELL ignored
Warning: card CELL_DYNAMICS = 'BFGS', ignored
Warning: card CELL_DOFREE = '2DXY' ignored
Warning: card / ignored

     Current dimensions of program PWSCF are:
     Max number of different atomic species (ntypx) = 10
     Max number of k-points (npk) =  40000
     Max angular momentum in pseudopotentials (lmaxx) =  4
     file O.pbe-n-kjpaw_psl.0.1.UPF: wavefunction(s)  2P renormalized

     IMPORTANT: XC functional enforced from input :
     Exchange-correlation= RVV10
                           (   1   4  13   4  26   0   0)
     Any further DFT definition will be discarded
     Please, verify this is what you really want


     gamma-point specific algorithms are used
     signal trapping enabled: kill the code with -SIGUSR1 to stop cleanly the simulation 
 
     R & G space division:  proc/nbgrp/npool/nimage =      48
     Subspace diagonalization in iterative solution of the eigenvalue problem:
     one sub-group per band group will be used
     scalapack distributed-memory algorithm (size of sub-group:  2*  2 procs)

 
     Parallelization info
     --------------------
     sticks:   dense  smooth     PW     G-vecs:    dense   smooth      PW
     Min         396     194     47               101632    35090    4376
     Max         398     196     50               101674    35128    4410
     Sum       19091    9389   2349              4879585  1685513  210763
 
     Using Slab Decomposition
 


     bravais-lattice index     =            0
     lattice parameter (alat)  =      17.8707  a.u.
     unit-cell volume          =   17436.2743 (a.u.)^3
     number of atoms/cell      =           36
     number of atomic types    =            3
     number of electrons       =       312.00
     number of Kohn-Sham states=          187
     kinetic-energy cutoff     =      80.0000  Ry
     charge density cutoff     =     650.0000  Ry
     scf convergence threshold =      1.0E-06
     mixing beta               =       0.7000
     number of iterations used =            8  local-TF  mixing
     energy convergence thresh.=      1.0E-04
     force convergence thresh. =      1.0E-02
     Exchange-correlation= RVV10
                           (   1   4  13   4  26   0   0)
     nstep                     =          200


     celldm(1)=  17.870686  celldm(2)=   0.000000  celldm(3)=   0.000000
     celldm(4)=   0.000000  celldm(5)=   0.000000  celldm(6)=   0.000000

     crystal axes: (cart. coord. in units of alat)
               a(1) = (   1.000000   0.000000   0.000000 )  
               a(2) = (   0.000000   1.155671   0.000000 )  
               a(3) = (   0.000000   0.000000   2.643601 )  

     reciprocal axes: (cart. coord. in units 2 pi/alat)
               b(1) = (  1.000000  0.000000  0.000000 )  
               b(2) = (  0.000000  0.865298  0.000000 )  
               b(3) = (  0.000000  0.000000  0.378272 )  


     PseudoPot. # 1 for Mo read from file:
     ../pseudo/Mo_ONCV_PBE-1.0.oncvpsp.upf
     MD5 check sum: 1b5d28e075c9ccadda658a603575cd1f
     Pseudo is Norm-conserving, Zval = 14.0
     Generated using ONCVPSP code by D. R. Hamann
     Using radial grid of 1526 points,  6 beta functions with: 
                l(1) =   0
                l(2) =   0
                l(3) =   1
                l(4) =   1
                l(5) =   2
                l(6) =   2

     PseudoPot. # 2 for S  read from file:
     ../pseudo/s_pbe_v1.4.uspp.F.UPF
     MD5 check sum: 88d86576ff6df21479756cfb9bdac1df
     Pseudo is Ultrasoft + core correction, Zval =  6.0
     Generated by new atomic code, or converted to UPF format
     Using radial grid of  907 points,  6 beta functions with: 
                l(1) =   0
                l(2) =   0
                l(3) =   1
                l(4) =   1
                l(5) =   2
                l(6) =   2
     Q(r) pseudized with  8 coefficients,  rinner =    1.300   1.300   1.300
                                                       1.300   1.300

     PseudoPot. # 3 for O  read from file:
     ../pseudo/O.pbe-n-kjpaw_psl.0.1.UPF
     MD5 check sum: 0234752ac141de4415c5fc33072bef88
     Pseudo is Projector augmented-wave + core cor, Zval =  6.0
     Generated using "atomic" code by A. Dal Corso  v.5.0.99 svn rev. 10869
     Shape of augmentation charge: BESSEL
     Using radial grid of 1095 points,  4 beta functions with: 
                l(1) =   0
                l(2) =   0
                l(3) =   1
                l(4) =   1
     Q(r) pseudized with 0 coefficients 


     atomic species   valence    mass     pseudopotential
        Mo            14.00    95.94000     Mo( 1.00)
        S              6.00    32.06500     S ( 1.00)
        O              6.00    15.99940     O ( 1.00)

     No symmetry found



   Cartesian axes

     site n.     atom                  positions (alat units)
         1           Mo  tau(   1) = (   0.6952221   0.1890506   0.2985846  )
         2           S   tau(   2) = (   0.8646417   0.0856217   0.4689279  )
         3           S   tau(   3) = (   0.8663890   0.0857843   0.1351291  )
         4           Mo  tau(   4) = (   0.8560186   0.4753274   0.2873942  )
         5           S   tau(   5) = (   0.6873294   0.3936244   0.4596353  )
         6           S   tau(   6) = (   0.6929804   0.3713468   0.1185692  )
         7           Mo  tau(   7) = (   0.6862796   0.7633098   0.2825370  )
         8           S   tau(   8) = (   0.8545980   0.6708292   0.4486168  )
         9           S   tau(   9) = (   0.8545123   0.6666874   0.1146125  )
        10           Mo  tau(  10) = (   0.8629403   1.0471007   0.3006803  )
        11           S   tau(  11) = (   0.6868280   0.9456650   0.4634891  )
        12           S   tau(  12) = (   0.6998113   0.9568511   0.1205389  )
        13           Mo  tau(  13) = (   0.3618216   0.1847309   0.2935964  )
        14           S   tau(  14) = (   0.5260962   0.0863870   0.4600448  )
        15           S   tau(  15) = (   0.5348379   0.0894875   0.1297123  )
        16           Mo  tau(  16) = (   0.5265817   0.4772436   0.2784130  )
        17           S   tau(  17) = (   0.3624753   0.3882513   0.4525556  )
        18           S   tau(  18) = (   0.3635411   0.3752055   0.1119148  )
        19           Mo  tau(  19) = (   0.3652268   0.7630864   0.2781795  )
        20           S   tau(  20) = (   0.5269494   0.6690381   0.1096838  )
        21           Mo  tau(  21) = (   0.5300192   1.0470394   0.2900995  )
        22           S   tau(  22) = (   0.3670346   0.9457522   0.4574073  )
        23           S   tau(  23) = (   0.3604225   0.9585725   0.1159032  )
        24           Mo  tau(  24) = (   0.0313099   0.1847895   0.3013130  )
        25           S   tau(  25) = (   0.1956761   0.0838230   0.4650863  )
        26           S   tau(  26) = (   0.1967693   0.0903508   0.1278874  )
        27           Mo  tau(  27) = (   0.1967578   0.4753919   0.2813011  )
        28           S   tau(  28) = (   0.0287851   0.3864324   0.4586755  )
        29           S   tau(  29) = (   0.0244514   0.3729871   0.1239344  )
        30           Mo  tau(  30) = (   0.0286728   0.7631204   0.2856894  )
        31           S   tau(  31) = (   0.2011512   0.6675435   0.4465001  )
        32           S   tau(  32) = (   0.1969214   0.6672839   0.1104564  )
        33           Mo  tau(  33) = (   0.1950294   1.0511147   0.2932237  )
        34           S   tau(  34) = (   0.0312912   0.9612169   0.4667423  )
        35           S   tau(  35) = (   0.0292670   0.9563028   0.1216485  )
        36           O   tau(  36) = (   0.1111111   0.1284079   0.5650415  )

     number of k points=     1  Gaussian smearing, width (Ry)=  0.0100
                       cart. coord. in units 2pi/alat
        k(    1) = (   0.0000000   0.0000000   0.0000000), wk =   2.0000000

     Dense  grid:  2439793 G-vectors     FFT dimensions: ( 150, 180, 384)

     Smooth grid:   842757 G-vectors     FFT dimensions: ( 108, 120, 270)

     Estimated max dynamical RAM per process >     269.22 MB

     Estimated total dynamical RAM >      12.62 GB

     Initial potential from superposition of free atoms

     starting charge     311.9873, renormalised to     312.0000

     negative rho (up, down):  2.752E-04 0.000E+00


---------------------------------------------------------------------------------
Carrying out rVV10 run using the following parameters:
Nqs =      20    Nr_points =    1024   r_max =   100.000
b_value =  6.30000    beta =  0.00901
     q_mesh =  0.00010000  0.00030000  0.00058939  0.00100810
               0.00161396  0.00249058  0.00375900  0.00559430
               0.00824984  0.01209221  0.01765183  0.02569619
               0.03733578  0.05417739  0.07854596  0.11380545
               0.16482331  0.23864234  0.34545298  0.50000000

Gradients computed in Reciprocal space

---------------------------------------------------------------------------------


     Starting wfcs are  216 randomized atomic wfcs
     Checking if some PAW data can be deallocated... 

     total cpu time spent up to now is        5.7 secs

     Self-consistent Calculation

     iteration #  1     ecut=    80.00 Ry     beta= 0.70
     Davidson diagonalization with overlap
     ethr =  1.00E-02,  avg # of iterations =  2.0

     Threshold (ethr) on eigenvalues was too large:
     Diagonalizing with lowered threshold

     Davidson diagonalization with overlap
     ethr =  4.64E-04,  avg # of iterations =  3.0

     negative rho (up, down):  3.439E-08 0.000E+00

     total cpu time spent up to now is       26.8 secs

     total energy              =   -2246.16219160 Ry
     estimated scf accuracy    <       1.69826975 Ry

     iteration #  2     ecut=    80.00 Ry     beta= 0.70
     Davidson diagonalization with overlap
     ethr =  5.44E-04,  avg # of iterations =  3.0

     total cpu time spent up to now is       31.5 secs

     total energy              =   -2246.15277136 Ry
     estimated scf accuracy    <       0.56742639 Ry

     iteration #  3     ecut=    80.00 Ry     beta= 0.70
     Davidson diagonalization with overlap
     ethr =  1.82E-04,  avg # of iterations =  2.0

     total cpu time spent up to now is       35.6 secs

     total energy              =   -2246.17001723 Ry
     estimated scf accuracy    <       0.11192956 Ry

     iteration #  4     ecut=    80.00 Ry     beta= 0.70
     Davidson diagonalization with overlap
     ethr =  3.59E-05,  avg # of iterations = 16.0

     total cpu time spent up to now is       40.4 secs

     total energy              =   -2246.18664617 Ry
     estimated scf accuracy    <       0.02310017 Ry

     iteration #  5     ecut=    80.00 Ry     beta= 0.70
     Davidson diagonalization with overlap
     ethr =  7.40E-06,  avg # of iterations =  2.0

     total cpu time spent up to now is       44.1 secs

     total energy              =   -2246.18616967 Ry
     estimated scf accuracy    <       0.01409642 Ry

     iteration #  6     ecut=    80.00 Ry     beta= 0.70
     Davidson diagonalization with overlap
     ethr =  4.52E-06,  avg # of iterations =  2.0

     total cpu time spent up to now is       47.7 secs

     total energy              =   -2246.18511558 Ry
     estimated scf accuracy    <       0.00832405 Ry

     iteration #  7     ecut=    80.00 Ry     beta= 0.70
     Davidson diagonalization with overlap
     c_bands:  1 eigenvalues not converged
     ethr =  2.67E-06,  avg # of iterations = 20.0

     negative rho (up, down):  1.344E-04 0.000E+00

     total cpu time spent up to now is       55.0 secs

     total energy              =   -2246.18436159 Ry
     estimated scf accuracy    <       0.00488587 Ry

     iteration #  8     ecut=    80.00 Ry     beta= 0.70
     Davidson diagonalization with overlap
     c_bands:  2 eigenvalues not converged
     ethr =  1.57E-06,  avg # of iterations = 20.0

     negative rho (up, down):  2.369E-02 0.000E+00

     total cpu time spent up to now is       61.4 secs

     total energy              =   -2246.18385529 Ry
     estimated scf accuracy    <       0.00298331 Ry

     iteration #  9     ecut=    80.00 Ry     beta= 0.70
     Davidson diagonalization with overlap
     ethr =  9.56E-07,  avg # of iterations =  2.0

     negative rho (up, down):  2.936E-02 0.000E+00

     total cpu time spent up to now is       67.7 secs

     total energy              =   -2246.18369271 Ry
     estimated scf accuracy    <       0.00153178 Ry

     iteration # 10     ecut=    80.00 Ry     beta= 0.70
     Davidson diagonalization with overlap
     ethr =  4.91E-07,  avg # of iterations =  2.0

     negative rho (up, down):  2.093E-02 0.000E+00

     total cpu time spent up to now is       74.6 secs

     total energy              =   -2246.18371994 Ry
     estimated scf accuracy    <       0.00043905 Ry

     iteration # 11     ecut=    80.00 Ry     beta= 0.70
     Davidson diagonalization with overlap
     ethr =  1.41E-07,  avg # of iterations =  4.0

     negative rho (up, down):  7.304E-03 0.000E+00

     total cpu time spent up to now is       82.0 secs

     total energy              =   -2246.18370356 Ry
     estimated scf accuracy    <       0.00006820 Ry

     iteration # 12     ecut=    80.00 Ry     beta= 0.70
     Davidson diagonalization with overlap
     ethr =  2.19E-08,  avg # of iterations =  5.0

     negative rho (up, down):  1.715E-03 0.000E+00

     total cpu time spent up to now is       90.2 secs

     total energy              =   -2246.18374386 Ry
     estimated scf accuracy    <       0.00000980 Ry

     iteration # 13     ecut=    80.00 Ry     beta= 0.70
     Davidson diagonalization with overlap
     ethr =  3.14E-09,  avg # of iterations =  4.0

     negative rho (up, down):  4.731E-04 0.000E+00

     total cpu time spent up to now is      100.5 secs

     total energy              =   -2246.18374684 Ry
     estimated scf accuracy    <       0.00000240 Ry

     iteration # 14     ecut=    80.00 Ry     beta= 0.70
     Davidson diagonalization with overlap
     ethr =  7.70E-10,  avg # of iterations =  4.0

     negative rho (up, down):  2.228E-04 0.000E+00

     total cpu time spent up to now is      104.1 secs

     End of self-consistent calculation

          k = 0.0000 0.0000 0.0000 (105382 PWs)   bands (ev):

   -62.9203 -62.8865 -62.8651 -62.8556 -62.8471 -62.8459 -62.8393 -62.8314
   -62.8310 -62.8169 -62.8039 -62.6796 -37.2622 -37.2034 -37.1715 -37.1564
   -37.1354 -37.1175 -37.1122 -37.0958 -37.0931 -37.0824 -37.0729 -37.0668
   -37.0509 -37.0383 -37.0325 -37.0300 -37.0232 -37.0113 -37.0041 -36.9963
   -36.9919 -36.9864 -36.9787 -36.9674 -36.9604 -36.9417 -36.9262 -36.9071
   -36.8966 -36.8927 -36.8815 -36.8739 -36.8186 -36.7903 -36.7754 -36.7508
   -25.7373 -15.9446 -15.2128 -15.1147 -14.9729 -14.8723 -14.7929 -14.5338
   -14.4829 -14.4344 -14.4175 -14.3864 -14.3694 -14.3235 -14.2248 -14.1624
   -14.1354 -14.1199 -14.0492 -13.9727 -13.8730 -13.8386 -13.8084 -13.3105
    -9.1717  -8.9982  -8.2288  -7.5709  -7.4343  -7.2877  -7.2763  -7.1925
    -7.1641  -7.0467  -6.9778  -6.8305  -6.8129  -6.7301  -6.6806  -6.5844
    -6.5175  -6.4797  -6.3655  -6.2776  -6.1345  -6.0642  -5.9507  -5.8903
    -5.8438  -5.8192  -5.7621  -5.7028  -5.6837  -5.6524  -5.6349  -5.5912
    -5.5481  -5.5208  -5.4143  -5.3318  -5.2715  -5.2429  -5.0571  -5.0312
    -5.0037  -4.9717  -4.9128  -4.8195  -4.7169  -4.6171  -4.5593  -4.3577
    -4.3237  -4.2820  -4.1796  -4.0829  -4.0227  -3.9713  -3.9170  -3.8234
    -3.8007  -3.7303  -3.6794  -3.6213  -3.5790  -3.5178  -3.5046  -3.4751
    -3.4294  -3.4054  -3.3429  -3.1897  -3.1328  -3.0427  -2.9657  -2.8339
    -2.8246  -2.7505  -2.7380  -2.7073  -2.6646  -2.6156  -2.4937  -2.3429
    -2.0784  -2.0344  -1.9218  -1.6231  -0.8685  -0.7551  -0.5793  -0.1876
    -0.1521  -0.0715  -0.0312   0.0535   0.1481   0.2119   0.2364   0.2623
     0.2797   0.3854   0.4150   0.4537   0.5243   0.5502   0.5748   0.6086
     0.6991   0.7105   0.7457   0.7599   0.8240   0.8360   0.8751   0.9435
     1.0044   1.1561   1.3588

     the Fermi energy is    -1.2458 ev

!    total energy              =   -2246.18374752 Ry
     estimated scf accuracy    <       0.00000027 Ry
     smearing contrib. (-TS)   =      -0.00000518 Ry
     internal energy E=F+TS    =   -2246.18374234 Ry

     The total energy is F=E-TS. E is the sum of the following terms:
     one-electron contribution =  -18471.38776416 Ry
     hartree contribution      =    9224.04575275 Ry
     xc contribution           =    -392.44673939 Ry
     ewald contribution        =    7403.44810961 Ry
     one-center paw contrib.   =      -9.84310114 Ry

     convergence has been achieved in  14 iterations

     negative rho (up, down):  2.228E-04 0.000E+00

     Forces acting on atoms (cartesian axes, Ry/au):

     atom    1 type  1   force =     0.01326336   -0.02639398   -0.00062928
     atom    2 type  2   force =    -0.04834904    0.01409881   -0.01004384
     atom    3 type  2   force =    -0.01072147    0.01325646    0.00032723
     atom    4 type  1   force =     0.00454885    0.00832434   -0.00323447
     atom    5 type  2   force =    -0.00138193   -0.00620944   -0.00690862
     atom    6 type  2   force =    -0.00037273    0.01039839   -0.00122766
     atom    7 type  1   force =     0.00591910   -0.01828217   -0.00834929
     atom    8 type  2   force =    -0.00009900   -0.00490926    0.01779902
     atom    9 type  2   force =     0.01187616    0.00765672    0.01157883
     atom   10 type  1   force =    -0.00926743    0.01353710   -0.03008366
     atom   11 type  2   force =     0.00472143   -0.00132649   -0.00809911
     atom   12 type  2   force =    -0.00054817    0.00059189    0.00692004
     atom   13 type  1   force =    -0.00496692    0.02582336    0.01429894
     atom   14 type  2   force =     0.01450947   -0.00458850    0.01121530
     atom   15 type  2   force =    -0.00919030   -0.00012042   -0.00921260
     atom   16 type  1   force =     0.00016588    0.01234625    0.00287002
     atom   17 type  2   force =     0.00664367    0.00216751    0.00414809
     atom   18 type  2   force =    -0.00168717   -0.00844432    0.01117004
     atom   19 type  1   force =     0.00681563   -0.00745549   -0.00416516
     atom   20 type  2   force =     0.00301206   -0.00445597    0.00184964
     atom   21 type  1   force =    -0.00441892    0.00695216    0.00457869
     atom   22 type  2   force =     0.00174557   -0.00903272   -0.00618172
     atom   23 type  2   force =     0.00247588   -0.00004994    0.00681545
     atom   24 type  1   force =    -0.01437539    0.00534450   -0.12050342
     atom   25 type  2   force =     0.38087934   -0.17122291   -0.53222406
     atom   26 type  2   force =    -0.01131416   -0.00013521   -0.00438713
     atom   27 type  1   force =    -0.00368829   -0.00598840    0.00575459
     atom   28 type  2   force =    -0.00404912    0.01053369   -0.00655521
     atom   29 type  2   force =     0.00041584   -0.00286511    0.00068024
     atom   30 type  1   force =     0.00242353    0.01148603   -0.00301358
     atom   31 type  2   force =    -0.00014292   -0.00086501    0.01626288
     atom   32 type  2   force =    -0.00899075    0.00757916    0.00806336
     atom   33 type  1   force =    -0.00572416   -0.01045923    0.01607730
     atom   34 type  2   force =     0.00127630   -0.04533057   -0.00703716
     atom   35 type  2   force =    -0.00742483    0.00747784    0.01146214
     atom   36 type  3   force =    -0.31397937    0.17056091    0.60998416
     The non-local contrib.  to forces
     atom    1 type  1   force =     0.00364131    0.03570673   -0.00571332
     atom    2 type  2   force =    -0.07396663   -0.01192331   -0.27106971
     atom    3 type  2   force =    -0.01286131   -0.00616917    0.26977529
     atom    4 type  1   force =     0.00332494   -0.00352897    0.00785053
     atom    5 type  2   force =     0.00536531   -0.03179114   -0.25278866
     atom    6 type  2   force =    -0.00203410    0.01157126    0.26099944
     atom    7 type  1   force =    -0.01875216    0.00143813   -0.02221960
     atom    8 type  2   force =     0.00589151   -0.00083854   -0.25523786
     atom    9 type  2   force =     0.00734148   -0.00717583    0.27749144
     atom   10 type  1   force =     0.00507247    0.00320939   -0.00044836
     atom   11 type  2   force =     0.01099223    0.00294422   -0.26071980
     atom   12 type  2   force =    -0.01203943   -0.01570994    0.26374825
     atom   13 type  1   force =    -0.00712195   -0.00845605    0.00184217
     atom   14 type  2   force =     0.00759019   -0.01067541   -0.25869422
     atom   15 type  2   force =    -0.01071935   -0.00915402    0.25742074
     atom   16 type  1   force =     0.00388254    0.02879990   -0.03232925
     atom   17 type  2   force =     0.00248234   -0.03351546   -0.24783487
     atom   18 type  2   force =    -0.00060694   -0.00621058    0.27452795
     atom   19 type  1   force =     0.00964121   -0.00565532   -0.02189354
     atom   20 type  2   force =    -0.00003103   -0.02104179    0.26572775
     atom   21 type  1   force =     0.00525612    0.02392601    0.00446816
     atom   22 type  2   force =    -0.00572628    0.00442738   -0.25765104
     atom   23 type  2   force =     0.00823002   -0.01773394    0.26700737
     atom   24 type  1   force =     0.03946953    0.00034340    0.00728409
     atom   25 type  2   force =     0.06891728   -0.02480306   -0.15419099
     atom   26 type  2   force =     0.00109811   -0.01609399    0.26155714
     atom   27 type  1   force =    -0.00769236    0.00534428    0.01009495
     atom   28 type  2   force =    -0.00789640    0.01881154   -0.27151105
     atom   29 type  2   force =     0.00998594    0.00114819    0.26439889
     atom   30 type  1   force =    -0.00755577    0.01330778    0.00422466
     atom   31 type  2   force =    -0.00480921    0.00237474   -0.25299078
     atom   32 type  2   force =    -0.00280490   -0.00999182    0.27532311
     atom   33 type  1   force =     0.01145821    0.02803081    0.00294623
     atom   34 type  2   force =     0.00614824   -0.03296310   -0.27570115
     atom   35 type  2   force =     0.00234322   -0.01297988    0.27178936
     atom   36 type  3   force =     1.66464737   -0.87939088   -1.48226653
     The ionic contribution  to forces
     atom    1 type  1   force =    -0.31378370    0.48959245    4.02841781
     atom    2 type  2   force =    -3.26645740   -0.08153085   38.10885586
     atom    3 type  2   force =    -0.43977502   -0.04922749  -37.04001901
     atom    4 type  1   force =    -0.51826283    1.53684513   -0.77410111
     atom    5 type  2   force =    -1.22586566    1.92766568   38.47374880
     atom    6 type  2   force =     0.27311460   -0.35221302  -38.62970917
     atom    7 type  1   force =    -2.74504374   -2.94520753    1.64256792
     atom    8 type  2   force =    -1.16617315    0.13259610   37.16754957
     atom    9 type  2   force =     0.27580835    0.00287307  -38.50974087
     atom   10 type  1   force =    -2.23434224   -1.60802142    3.64792842
     atom   11 type  2   force =    -0.74281305   -1.99038326   38.91631123
     atom   12 type  2   force =     0.38190929    0.54700894  -38.40608990
     atom   13 type  1   force =     2.44926288    1.50343529   -0.18531779
     atom   14 type  2   force =     0.64533869   -0.13470249   38.11344319
     atom   15 type  2   force =     0.26244628   -0.10023792  -37.50626840
     atom   16 type  1   force =     0.23740361    4.53410123   -0.66288030
     atom   17 type  2   force =     1.62583562    2.45347908   37.40544643
     atom   18 type  2   force =    -0.00765275   -0.44159120  -39.28369123
     atom   19 type  1   force =     3.01390597   -2.68572241   -0.40592826
     atom   20 type  2   force =     0.26094548   -0.16911083  -38.94848439
     atom   21 type  1   force =     0.45364452   -0.61802970   -0.18416000
     atom   22 type  2   force =     0.94711359   -2.43697069   38.07968161
     atom   23 type  2   force =     0.03407081    0.46877505  -38.92855865
     atom   24 type  1   force =    -2.27202147    2.40117555   -0.60886034
     atom   25 type  2   force =     7.77438759   -3.49262555   30.72017002
     atom   26 type  2   force =    -0.13089014   -0.01584420  -38.56320244
     atom   27 type  1   force =     0.37935951    1.82498161   -4.13801876
     atom   28 type  2   force =    -0.63342717    3.19827604   37.19066146
     atom   29 type  2   force =    -0.36141796   -0.12797658  -38.15456690
     atom   30 type  1   force =    -0.49978280   -1.24732985   -1.22100691
     atom   31 type  2   force =     1.33056390    0.11032553   37.06173747
     atom   32 type  2   force =    -0.44667932    0.04157055  -39.18239337
     atom   33 type  1   force =     1.53257022   -3.01186760   -1.05721921
     atom   34 type  2   force =    -0.13479239   -2.95482049   38.77882053
     atom   35 type  2   force =    -0.36614390    0.20976011  -38.55577102
     atom   36 type  3   force =    -4.37235624    3.08095168   51.61064768
     The local contribution  to forces
     atom    1 type  1   force =     0.32344304   -0.55146759   -4.02355623
     atom    2 type  2   force =     3.28862636    0.10697957  -37.86894844
     atom    3 type  2   force =     0.44130708    0.06849576   36.79134321
     atom    4 type  1   force =     0.51968733   -1.52534680    0.76276289
     atom    5 type  2   force =     1.21969175   -1.90397759  -38.24841039
     atom    6 type  2   force =    -0.27183301    0.35213102   38.38818124
     atom    7 type  1   force =     2.76986276    2.92549579   -1.62910559
     atom    8 type  2   force =     1.16043284   -0.13707850  -36.91511718
     atom    9 type  2   force =    -0.27111845    0.01150465   38.26472683
     atom   10 type  1   force =     2.22012509    1.61856073   -3.67775181
     atom   11 type  2   force =     0.73704519    1.98656710  -38.68455048
     atom   12 type  2   force =    -0.37153794   -0.53204068   38.17004991
     atom   13 type  1   force =    -2.44704053   -1.46880066    0.19753084
     atom   14 type  2   force =    -0.63824980    0.14080377  -37.86405913
     atom   15 type  2   force =    -0.26156602    0.10883616   37.25998414
     atom   16 type  1   force =    -0.24125037   -4.55107198    0.69774900
     atom   17 type  2   force =    -1.62174599   -2.41981717  -37.17372599
     atom   18 type  2   force =     0.00669697    0.43965542   39.04134860
     atom   19 type  1   force =    -3.01694918    2.68399822    0.42325363
     atom   20 type  2   force =    -0.25805818    0.18480740   38.70556581
     atom   21 type  1   force =    -0.46337919    0.60125809    0.18395079
     atom   22 type  2   force =    -0.93989513    2.42417674  -37.84886147
     atom   23 type  2   force =    -0.03924686   -0.45252212   38.68914056
     atom   24 type  1   force =     2.21803350   -2.39589671    0.48104482
     atom   25 type  2   force =    -7.45621481    3.34356994  -31.11683704
     atom   26 type  2   force =     0.11885514    0.03106108   38.31796513
     atom   27 type  1   force =    -0.37544021   -1.83672069    4.13347111
     atom   28 type  2   force =     0.63687059   -3.20632131  -36.94676891
     atom   29 type  2   force =     0.35258266    0.12458795   37.91137270
     atom   30 type  1   force =     0.50981487    1.24554741    1.21339236
     atom   31 type  2   force =    -1.32623344   -0.11360485  -36.81316535
     atom   32 type  2   force =     0.44065065   -0.02461281   38.93613873
     atom   33 type  1   force =    -1.54981749    2.97337241    1.07009413
     atom   34 type  2   force =     0.13005604    2.94175837  -38.53146787
     atom   35 type  2   force =     0.35674388   -0.19033147   38.31648512
     atom   36 type  3   force =     2.40858284   -2.03869406  -49.52967820
     The core correction contribution to forces
     atom    1 type  1   force =     0.00000000    0.00000000    0.00000000
     atom    2 type  2   force =     0.00357851    0.00071113    0.02103289
     atom    3 type  2   force =     0.00064889    0.00026905   -0.02082830
     atom    4 type  1   force =     0.00000000    0.00000000    0.00000000
     atom    5 type  2   force =    -0.00052510    0.00176197    0.02038251
     atom    6 type  2   force =     0.00035269   -0.00113276   -0.02077429
     atom    7 type  1   force =     0.00000000    0.00000000    0.00000000
     atom    8 type  2   force =    -0.00019755    0.00032536    0.02046525
     atom    9 type  2   force =    -0.00014380    0.00039815   -0.02102921
     atom   10 type  1   force =     0.00000000    0.00000000    0.00000000
     atom   11 type  2   force =    -0.00046088   -0.00038520    0.02070640
     atom   12 type  2   force =     0.00112233    0.00132772   -0.02090268
     atom   13 type  1   force =     0.00000000    0.00000000    0.00000000
     atom   14 type  2   force =    -0.00022900    0.00011175    0.02037954
     atom   15 type  2   force =     0.00060739    0.00056169   -0.02041667
     atom   16 type  1   force =     0.00000000    0.00000000    0.00000000
     atom   17 type  2   force =    -0.00000023    0.00186053    0.02008849
     atom   18 type  2   force =    -0.00010753   -0.00036718   -0.02105991
     atom   19 type  1   force =     0.00000000    0.00000000    0.00000000
     atom   20 type  2   force =     0.00013935    0.00081709   -0.02118522
     atom   21 type  1   force =     0.00000000    0.00000000    0.00000000
     atom   22 type  2   force =     0.00017364   -0.00057192    0.02045918
     atom   23 type  2   force =    -0.00063101    0.00142129   -0.02085282
     atom   24 type  1   force =     0.00000000    0.00000000    0.00000000
     atom   25 type  2   force =    -0.00619189    0.00273071    0.01870201
     atom   26 type  2   force =    -0.00037560    0.00085541   -0.02081051
     atom   27 type  1   force =     0.00000000    0.00000000    0.00000000
     atom   28 type  2   force =     0.00042497   -0.00040898    0.02095674
     atom   29 type  2   force =    -0.00073758   -0.00068337   -0.02055385
     atom   30 type  1   force =     0.00000000    0.00000000    0.00000000
     atom   31 type  2   force =     0.00030129   -0.00004202    0.02051788
     atom   32 type  2   force =    -0.00014887    0.00058399   -0.02111292
     atom   33 type  1   force =     0.00000000    0.00000000    0.00000000
     atom   34 type  2   force =    -0.00012049    0.00082365    0.02119193
     atom   35 type  2   force =    -0.00032946    0.00103998   -0.02111637
     atom   36 type  3   force =    -0.01481628    0.00777164    0.01115248
     The Hubbard contrib.    to forces
     atom    1 type  1   force =     0.00000000    0.00000000    0.00000000
     atom    2 type  2   force =     0.00000000    0.00000000    0.00000000
     atom    3 type  2   force =     0.00000000    0.00000000    0.00000000
     atom    4 type  1   force =     0.00000000    0.00000000    0.00000000
     atom    5 type  2   force =     0.00000000    0.00000000    0.00000000
     atom    6 type  2   force =     0.00000000    0.00000000    0.00000000
     atom    7 type  1   force =     0.00000000    0.00000000    0.00000000
     atom    8 type  2   force =     0.00000000    0.00000000    0.00000000
     atom    9 type  2   force =     0.00000000    0.00000000    0.00000000
     atom   10 type  1   force =     0.00000000    0.00000000    0.00000000
     atom   11 type  2   force =     0.00000000    0.00000000    0.00000000
     atom   12 type  2   force =     0.00000000    0.00000000    0.00000000
     atom   13 type  1   force =     0.00000000    0.00000000    0.00000000
     atom   14 type  2   force =     0.00000000    0.00000000    0.00000000
     atom   15 type  2   force =     0.00000000    0.00000000    0.00000000
     atom   16 type  1   force =     0.00000000    0.00000000    0.00000000
     atom   17 type  2   force =     0.00000000    0.00000000    0.00000000
     atom   18 type  2   force =     0.00000000    0.00000000    0.00000000
     atom   19 type  1   force =     0.00000000    0.00000000    0.00000000
     atom   20 type  2   force =     0.00000000    0.00000000    0.00000000
     atom   21 type  1   force =     0.00000000    0.00000000    0.00000000
     atom   22 type  2   force =     0.00000000    0.00000000    0.00000000
     atom   23 type  2   force =     0.00000000    0.00000000    0.00000000
     atom   24 type  1   force =     0.00000000    0.00000000    0.00000000
     atom   25 type  2   force =     0.00000000    0.00000000    0.00000000
     atom   26 type  2   force =     0.00000000    0.00000000    0.00000000
     atom   27 type  1   force =     0.00000000    0.00000000    0.00000000
     atom   28 type  2   force =     0.00000000    0.00000000    0.00000000
     atom   29 type  2   force =     0.00000000    0.00000000    0.00000000
     atom   30 type  1   force =     0.00000000    0.00000000    0.00000000
     atom   31 type  2   force =     0.00000000    0.00000000    0.00000000
     atom   32 type  2   force =     0.00000000    0.00000000    0.00000000
     atom   33 type  1   force =     0.00000000    0.00000000    0.00000000
     atom   34 type  2   force =     0.00000000    0.00000000    0.00000000
     atom   35 type  2   force =     0.00000000    0.00000000    0.00000000
     atom   36 type  3   force =     0.00000000    0.00000000    0.00000000
     The SCF correction term to forces
     atom    1 type  1   force =    -0.00003758   -0.00022470    0.00021976
     atom    2 type  2   force =    -0.00013016   -0.00013686    0.00008287
     atom    3 type  2   force =    -0.00004139   -0.00011081    0.00005334
     atom    4 type  1   force =    -0.00020086    0.00035585    0.00025053
     atom    5 type  2   force =    -0.00004850    0.00013251    0.00015642
     atom    6 type  2   force =     0.00002680    0.00004277    0.00007242
     atom    7 type  1   force =    -0.00014803   -0.00000769    0.00040528
     atom    8 type  2   force =    -0.00005293    0.00008718    0.00013654
     atom    9 type  2   force =    -0.00001170    0.00005755    0.00012794
     atom   10 type  1   force =    -0.00012302   -0.00021073    0.00018540
     atom   11 type  2   force =    -0.00004233   -0.00006848    0.00015085
     atom   12 type  2   force =    -0.00000270    0.00000672    0.00011177
     atom   13 type  1   force =    -0.00006760   -0.00035436    0.00024103
     atom   14 type  2   force =     0.00005911   -0.00012524    0.00014323
     atom   15 type  2   force =     0.00004112   -0.00012546    0.00006490
     atom   16 type  1   force =     0.00012982    0.00051798    0.00032787
     atom   17 type  2   force =     0.00007166    0.00016140    0.00017133
     atom   18 type  2   force =    -0.00001719    0.00007010    0.00004195
     atom   19 type  1   force =     0.00021736   -0.00007510    0.00040031
     atom   20 type  2   force =     0.00001616    0.00007302    0.00022299
     atom   21 type  1   force =     0.00005935   -0.00020137    0.00031703
     atom   22 type  2   force =     0.00007946   -0.00009337    0.00018730
     atom   23 type  2   force =     0.00005265    0.00001066    0.00007630
     atom   24 type  1   force =     0.00014276   -0.00027687    0.00002532
     atom   25 type  2   force =    -0.00001911   -0.00009408   -0.00007076
     atom   26 type  2   force =    -0.00000195   -0.00011264    0.00010085
     atom   27 type  1   force =     0.00008449    0.00040727    0.00020461
     atom   28 type  2   force =    -0.00002138    0.00017728    0.00010386
     atom   29 type  2   force =     0.00000250    0.00005958    0.00002672
     atom   30 type  1   force =    -0.00005305   -0.00003843    0.00037361
     atom   31 type  2   force =     0.00003426    0.00008246    0.00016097
     atom   32 type  2   force =    -0.00000859    0.00003012    0.00010512
     atom   33 type  1   force =     0.00006463    0.00000603    0.00025347
     atom   34 type  2   force =    -0.00001538   -0.00012813    0.00011670
     atom   35 type  2   force =    -0.00003885   -0.00001004    0.00007237
     atom   36 type  3   force =    -0.00003734   -0.00007660    0.00012605

     Total force =     0.992332     Total SCF correction =     0.001646

     BFGS Geometry Optimization
     Energy error            =      0.0E+00 Ry
     Gradient error          =      6.1E-01 Ry/Bohr

     number of scf cycles    =   1
     number of bfgs steps    =   0

     energy             new  =   -2246.1837475197 Ry

     new trust radius        =       0.5000000000 bohr
     new conv_thr            =       0.0000010000 Ry


ATOMIC_POSITIONS (angstrom)
Mo            6.5795125723        1.7779275809        2.8234075074
S             8.1586134260        0.8149808800        4.4307791783
S             8.1892202910        0.8162033282        1.2780059018
Mo            8.0968650943        4.4981725515        2.7166078088
S             6.4993920326        3.7200874407        4.3440749143
S             6.5532102927        3.5156294301        1.1208207440
Mo            6.4921970765        7.2115946944        2.6687595426
S             8.0816906749        6.3420335701        4.2491233212
S             8.0853626160        6.3075680461        1.0881966842
Mo            8.1571504657        9.9072470342        2.8322021514
S             6.4969347175        8.9424303403        4.3800742258
S             6.6177420313        9.0489327452        1.1424973125
Mo            3.4198006618        1.7566209310        2.7818229197
S             4.9805960473        0.8152238422        4.3547307168
S             5.0543940405        0.8462170377        1.2232103995
Mo            4.9798187657        4.5177989162        2.6339587286
S             3.4303282331        3.6724109353        4.2812621113
S             3.4372891138        3.5450681866        1.0625323656
Mo            3.4564126690        7.2135341230        2.6291179391
S             4.9843615366        6.3252645210        1.0379460074
Mo            5.0106100220        9.9042020818        2.7451146554
S             3.4716114413        8.9403705322        4.3232776391
S             3.4093558306        9.0649712942        1.0986191642
Mo            0.2907101133        1.7495098509        2.8043430993
S             1.9930164355        0.7286092781        4.1990104272
S             1.8565654090        0.8543753114        1.2077588539
Mo            1.8593108673        4.4934254419        2.6623511898
S             0.2706983602        3.6583413410        4.3351306374
S             0.2313868474        3.5261768846        1.1722724832
Mo            0.2720592229        7.2209450465        2.7005685145
S             1.9021847545        6.3124750818        4.2285309382
S             1.8588731866        6.3131805136        1.0475772108
Mo            1.8422042450        9.9362245104        2.7789636098
S             0.2963905870        9.0730316566        4.4112356210
S             0.2739924611        9.0463244957        1.1546907890
O             0.9332359807        1.2781591776        5.5717645586



     Writing config-only to output data dir ./MoS2-V-O.save/
     NEW-OLD atomic charge density approx. for the potential

     negative rho (up, down):  1.846E-04 0.000E+00

     total cpu time spent up to now is      111.4 secs

     Self-consistent Calculation

     iteration #  1     ecut=    80.00 Ry     beta= 0.70
     Davidson diagonalization with overlap
     c_bands:  1 eigenvalues not converged
     ethr =  1.00E-06,  avg # of iterations = 20.0

     negative rho (up, down):  5.599E-03 0.000E+00

     total cpu time spent up to now is      126.2 secs

     total energy              =   -2246.21978346 Ry
     estimated scf accuracy    <       0.17329272 Ry

     iteration #  2     ecut=    80.00 Ry     beta= 0.70
     Davidson diagonalization with overlap
     ethr =  5.55E-05,  avg # of iterations =  7.0

     negative rho (up, down):  7.679E-03 0.000E+00

     total cpu time spent up to now is      139.2 secs

     total energy              =   -2246.23800738 Ry
     estimated scf accuracy    <       0.16352999 Ry

     iteration #  3     ecut=    80.00 Ry     beta= 0.70
     Davidson diagonalization with overlap
     ethr =  5.24E-05,  avg # of iterations =  4.0

     negative rho (up, down):  1.435E-02 0.000E+00

     total cpu time spent up to now is      149.7 secs

     total energy              =   -2246.24524144 Ry
     estimated scf accuracy    <       0.01880978 Ry

     iteration #  4     ecut=    80.00 Ry     beta= 0.70
     Davidson diagonalization with overlap
     ethr =  6.03E-06,  avg # of iterations =  5.0

     negative rho (up, down):  1.655E-02 0.000E+00

     total cpu time spent up to now is      159.4 secs

     total energy              =   -2246.24683420 Ry
     estimated scf accuracy    <       0.00832783 Ry

     iteration #  5     ecut=    80.00 Ry     beta= 0.70
     Davidson diagonalization with overlap
     ethr =  2.67E-06,  avg # of iterations =  2.0

     negative rho (up, down):  1.714E-02 0.000E+00

     total cpu time spent up to now is      170.6 secs

     total energy              =   -2246.24624612 Ry
     estimated scf accuracy    <       0.00458961 Ry

     iteration #  6     ecut=    80.00 Ry     beta= 0.70
     Davidson diagonalization with overlap
     ethr =  1.47E-06,  avg # of iterations =  5.0

     negative rho (up, down):  1.575E-02 0.000E+00

     total cpu time spent up to now is      181.6 secs

     total energy              =   -2246.24653707 Ry
     estimated scf accuracy    <       0.00043045 Ry

     iteration #  7     ecut=    80.00 Ry     beta= 0.70
     Davidson diagonalization with overlap
     ethr =  1.38E-07,  avg # of iterations =  6.0

     negative rho (up, down):  1.251E-02 0.000E+00

     total cpu time spent up to now is      191.8 secs

     total energy              =   -2246.24650758 Ry
     estimated scf accuracy    <       0.00016359 Ry

     iteration #  8     ecut=    80.00 Ry     beta= 0.70
     Davidson diagonalization with overlap
     ethr =  5.24E-08,  avg # of iterations =  3.0

     negative rho (up, down):  8.787E-03 0.000E+00

     total cpu time spent up to now is      202.4 secs

     total energy              =   -2246.24646354 Ry
     estimated scf accuracy    <       0.00005739 Ry

     iteration #  9     ecut=    80.00 Ry     beta= 0.70
     Davidson diagonalization with overlap
     ethr =  1.84E-08,  avg # of iterations =  5.0

     negative rho (up, down):  5.282E-03 0.000E+00

     total cpu time spent up to now is      210.6 secs

     total energy              =   -2246.24642198 Ry
     estimated scf accuracy    <       0.00002825 Ry

     iteration # 10     ecut=    80.00 Ry     beta= 0.70
     Davidson diagonalization with overlap
     ethr =  9.06E-09,  avg # of iterations =  2.0

     negative rho (up, down):  2.759E-03 0.000E+00

     total cpu time spent up to now is      218.2 secs

     total energy              =   -2246.24639834 Ry
     estimated scf accuracy    <       0.00000969 Ry

     iteration # 11     ecut=    80.00 Ry     beta= 0.70
     Davidson diagonalization with overlap
     ethr =  3.11E-09,  avg # of iterations =  5.0

     negative rho (up, down):  1.757E-03 0.000E+00

     total cpu time spent up to now is      226.6 secs

     total energy              =   -2246.24639063 Ry
     estimated scf accuracy    <       0.00000396 Ry

     iteration # 12     ecut=    80.00 Ry     beta= 0.70
     Davidson diagonalization with overlap
     ethr =  1.27E-09,  avg # of iterations =  5.0

     negative rho (up, down):  5.585E-04 0.000E+00

     total cpu time spent up to now is      234.3 secs

     total energy              =   -2246.24638318 Ry
     estimated scf accuracy    <       0.00000208 Ry

     iteration # 13     ecut=    80.00 Ry     beta= 0.70
     Davidson diagonalization with overlap
     ethr =  6.67E-10,  avg # of iterations =  2.0

     negative rho (up, down):  1.935E-04 0.000E+00

     total cpu time spent up to now is      237.7 secs

     End of self-consistent calculation

          k = 0.0000 0.0000 0.0000 (105382 PWs)   bands (ev):

   -63.0966 -63.0498 -63.0293 -63.0184 -62.9997 -62.9948 -62.9838 -62.9734
   -62.9696 -62.9504 -62.9487 -62.9322 -37.4404 -37.3909 -37.3669 -37.3200
   -37.3013 -37.2900 -37.2851 -37.2727 -37.2627 -37.2550 -37.2388 -37.2311
   -37.2051 -37.2030 -37.1890 -37.1821 -37.1797 -37.1622 -37.1545 -37.1443
   -37.1319 -37.1314 -37.1161 -37.1142 -37.1094 -37.1037 -37.0958 -37.0925
   -37.0660 -37.0638 -37.0514 -37.0259 -37.0130 -36.9607 -36.9416 -36.9183
   -19.2669 -16.1181 -15.3704 -15.3192 -15.1862 -15.0451 -14.9258 -14.7759
   -14.6656 -14.6000 -14.5742 -14.5565 -14.5222 -14.4844 -14.3529 -14.3420
   -14.2989 -14.2869 -14.2174 -14.1405 -14.0429 -14.0298 -14.0086 -13.9086
    -7.9519  -7.8020  -7.7129  -7.5768  -7.4892  -7.4484  -7.3944  -7.3423
    -7.1481  -7.0177  -6.9903  -6.9312  -6.8895  -6.7993  -6.7072  -6.6636
    -6.6222  -6.5566  -6.4792  -6.4218  -6.1626  -6.1263  -6.0705  -6.0157
    -5.9829  -5.9698  -5.8763  -5.8568  -5.8400  -5.7888  -5.7192  -5.6779
    -5.6500  -5.6282  -5.5563  -5.4490  -5.3528  -5.2316  -5.1832  -5.1614
    -5.1116  -5.0871  -5.0149  -4.8828  -4.7389  -4.7241  -4.5421  -4.4680
    -4.4167  -4.3304  -4.2778  -4.1934  -4.1007  -4.0122  -3.9521  -3.9427
    -3.9062  -3.8620  -3.7716  -3.7442  -3.7135  -3.6757  -3.6454  -3.6209
    -3.5873  -3.5530  -3.4172  -3.3291  -3.1507  -3.1196  -3.0323  -2.9916
    -2.9704  -2.9276  -2.9086  -2.8599  -2.8270  -2.7610  -2.4538  -2.3359
    -2.1963  -2.1765  -2.0085  -1.5318  -0.9848  -0.9132  -0.7547  -0.3670
    -0.3300  -0.2469  -0.1590  -0.0834   0.0019   0.0232   0.0798   0.1065
     0.1249   0.1946   0.2723   0.3164   0.3652   0.3913   0.4065   0.4768
     0.5383   0.5629   0.6057   0.6313   0.6681   0.6991   0.7177   0.7930
     0.8878   1.0070   1.1675

     the Fermi energy is    -1.2594 ev

!    total energy              =   -2246.24638305 Ry
     estimated scf accuracy    <       0.00000044 Ry
     smearing contrib. (-TS)   =      -0.00020727 Ry
     internal energy E=F+TS    =   -2246.24617578 Ry

     The total energy is F=E-TS. E is the sum of the following terms:
     one-electron contribution =  -18448.72034616 Ry
     hartree contribution      =    9211.64203813 Ry
     xc contribution           =    -392.01143666 Ry
     ewald contribution        =    7392.71438975 Ry
     one-center paw contrib.   =      -9.87082085 Ry

     convergence has been achieved in  13 iterations

     negative rho (up, down):  1.935E-04 0.000E+00

     Forces acting on atoms (cartesian axes, Ry/au):

     atom    1 type  1   force =     0.00081210   -0.01878360   -0.00388330
     atom    2 type  2   force =    -0.01273523    0.01751620   -0.01245080
     atom    3 type  2   force =    -0.01387916    0.00922305   -0.01277318
     atom    4 type  1   force =     0.00850973    0.00837883    0.00052350
     atom    5 type  2   force =    -0.00017382   -0.00710374   -0.00621895
     atom    6 type  2   force =    -0.00077470    0.00905114   -0.00218224
     atom    7 type  1   force =     0.00380029   -0.01267762   -0.00391611
     atom    8 type  2   force =     0.00164115   -0.00369501    0.01450186
     atom    9 type  2   force =     0.01173802    0.00637992    0.00737209
     atom   10 type  1   force =    -0.00706165    0.01157320   -0.01626893
     atom   11 type  2   force =     0.00467605   -0.00182569   -0.00846220
     atom   12 type  2   force =    -0.00283247   -0.00038882    0.00346939
     atom   13 type  1   force =     0.04556782    0.03719447   -0.03989616
     atom   14 type  2   force =     0.01740341   -0.00400754    0.01348886
     atom   15 type  2   force =    -0.00864083    0.00102761   -0.00672204
     atom   16 type  1   force =    -0.00048162    0.00816011    0.00209481
     atom   17 type  2   force =     0.00522506    0.00378822    0.00623361
     atom   18 type  2   force =    -0.00214133   -0.00183229    0.00795420
     atom   19 type  1   force =     0.00391789   -0.00546909   -0.00205237
     atom   20 type  2   force =     0.00294868   -0.00413851   -0.00133090
     atom   21 type  1   force =    -0.00345047    0.00395625    0.00058556
     atom   22 type  2   force =     0.00426880   -0.01066825   -0.00084786
     atom   23 type  2   force =     0.00192525   -0.00003153    0.00628434
     atom   24 type  1   force =    -0.01570491    0.00449552   -0.02504807
     atom   25 type  2   force =    -0.14303071    0.10201743    0.19820699
     atom   26 type  2   force =    -0.00544228   -0.00221537   -0.02069065
     atom   27 type  1   force =    -0.00446086   -0.00366765    0.00608834
     atom   28 type  2   force =    -0.00338768   -0.00639606   -0.01324558
     atom   29 type  2   force =     0.00013050    0.00241398   -0.00831863
     atom   30 type  1   force =    -0.00022290    0.00537780    0.00017680
     atom   31 type  2   force =    -0.00033096   -0.00152177    0.01385455
     atom   32 type  2   force =    -0.00745707    0.00656965    0.00683908
     atom   33 type  1   force =     0.00139175   -0.06049998   -0.04440105
     atom   34 type  2   force =    -0.00160958   -0.03360412   -0.00680897
     atom   35 type  2   force =    -0.00867309    0.00704047    0.00609596
     atom   36 type  3   force =     0.12853482   -0.06563721   -0.05825196
     The non-local contrib.  to forces
     atom    1 type  1   force =     0.01200203    0.02656134   -0.00303749
     atom    2 type  2   force =    -0.02852040   -0.00951869   -0.26891500
     atom    3 type  2   force =    -0.00937082   -0.00523116    0.26475039
     atom    4 type  1   force =     0.00732545   -0.00149711    0.00567563
     atom    5 type  2   force =     0.00376484   -0.03057938   -0.25542305
     atom    6 type  2   force =    -0.00186117    0.00966261    0.26048302
     atom    7 type  1   force =    -0.01744592    0.00080750   -0.01992946
     atom    8 type  2   force =     0.00624025   -0.00169064   -0.25895623
     atom    9 type  2   force =     0.00687920   -0.00682848    0.27521836
     atom   10 type  1   force =     0.00145117    0.00367252   -0.00061781
     atom   11 type  2   force =     0.01220033    0.00164331   -0.26504503
     atom   12 type  2   force =    -0.01457068   -0.01592340    0.26424788
     atom   13 type  1   force =    -0.00413923    0.00664122   -0.00314378
     atom   14 type  2   force =     0.01023391   -0.00917202   -0.26736168
     atom   15 type  2   force =    -0.01257328   -0.00794643    0.25989802
     atom   16 type  1   force =     0.00333434    0.03026379   -0.03406433
     atom   17 type  2   force =     0.00203550   -0.02709442   -0.25194732
     atom   18 type  2   force =    -0.00071912   -0.00250462    0.27111878
     atom   19 type  1   force =     0.01154849   -0.00723284   -0.02077090
     atom   20 type  2   force =    -0.00100978   -0.02010979    0.26373115
     atom   21 type  1   force =     0.00953577    0.02375387    0.00367384
     atom   22 type  2   force =    -0.00522665    0.00229388   -0.26300307
     atom   23 type  2   force =     0.00695868   -0.01722645    0.26781151
     atom   24 type  1   force =     0.00664313    0.02029022    0.00130071
     atom   25 type  2   force =    -0.28448980    0.16542167    0.30223874
     atom   26 type  2   force =     0.00564674   -0.01716134    0.25589876
     atom   27 type  1   force =    -0.01063019    0.00772671    0.00905782
     atom   28 type  2   force =    -0.00243926    0.00802991   -0.27873564
     atom   29 type  2   force =     0.00803203   -0.00153581    0.26316680
     atom   30 type  1   force =    -0.00792107    0.01517264    0.00471297
     atom   31 type  2   force =    -0.00447403    0.00022105   -0.25840284
     atom   32 type  2   force =    -0.00124891   -0.01126267    0.27523840
     atom   33 type  1   force =     0.00283843    0.01999035   -0.00136001
     atom   34 type  2   force =    -0.00087720   -0.02803862   -0.28160461
     atom   35 type  2   force =    -0.00073716   -0.01152111    0.26573168
     atom   36 type  3   force =     0.90472282   -0.48693387   -1.01609342
     The ionic contribution  to forces
     atom    1 type  1   force =    -0.43205541    0.78212208    4.10040471
     atom    2 type  2   force =    -2.56216239   -0.09505043   37.96776801
     atom    3 type  2   force =    -0.55285079   -0.13024934  -37.11220501
     atom    4 type  1   force =    -0.51462312    1.41527925   -0.63702915
     atom    5 type  2   force =    -1.19642430    1.88420804   38.40684905
     atom    6 type  2   force =     0.22866095   -0.37295379  -38.54735941
     atom    7 type  1   force =    -2.73135398   -2.76001424    1.62875173
     atom    8 type  2   force =    -1.14766611    0.15787651   37.26432535
     atom    9 type  2   force =     0.29301892   -0.00170892  -38.48380647
     atom   10 type  1   force =    -1.93239342   -1.56121795    3.60687227
     atom   11 type  2   force =    -0.66931569   -2.00441595   38.87413922
     atom   12 type  2   force =     0.32049617    0.49222041  -38.35571418
     atom   13 type  1   force =     2.96981194    2.21321211   -0.09914110
     atom   14 type  2   force =     0.64585086   -0.07245024   38.26565980
     atom   15 type  2   force =     0.23661722   -0.05478361  -37.52167874
     atom   16 type  1   force =     0.25489577    4.38635208   -0.50972654
     atom   17 type  2   force =     1.49351445    2.38681879   37.54251732
     atom   18 type  2   force =     0.02729346   -0.38461684  -39.23546387
     atom   19 type  1   force =     2.95521507   -2.70100883   -0.41264470
     atom   20 type  2   force =     0.23706638   -0.16012446  -38.98297934
     atom   21 type  1   force =     0.56010366   -0.76272930   -0.05249781
     atom   22 type  2   force =     0.94002883   -2.49326957   38.17398925
     atom   23 type  2   force =     0.02904759    0.44489108  -38.89921303
     atom   24 type  1   force =    -1.91338457    2.04225931   -0.68001320
     atom   25 type  2   force =     3.04350237   -1.09058067   33.18690366
     atom   26 type  2   force =     0.02113092   -0.11022293  -38.67080338
     atom   27 type  1   force =     0.34868753    1.82298248   -3.76830839
     atom   28 type  2   force =    -0.48425260    2.71804157   37.07988244
     atom   29 type  2   force =    -0.35295374    0.08883620  -38.18061151
     atom   30 type  1   force =    -0.49616800   -1.33599690   -1.13883583
     atom   31 type  2   force =     1.32520043    0.08756958   37.12089587
     atom   32 type  2   force =    -0.42821418    0.00978369  -39.12229273
     atom   33 type  1   force =     0.97437053   -3.67676428   -0.79660449
     atom   34 type  2   force =    -0.19001797   -2.56481428   38.85623334
     atom   35 type  2   force =    -0.32861349    0.19014134  -38.50853935
     atom   36 type  3   force =    -0.97206330    1.21037804   47.64027624
     The local contribution  to forces
     atom    1 type  1   force =     0.42065053   -0.82745924   -4.10183737
     atom    2 type  2   force =     2.57553468    0.12138363  -37.73266101
     atom    3 type  2   force =     0.54808404    0.14462888   36.85515443
     atom    4 type  1   force =     0.51588596   -1.40560748    0.63130981
     atom    5 type  2   force =     1.19290714   -1.86248525  -38.17822264
     atom    6 type  2   force =    -0.22790007    0.37333192   38.30503546
     atom    7 type  1   force =     2.75259987    2.74653067   -1.61328682
     atom    8 type  2   force =     1.14328447   -0.16027969  -37.01158501
     atom    9 type  2   force =    -0.28804619    0.01453792   38.23655098
     atom   10 type  1   force =     1.92411420    1.56924506   -3.62301480
     atom   11 type  2   force =     0.66226715    2.00135081  -38.63851227
     atom   12 type  2   force =    -0.30994218   -0.47793938   38.11548894
     atom   13 type  1   force =    -2.91998110   -2.18278194    0.06169831
     atom   14 type  2   force =    -0.63832660    0.07756436  -38.00578653
     atom   15 type  2   force =    -0.23345935    0.06329033   37.27530618
     atom   16 type  1   force =    -0.25881065   -4.40876858    0.54533215
     atom   17 type  2   force =    -1.49025932   -2.35753093  -37.30493145
     atom   18 type  2   force =    -0.02864429    0.38567545   38.99294457
     atom   19 type  1   force =    -2.96298715    2.70292219    0.43080206
     atom   20 type  2   force =    -0.23330665    0.17533596   38.73866656
     atom   21 type  1   force =    -0.57338811    0.74327206    0.04883662
     atom   22 type  2   force =    -0.93074423    2.48090169  -37.93275372
     atom   23 type  2   force =    -0.03359754   -0.42899892   38.65829030
     atom   24 type  1   force =     1.89115239   -2.05809007    0.65286845
     atom   25 type  2   force =    -2.91738477    1.03595068  -33.28393419
     atom   26 type  2   force =    -0.03179289    0.12435940   38.41444691
     atom   27 type  1   force =    -0.34251473   -1.83459629    3.76478413
     atom   28 type  2   force =     0.48295738   -2.73183479  -36.83608851
     atom   29 type  2   force =     0.34571024   -0.08468740   37.92943953
     atom   30 type  1   force =     0.50398527    1.32638889    1.13375682
     atom   31 type  2   force =    -1.32133136   -0.08939223  -36.86946084
     atom   32 type  2   force =     0.42222957    0.00743339   38.87463042
     atom   33 type  1   force =    -0.97578412    3.59633565    0.75285939
     atom   34 type  2   force =     0.18916955    2.55836799  -38.60327072
     atom   35 type  2   force =     0.32092058   -0.17247685   38.26950665
     atom   36 type  3   force =     0.20628017   -0.79464049  -46.69311977
     The core correction contribution to forces
     atom    1 type  1   force =     0.00000000    0.00000000    0.00000000
     atom    2 type  2   force =     0.00233184    0.00067950    0.02135008
     atom    3 type  2   force =     0.00027599    0.00010034   -0.02080504
     atom    4 type  1   force =     0.00000000    0.00000000    0.00000000
     atom    5 type  2   force =    -0.00042626    0.00166486    0.02051045
     atom    6 type  2   force =     0.00031265   -0.00107390   -0.02067667
     atom    7 type  1   force =     0.00000000    0.00000000    0.00000000
     atom    8 type  2   force =    -0.00018756    0.00038789    0.02066091
     atom    9 type  2   force =    -0.00009319    0.00036626   -0.02098314
     atom   10 type  1   force =     0.00000000    0.00000000    0.00000000
     atom   11 type  2   force =    -0.00046016   -0.00035164    0.02092410
     atom   12 type  2   force =     0.00119286    0.00127872   -0.02092891
     atom   13 type  1   force =     0.00000000    0.00000000    0.00000000
     atom   14 type  2   force =    -0.00039193    0.00010055    0.02087544
     atom   15 type  2   force =     0.00069011    0.00053668   -0.02050663
     atom   16 type  1   force =     0.00000000    0.00000000    0.00000000
     atom   17 type  2   force =    -0.00008395    0.00151684    0.02054453
     atom   18 type  2   force =    -0.00007977   -0.00050211   -0.02095525
     atom   19 type  1   force =     0.00000000    0.00000000    0.00000000
     atom   20 type  2   force =     0.00018674    0.00076806   -0.02115398
     atom   21 type  1   force =     0.00000000    0.00000000    0.00000000
     atom   22 type  2   force =     0.00013386   -0.00051469    0.02083964
     atom   23 type  2   force =    -0.00056184    0.00138491   -0.02090717
     atom   24 type  1   force =     0.00000000    0.00000000    0.00000000
     atom   25 type  2   force =     0.01544753   -0.00881862   -0.00731856
     atom   26 type  2   force =    -0.00036167    0.00077656   -0.02049807
     atom   27 type  1   force =     0.00000000    0.00000000    0.00000000
     atom   28 type  2   force =     0.00037295   -0.00060748    0.02168054
     atom   29 type  2   force =    -0.00063817   -0.00024332   -0.02064379
     atom   30 type  1   force =     0.00000000    0.00000000    0.00000000
     atom   31 type  2   force =     0.00027176    0.00007030    0.02076217
     atom   32 type  2   force =    -0.00023049    0.00061393   -0.02111040
     atom   33 type  1   force =     0.00000000    0.00000000    0.00000000
     atom   34 type  2   force =     0.00016502    0.00091967    0.02177148
     atom   35 type  2   force =    -0.00015828    0.00095428   -0.02090023
     atom   36 type  3   force =    -0.01051295    0.00560669    0.01108211
     The Hubbard contrib.    to forces
     atom    1 type  1   force =     0.00000000    0.00000000    0.00000000
     atom    2 type  2   force =     0.00000000    0.00000000    0.00000000
     atom    3 type  2   force =     0.00000000    0.00000000    0.00000000
     atom    4 type  1   force =     0.00000000    0.00000000    0.00000000
     atom    5 type  2   force =     0.00000000    0.00000000    0.00000000
     atom    6 type  2   force =     0.00000000    0.00000000    0.00000000
     atom    7 type  1   force =     0.00000000    0.00000000    0.00000000
     atom    8 type  2   force =     0.00000000    0.00000000    0.00000000
     atom    9 type  2   force =     0.00000000    0.00000000    0.00000000
     atom   10 type  1   force =     0.00000000    0.00000000    0.00000000
     atom   11 type  2   force =     0.00000000    0.00000000    0.00000000
     atom   12 type  2   force =     0.00000000    0.00000000    0.00000000
     atom   13 type  1   force =     0.00000000    0.00000000    0.00000000
     atom   14 type  2   force =     0.00000000    0.00000000    0.00000000
     atom   15 type  2   force =     0.00000000    0.00000000    0.00000000
     atom   16 type  1   force =     0.00000000    0.00000000    0.00000000
     atom   17 type  2   force =     0.00000000    0.00000000    0.00000000
     atom   18 type  2   force =     0.00000000    0.00000000    0.00000000
     atom   19 type  1   force =     0.00000000    0.00000000    0.00000000
     atom   20 type  2   force =     0.00000000    0.00000000    0.00000000
     atom   21 type  1   force =     0.00000000    0.00000000    0.00000000
     atom   22 type  2   force =     0.00000000    0.00000000    0.00000000
     atom   23 type  2   force =     0.00000000    0.00000000    0.00000000
     atom   24 type  1   force =     0.00000000    0.00000000    0.00000000
     atom   25 type  2   force =     0.00000000    0.00000000    0.00000000
     atom   26 type  2   force =     0.00000000    0.00000000    0.00000000
     atom   27 type  1   force =     0.00000000    0.00000000    0.00000000
     atom   28 type  2   force =     0.00000000    0.00000000    0.00000000
     atom   29 type  2   force =     0.00000000    0.00000000    0.00000000
     atom   30 type  1   force =     0.00000000    0.00000000    0.00000000
     atom   31 type  2   force =     0.00000000    0.00000000    0.00000000
     atom   32 type  2   force =     0.00000000    0.00000000    0.00000000
     atom   33 type  1   force =     0.00000000    0.00000000    0.00000000
     atom   34 type  2   force =     0.00000000    0.00000000    0.00000000
     atom   35 type  2   force =     0.00000000    0.00000000    0.00000000
     atom   36 type  3   force =     0.00000000    0.00000000    0.00000000
     The SCF correction term to forces
     atom    1 type  1   force =     0.00021486   -0.00000844    0.00056946
     atom    2 type  2   force =     0.00008095    0.00002152   -0.00001027
     atom    3 type  2   force =    -0.00001767   -0.00002634    0.00031465
     atom    4 type  1   force =    -0.00007866    0.00020350    0.00054980
     atom    5 type  2   force =     0.00000467    0.00008733    0.00004985
     atom    6 type  2   force =     0.00001284    0.00008364    0.00031798
     atom    7 type  1   force =     0.00000024   -0.00000221    0.00053105
     atom    8 type  2   force =    -0.00002998    0.00001027    0.00003945
     atom    9 type  2   force =    -0.00002080    0.00001248    0.00037496
     atom   10 type  1   force =    -0.00023369   -0.00012710    0.00047401
     atom   11 type  2   force =    -0.00001568   -0.00005289    0.00001440
     atom   12 type  2   force =    -0.00000874   -0.00002583    0.00035826
     atom   13 type  1   force =    -0.00012389    0.00012241    0.00067302
     atom   14 type  2   force =     0.00003709   -0.00005086    0.00008444
     atom   15 type  2   force =     0.00008438   -0.00007004    0.00024174
     atom   16 type  1   force =     0.00009883    0.00031215    0.00053614
     atom   17 type  2   force =     0.00001829    0.00007727    0.00003315
     atom   18 type  2   force =     0.00000829    0.00011517    0.00029258
     atom   19 type  1   force =     0.00014139   -0.00015027    0.00054377
     atom   20 type  2   force =     0.00001189   -0.00000893    0.00038733
     atom   21 type  1   force =     0.00029811   -0.00034105    0.00055551
     atom   22 type  2   force =     0.00007690   -0.00008022    0.00006265
     atom   23 type  2   force =     0.00007827   -0.00008281    0.00028535
     atom   24 type  1   force =    -0.00011596    0.00003541    0.00077857
     atom   25 type  2   force =    -0.00010613    0.00004372    0.00029995
     atom   26 type  2   force =    -0.00006548    0.00003229    0.00024773
     atom   27 type  1   force =    -0.00000356    0.00021879    0.00053738
     atom   28 type  2   force =    -0.00002624   -0.00002593   -0.00000181
     atom   29 type  2   force =    -0.00001994    0.00004365    0.00031294
     atom   30 type  1   force =    -0.00011920   -0.00018750    0.00052545
     atom   31 type  2   force =     0.00000214    0.00000887    0.00004279
     atom   32 type  2   force =     0.00000684    0.00000065    0.00035598
     atom   33 type  1   force =    -0.00003319   -0.00006237    0.00068667
     atom   34 type  2   force =    -0.00004906   -0.00003955    0.00004415
     atom   35 type  2   force =    -0.00008483   -0.00005786    0.00027981
     atom   36 type  3   force =     0.00010798   -0.00004824   -0.00041452

     Total force =     0.335548     Total SCF correction =     0.002533
     Energy error            =      6.3E-02 Ry
     Gradient error          =      2.0E-01 Ry/Bohr

     number of scf cycles    =   2
     number of bfgs steps    =   1

     energy             old  =   -2246.1837475197 Ry
     energy             new  =   -2246.2463830484 Ry

     CASE: energy            _new < energy            _old

     new trust radius        =       0.1503490694 bohr
     new conv_thr            =       0.0000001982 Ry


ATOMIC_POSITIONS (angstrom)
Mo            6.5804877632        1.7687641955        2.8217436603
S             8.1509460432        0.8230237628        4.4250611083
S             8.1828689108        0.8207168641        1.2726475712
Mo            8.1006626017        4.5020953214        2.7166735618
S             6.4992528949        3.7168021457        4.3411284757
S             6.5528665544        3.5199341252        1.1198439888
Mo            6.4940786699        7.2053876925        2.6667131449
S             8.0823764162        6.3402445081        4.2560747469
S             8.0908683270        6.3106179415        1.0918513472
Mo            8.1537368159        9.9127627364        2.8239205054
S             6.4991275541        8.9415988711        4.3761271373
S             6.6165241653        9.0487974297        1.1442874963
Mo            3.4387348101        1.7735029221        2.7657207070
S             4.9886110943        0.8133186109        4.3609414800
S             5.0503196784        0.8466436224        1.2199422493
Mo            4.9796240602        4.5218217746        2.6349771484
S             3.4328438676        3.6741082537        4.2840828645
S             3.4363076202        3.5438939578        1.0664124095
Mo            3.4583865604        7.2108770463        2.6280555113
S             4.9857459814        6.3233105197        1.0374744167
Mo            5.0089472619        9.9061986322        2.7455797130
S             3.4734907991        8.9354507142        4.3226256551
S             3.4102840847        9.0649556448        1.1015886675
Mo            0.2834160675        1.7516564951        2.7880489799
S             1.9510329143        0.7633518284        4.2569788651
S             1.8537353012        0.8534367989        1.1988442856
Mo            1.8572579133        4.4915963447        2.6651875586
S             0.2690796842        3.6561535193        4.3292448200
S             0.2314616148        3.5270556483        1.1688051411
Mo            0.2720812030        7.2237562348        2.7004989559
S             1.9020386844        6.3117935204        4.2351366511
S             1.8553063903        6.3163065300        1.0508397079
Mo            1.8425163708        9.9102712409        2.7610510331
S             0.2957743617        9.0567284461        4.4080348065
S             0.2699888522        9.0496437566        1.1578029814
O             0.9723162302        1.2586909767        5.5763925194



     Writing config-only to output data dir ./MoS2-V-O.save/
     NEW-OLD atomic charge density approx. for the potential

     negative rho (up, down):  2.003E-04 0.000E+00

     total cpu time spent up to now is      245.0 secs

     Self-consistent Calculation

     iteration #  1     ecut=    80.00 Ry     beta= 0.70
     Davidson diagonalization with overlap
     c_bands:  1 eigenvalues not converged
     ethr =  1.00E-06,  avg # of iterations = 20.0

     negative rho (up, down):  9.496E-05 0.000E+00

     total cpu time spent up to now is      262.8 secs

     total energy              =   -2246.30317530 Ry
     estimated scf accuracy    <       0.00770897 Ry

     iteration #  2     ecut=    80.00 Ry     beta= 0.70
     Davidson diagonalization with overlap
     ethr =  2.47E-06,  avg # of iterations =  3.0

     negative rho (up, down):  7.103E-05 0.000E+00

     total cpu time spent up to now is      275.8 secs

     total energy              =   -2246.30368604 Ry
     estimated scf accuracy    <       0.00236272 Ry

     iteration #  3     ecut=    80.00 Ry     beta= 0.70
     Davidson diagonalization with overlap
     ethr =  7.57E-07,  avg # of iterations =  3.0

     negative rho (up, down):  5.138E-05 0.000E+00

     total cpu time spent up to now is      290.2 secs

     total energy              =   -2246.30376531 Ry
     estimated scf accuracy    <       0.00043469 Ry

     iteration #  4     ecut=    80.00 Ry     beta= 0.70
     Davidson diagonalization with overlap
     ethr =  1.39E-07,  avg # of iterations =  4.0

     negative rho (up, down):  4.761E-05 0.000E+00

     total cpu time spent up to now is      304.4 secs

     total energy              =   -2246.30382075 Ry
     estimated scf accuracy    <       0.00006057 Ry

     iteration #  5     ecut=    80.00 Ry     beta= 0.70
     Davidson diagonalization with overlap
     ethr =  1.94E-08,  avg # of iterations =  5.0

     negative rho (up, down):  4.417E-05 0.000E+00

     total cpu time spent up to now is      316.0 secs

     total energy              =   -2246.30382701 Ry
     estimated scf accuracy    <       0.00001583 Ry

     iteration #  6     ecut=    80.00 Ry     beta= 0.70
     Davidson diagonalization with overlap
     ethr =  5.07E-09,  avg # of iterations =  2.0

     negative rho (up, down):  4.151E-05 0.000E+00

     total cpu time spent up to now is      326.8 secs

     total energy              =   -2246.30382842 Ry
     estimated scf accuracy    <       0.00000630 Ry

     iteration #  7     ecut=    80.00 Ry     beta= 0.70
     Davidson diagonalization with overlap
     ethr =  2.02E-09,  avg # of iterations =  3.0

     negative rho (up, down):  4.410E-05 0.000E+00

     total cpu time spent up to now is      338.0 secs

     total energy              =   -2246.30382962 Ry
     estimated scf accuracy    <       0.00000149 Ry

     iteration #  8     ecut=    80.00 Ry     beta= 0.70
     Davidson diagonalization with overlap
     ethr =  4.78E-10,  avg # of iterations = 13.0

     negative rho (up, down):  5.741E-05 0.000E+00

     total cpu time spent up to now is      350.1 secs

     total energy              =   -2246.30383053 Ry
     estimated scf accuracy    <       0.00000039 Ry

     iteration #  9     ecut=    80.00 Ry     beta= 0.70
     Davidson diagonalization with overlap
     ethr =  1.23E-10,  avg # of iterations =  2.0

     negative rho (up, down):  1.944E-04 0.000E+00

     total cpu time spent up to now is      353.5 secs

     End of self-consistent calculation

          k = 0.0000 0.0000 0.0000 (105382 PWs)   bands (ev):

   -63.0748 -63.0338 -63.0219 -63.0092 -62.9894 -62.9808 -62.9778 -62.9664
   -62.9548 -62.9428 -62.9368 -62.9043 -37.4106 -37.3519 -37.3388 -37.3015
   -37.2903 -37.2702 -37.2629 -37.2509 -37.2467 -37.2399 -37.2253 -37.2240
   -37.1956 -37.1912 -37.1771 -37.1671 -37.1588 -37.1521 -37.1459 -37.1367
   -37.1245 -37.1192 -37.1103 -37.1027 -37.1010 -37.0921 -37.0777 -37.0632
   -37.0514 -37.0430 -37.0405 -37.0192 -36.9980 -36.9484 -36.9316 -36.9083
   -20.0595 -16.0974 -15.3514 -15.2773 -15.1446 -15.0276 -14.9141 -14.6830
   -14.6513 -14.5810 -14.5631 -14.5422 -14.5066 -14.4728 -14.3403 -14.3008
   -14.2849 -14.2698 -14.2047 -14.1200 -14.0284 -14.0101 -13.9757 -13.9042
    -7.9097  -7.7469  -7.6509  -7.5765  -7.4636  -7.4417  -7.3679  -7.3407
    -7.1636  -7.0163  -6.9886  -6.9324  -6.8835  -6.7878  -6.7050  -6.6637
    -6.6332  -6.5804  -6.4779  -6.4098  -6.1454  -6.1168  -6.0644  -5.9985
    -5.9694  -5.9654  -5.8594  -5.8484  -5.8297  -5.7838  -5.7146  -5.6819
    -5.6446  -5.6056  -5.5372  -5.4154  -5.3373  -5.2295  -5.1883  -5.1588
    -5.1272  -5.1019  -5.0042  -4.8640  -4.7494  -4.7185  -4.5264  -4.4614
    -4.4151  -4.3396  -4.2858  -4.2053  -4.0977  -4.0189  -3.9536  -3.9485
    -3.9139  -3.8438  -3.7836  -3.7297  -3.6927  -3.6579  -3.6466  -3.6158
    -3.5736  -3.5481  -3.4119  -3.3095  -3.1587  -3.1115  -3.0116  -2.9752
    -2.9463  -2.9270  -2.8919  -2.8515  -2.8189  -2.7470  -2.4662  -2.4230
    -2.1894  -2.1642  -2.0560  -1.6764  -0.9714  -0.9104  -0.6736  -0.3413
    -0.3009  -0.2331  -0.1531  -0.0621   0.0255   0.0450   0.1032   0.1138
     0.1400   0.2154   0.2861   0.3265   0.3898   0.4078   0.4314   0.4918
     0.5510   0.5763   0.6073   0.6349   0.6921   0.7240   0.7482   0.8049
     0.8797   0.9995   1.1796

     the Fermi energy is    -1.3247 ev

!    total energy              =   -2246.30383084 Ry
     estimated scf accuracy    <       0.00000016 Ry
     smearing contrib. (-TS)   =      -0.00001426 Ry
     internal energy E=F+TS    =   -2246.30381658 Ry

     The total energy is F=E-TS. E is the sum of the following terms:
     one-electron contribution =  -18440.54914015 Ry
     hartree contribution      =    9207.67753181 Ry
     xc contribution           =    -392.01510629 Ry
     ewald contribution        =    7388.45081301 Ry
     one-center paw contrib.   =      -9.86791495 Ry

     convergence has been achieved in   9 iterations

     negative rho (up, down):  1.944E-04 0.000E+00

     Forces acting on atoms (cartesian axes, Ry/au):

     atom    1 type  1   force =     0.00021738   -0.01017908   -0.00427164
     atom    2 type  2   force =    -0.00831694    0.01348549   -0.01327508
     atom    3 type  2   force =    -0.01494308    0.00617938   -0.01758646
     atom    4 type  1   force =     0.00587264    0.00416549   -0.00020205
     atom    5 type  2   force =     0.00086035   -0.00668002   -0.00688987
     atom    6 type  2   force =    -0.00027538    0.00746950    0.00007200
     atom    7 type  1   force =     0.00354638   -0.00893168   -0.00029282
     atom    8 type  2   force =     0.00154642   -0.00336585    0.01138044
     atom    9 type  2   force =     0.01062735    0.00590533    0.00512359
     atom   10 type  1   force =    -0.00171101    0.00812756   -0.00729260
     atom   11 type  2   force =     0.00453151   -0.00192238   -0.00941592
     atom   12 type  2   force =    -0.00378180   -0.00077179    0.00147542
     atom   13 type  1   force =     0.01399596    0.01214882   -0.00662839
     atom   14 type  2   force =     0.00988589   -0.00096574    0.00676284
     atom   15 type  2   force =    -0.00542719   -0.00017629   -0.00985424
     atom   16 type  1   force =     0.00005504    0.00789834    0.00213285
     atom   17 type  2   force =     0.00584496    0.00447930    0.00449760
     atom   18 type  2   force =    -0.00051354    0.00156332    0.00448372
     atom   19 type  1   force =     0.00470575   -0.00753840    0.00053112
     atom   20 type  2   force =     0.00253775   -0.00363653   -0.00288198
     atom   21 type  1   force =    -0.00461192    0.00322773    0.00259749
     atom   22 type  2   force =     0.00141381   -0.00806206   -0.00339392
     atom   23 type  2   force =     0.00354603   -0.00304604    0.00085516
     atom   24 type  1   force =    -0.00987849    0.00230564   -0.02140011
     atom   25 type  2   force =    -0.12591000    0.07956042    0.13135224
     atom   26 type  2   force =    -0.00004228   -0.00388702   -0.01143587
     atom   27 type  1   force =    -0.00149886   -0.00196782    0.00568034
     atom   28 type  2   force =    -0.00289259   -0.00742073   -0.01144498
     atom   29 type  2   force =    -0.00028871    0.00610699   -0.01041303
     atom   30 type  1   force =    -0.00304945    0.00194043    0.00386396
     atom   31 type  2   force =     0.00051526   -0.00160108    0.00965521
     atom   32 type  2   force =    -0.00616461    0.00489524    0.00580793
     atom   33 type  1   force =     0.00350186   -0.01322292   -0.00334195
     atom   34 type  2   force =    -0.00294368   -0.02718627   -0.01063436
     atom   35 type  2   force =    -0.00924387    0.00397202    0.00029475
     atom   36 type  3   force =     0.12828906   -0.06286935   -0.04591138
     The non-local contrib.  to forces
     atom    1 type  1   force =     0.01031550    0.02530723   -0.00328020
     atom    2 type  2   force =    -0.03178268   -0.01081838   -0.27019084
     atom    3 type  2   force =    -0.01096308   -0.00859732    0.25932792
     atom    4 type  1   force =     0.00730469    0.00021775    0.00550779
     atom    5 type  2   force =     0.00568210   -0.03107368   -0.25649249
     atom    6 type  2   force =    -0.00134556    0.00744922    0.26354682
     atom    7 type  1   force =    -0.01730635    0.00061002   -0.02231459
     atom    8 type  2   force =     0.00702913   -0.00089258   -0.26067623
     atom    9 type  2   force =     0.00578702   -0.00727486    0.27386118
     atom   10 type  1   force =     0.00204713    0.00494500   -0.00150374
     atom   11 type  2   force =     0.01059184    0.00209368   -0.26592326
     atom   12 type  2   force =    -0.01447265   -0.01682204    0.26352569
     atom   13 type  1   force =     0.00115307    0.00965738   -0.00309694
     atom   14 type  2   force =     0.00513175   -0.00753146   -0.26946385
     atom   15 type  2   force =    -0.00992479   -0.00843564    0.25767021
[...]
     atom   28 type  2   force =     0.00204430   -0.01328411   -0.27812869
     atom   29 type  2   force =    -0.00226113   -0.00887301    0.26711004
     atom   30 type  1   force =    -0.00475498    0.01830161    0.00443980
     atom   31 type  2   force =    -0.00532148    0.00162994   -0.26777370
     atom   32 type  2   force =     0.00572623   -0.01517500    0.27117711
     atom   33 type  1   force =    -0.00123694    0.01688143    0.01592977
     atom   34 type  2   force =     0.00270040   -0.00666899   -0.27785049
     atom   35 type  2   force =    -0.00000995   -0.01358124    0.26524364
     atom   36 type  3   force =     0.02919068   -0.04502472   -2.32114284
     The ionic contribution  to forces
     atom    1 type  1   force =    -0.17388245    1.06354797    0.58287930
     atom    2 type  2   force =    -1.18080000    0.06754094   38.06991883
     atom    3 type  2   force =     0.02899493   -0.12814355  -38.46836315
     atom    4 type  1   force =    -0.53315393    0.86314448   -1.30371044
     atom    5 type  2   force =    -0.79340161    1.44666497   37.83822356
     atom    6 type  2   force =     0.16412213   -0.21757160  -38.59419993
     atom    7 type  1   force =    -2.63515730   -2.03831825    2.05767258
     atom    8 type  2   force =    -1.31175542    0.08148745   38.04235265
     atom    9 type  2   force =     0.28809365    0.06102593  -38.41606542
     atom   10 type  1   force =    -0.99464254   -1.02030240    1.42432885
     atom   11 type  2   force =    -0.42233298   -1.71348913   38.31823964
     atom   12 type  2   force =     0.16219999    0.16028011  -38.27736154
     atom   13 type  1   force =     1.09984966    1.26996345   -1.54927000
     atom   14 type  2   force =     1.02124775   -0.04761229   37.86791959
     atom   15 type  2   force =    -0.00363605   -0.19516108  -38.34665397
     atom   16 type  1   force =     0.39606185    3.82287217    0.60316246
     atom   17 type  2   force =     1.35654962    2.12633803   37.74235620
     atom   18 type  2   force =    -0.18593119   -0.16526025  -38.82971240
     atom   19 type  1   force =     2.85244979   -2.40034716    2.80573705
     atom   20 type  2   force =    -0.00481231    0.04906728  -39.01190728
     atom   21 type  1   force =     0.53945513   -0.84977125    0.21490289
     atom   22 type  2   force =     1.01147891   -2.28137496   38.16969449
     atom   23 type  2   force =    -0.13302266    0.18171725  -38.45805666
     atom   24 type  1   force =    -0.95732319    0.99543013   -2.29373107
     atom   25 type  2   force =     0.27044916   -0.07476726   28.68195703
     atom   26 type  2   force =    -0.01654689   -0.15449514  -38.12283225
     atom   27 type  1   force =     0.14706617    1.23823242   -0.70801587
     atom   28 type  2   force =    -0.56243808    1.50702365   37.45042205
     atom   29 type  2   force =     0.02713241    0.08665969  -38.55928391
     atom   30 type  1   force =    -0.16670720   -1.16979789    1.13099086
     atom   31 type  2   force =     1.11332975    0.11815042   38.02611263
     atom   32 type  2   force =    -0.29277747    0.06513981  -38.15065836
     atom   33 type  1   force =     0.47947480   -1.62047596   -0.51725401
     atom   34 type  2   force =    -0.62398224   -1.43145138   38.31620148
     atom   35 type  2   force =    -0.04084862    0.03706740  -38.23680801
     atom   36 type  3   force =     0.07519642    0.26698602   50.50081213
     The local contribution  to forces
     atom    1 type  1   force =     0.17476561   -1.08842187   -0.58559654
     atom    2 type  2   force =     1.18175368   -0.05963984  -37.81914111
     atom    3 type  2   force =    -0.02555829    0.13695280   38.22609906
     atom    4 type  1   force =     0.52913755   -0.86909426    1.29748881
     atom    5 type  2   force =     0.78955273   -1.42360322  -37.60037603
     atom    6 type  2   force =    -0.16467951    0.22309602   38.34696737
     atom    7 type  1   force =     2.64860681    2.03387509   -2.03248103
     atom    8 type  2   force =     1.30264046   -0.08326201  -37.79592093
     atom    9 type  2   force =    -0.28165811   -0.04784689   38.16829497
     atom   10 type  1   force =     0.99272612    1.01251918   -1.42656452
     atom   11 type  2   force =     0.41865467    1.71269029  -38.07691049
     atom   12 type  2   force =    -0.15528758   -0.14829305   38.03188536
     atom   13 type  1   force =    -1.09202647   -1.28165060    1.53822301
     atom   14 type  2   force =    -1.02026456    0.05323957  -37.61465510
     atom   15 type  2   force =     0.00237605    0.20370274   38.10716144
     atom   16 type  1   force =    -0.39585135   -3.85727721   -0.56933242
     atom   17 type  2   force =    -1.35130653   -2.10664786  -37.50507492
     atom   18 type  2   force =     0.18529482    0.16819608   38.58560612
     atom   19 type  1   force =    -2.87185921    2.40051226   -2.77830547
     atom   20 type  2   force =     0.00324459   -0.03512218   38.77037927
     atom   21 type  1   force =    -0.53861782    0.82007017   -0.21755996
     atom   22 type  2   force =    -1.00500007    2.28095126  -37.92816982
     atom   23 type  2   force =     0.12579285   -0.16903759   38.21398510
     atom   24 type  1   force =     0.94836835   -1.00137336    2.27380015
     atom   25 type  2   force =    -0.26262571    0.06644278  -28.96947665
     atom   26 type  2   force =     0.01474110    0.16405014   37.86491818
     atom   27 type  1   force =    -0.14195661   -1.24212393    0.70481605
     atom   28 type  2   force =     0.56113958   -1.49500342  -37.19407852
     atom   29 type  2   force =    -0.02611748   -0.07863572   38.31367156
     atom   30 type  1   force =     0.17142028    1.15115725   -1.13503465
     atom   31 type  2   force =    -1.10767219   -0.11972753  -37.77958222
     atom   32 type  2   force =     0.28718648   -0.05129569   37.89999342
     atom   33 type  1   force =    -0.47865779    1.60434013    0.50106850
     atom   34 type  2   force =     0.62111258    1.43771854  -38.05901267
     atom   35 type  2   force =     0.04112230   -0.02505010   37.99245000
     atom   36 type  3   force =    -0.10375961   -0.22291250  -48.20343735
     The core correction contribution to forces
     atom    1 type  1   force =     0.00000000    0.00000000    0.00000000
     atom    2 type  2   force =     0.00006266    0.00035900    0.02132553
     atom    3 type  2   force =     0.00018546    0.00024100   -0.02080384
     atom    4 type  1   force =     0.00000000    0.00000000    0.00000000
     atom    5 type  2   force =    -0.00034504    0.00105330    0.02053337
     atom    6 type  2   force =     0.00007062   -0.00017213   -0.02091081
     atom    7 type  1   force =     0.00000000    0.00000000    0.00000000
     atom    8 type  2   force =    -0.00045818    0.00006458    0.02097015
     atom    9 type  2   force =     0.00067515    0.00079447   -0.02101993
     atom   10 type  1   force =     0.00000000    0.00000000    0.00000000
     atom   11 type  2   force =     0.00003692   -0.00030052    0.02075188
     atom   12 type  2   force =     0.00054254    0.00095484   -0.02091064
     atom   13 type  1   force =     0.00000000    0.00000000    0.00000000
     atom   14 type  2   force =     0.00000074    0.00005324    0.02137102
     atom   15 type  2   force =    -0.00009246    0.00024585   -0.02061282
     atom   16 type  1   force =     0.00000000    0.00000000    0.00000000
     atom   17 type  2   force =     0.00046011    0.00092751    0.02068899
     atom   18 type  2   force =    -0.00026710   -0.00021015   -0.02083331
     atom   19 type  1   force =     0.00000000    0.00000000    0.00000000
     atom   20 type  2   force =    -0.00013312    0.00075441   -0.02121332
     atom   21 type  1   force =     0.00000000    0.00000000    0.00000000
     atom   22 type  2   force =     0.00013499   -0.00013038    0.02093203
     atom   23 type  2   force =    -0.00057338    0.00088011   -0.02086047
     atom   24 type  1   force =     0.00000000    0.00000000    0.00000000
     atom   25 type  2   force =     0.00040849   -0.00051756   -0.00969276
     atom   26 type  2   force =    -0.00006043    0.00030570   -0.02132518
     atom   27 type  1   force =     0.00000000    0.00000000    0.00000000
     atom   28 type  2   force =    -0.00010587    0.00083803    0.02149322
     atom   29 type  2   force =     0.00020891    0.00030338   -0.02080332
     atom   30 type  1   force =     0.00000000    0.00000000    0.00000000
     atom   31 type  2   force =     0.00021362    0.00017906    0.02094772
     atom   32 type  2   force =    -0.00054107    0.00084327   -0.02102485
     atom   33 type  1   force =     0.00000000    0.00000000    0.00000000
     atom   34 type  2   force =    -0.00019414    0.00027557    0.02156790
     atom   35 type  2   force =    -0.00001354    0.00082371   -0.02089522
     atom   36 type  3   force =    -0.00031037    0.00046333    0.02461187
     The Hubbard contrib.    to forces
     atom    1 type  1   force =     0.00000000    0.00000000    0.00000000
     atom    2 type  2   force =     0.00000000    0.00000000    0.00000000
     atom    3 type  2   force =     0.00000000    0.00000000    0.00000000
     atom    4 type  1   force =     0.00000000    0.00000000    0.00000000
     atom    5 type  2   force =     0.00000000    0.00000000    0.00000000
     atom    6 type  2   force =     0.00000000    0.00000000    0.00000000
     atom    7 type  1   force =     0.00000000    0.00000000    0.00000000
     atom    8 type  2   force =     0.00000000    0.00000000    0.00000000
     atom    9 type  2   force =     0.00000000    0.00000000    0.00000000
     atom   10 type  1   force =     0.00000000    0.00000000    0.00000000
     atom   11 type  2   force =     0.00000000    0.00000000    0.00000000
     atom   12 type  2   force =     0.00000000    0.00000000    0.00000000
     atom   13 type  1   force =     0.00000000    0.00000000    0.00000000
     atom   14 type  2   force =     0.00000000    0.00000000    0.00000000
     atom   15 type  2   force =     0.00000000    0.00000000    0.00000000
     atom   16 type  1   force =     0.00000000    0.00000000    0.00000000
     atom   17 type  2   force =     0.00000000    0.00000000    0.00000000
     atom   18 type  2   force =     0.00000000    0.00000000    0.00000000
     atom   19 type  1   force =     0.00000000    0.00000000    0.00000000
     atom   20 type  2   force =     0.00000000    0.00000000    0.00000000
     atom   21 type  1   force =     0.00000000    0.00000000    0.00000000
     atom   22 type  2   force =     0.00000000    0.00000000    0.00000000
     atom   23 type  2   force =     0.00000000    0.00000000    0.00000000
     atom   24 type  1   force =     0.00000000    0.00000000    0.00000000
     atom   25 type  2   force =     0.00000000    0.00000000    0.00000000
     atom   26 type  2   force =     0.00000000    0.00000000    0.00000000
     atom   27 type  1   force =     0.00000000    0.00000000    0.00000000
     atom   28 type  2   force =     0.00000000    0.00000000    0.00000000
     atom   29 type  2   force =     0.00000000    0.00000000    0.00000000
     atom   30 type  1   force =     0.00000000    0.00000000    0.00000000
     atom   31 type  2   force =     0.00000000    0.00000000    0.00000000
     atom   32 type  2   force =     0.00000000    0.00000000    0.00000000
     atom   33 type  1   force =     0.00000000    0.00000000    0.00000000
     atom   34 type  2   force =     0.00000000    0.00000000    0.00000000
     atom   35 type  2   force =     0.00000000    0.00000000    0.00000000
     atom   36 type  3   force =     0.00000000    0.00000000    0.00000000
     The SCF correction term to forces
     atom    1 type  1   force =     0.00004324    0.00000055    0.00005871
     atom    2 type  2   force =     0.00002749    0.00000416    0.00004443
     atom    3 type  2   force =     0.00001180    0.00001120    0.00000915
     atom    4 type  1   force =     0.00001992   -0.00003334    0.00004289
     atom    5 type  2   force =     0.00000011   -0.00001572    0.00002605
     atom    6 type  2   force =     0.00000046   -0.00000427   -0.00000036
     atom    7 type  1   force =    -0.00001240    0.00000357    0.00002977
     atom    8 type  2   force =     0.00001151    0.00000194    0.00002398
     atom    9 type  2   force =     0.00001302    0.00000006   -0.00000344
     atom   10 type  1   force =     0.00002712    0.00003733    0.00007226
     atom   11 type  2   force =     0.00000353    0.00001286    0.00003163
     atom   12 type  2   force =     0.00000168    0.00000258    0.00000123
     atom   13 type  1   force =    -0.00005261   -0.00002965    0.00009783
     atom   14 type  2   force =    -0.00001740    0.00000029    0.00003343
     atom   15 type  2   force =     0.00000245   -0.00000308    0.00000561
     atom   16 type  1   force =    -0.00001730   -0.00001005    0.00002875
     atom   17 type  2   force =    -0.00000985   -0.00001448    0.00003361
     atom   18 type  2   force =     0.00000115    0.00000773    0.00000469
     atom   19 type  1   force =    -0.00001060   -0.00000298    0.00005183
     atom   20 type  2   force =    -0.00000357   -0.00000768    0.00000601
     atom   21 type  1   force =    -0.00001535    0.00002205    0.00004983
     atom   22 type  2   force =    -0.00000758    0.00000846    0.00002954
     atom   23 type  2   force =     0.00000120   -0.00000300    0.00001052
     atom   24 type  1   force =     0.00004563   -0.00002364    0.00008896
     atom   25 type  2   force =    -0.00002148    0.00000599    0.00003253
     atom   26 type  2   force =    -0.00001044   -0.00000019    0.00003149
     atom   27 type  1   force =    -0.00001384   -0.00003055    0.00005380
     atom   28 type  2   force =     0.00000845   -0.00003395    0.00003736
     atom   29 type  2   force =    -0.00000228   -0.00001727    0.00000516
     atom   30 type  1   force =    -0.00000307    0.00000497    0.00003047
     atom   31 type  2   force =     0.00000499    0.00000400    0.00002225
     atom   32 type  2   force =    -0.00000242    0.00000315    0.00000828
     atom   33 type  1   force =    -0.00002232    0.00006932    0.00009547
     atom   34 type  2   force =     0.00001362    0.00002688    0.00003408
     atom   35 type  2   force =    -0.00000086    0.00000024    0.00000546
     atom   36 type  3   force =    -0.00005841    0.00002624   -0.00000246

     Total force =     0.006496     Total SCF correction =     0.000300
     Energy error            =      8.4E-05 Ry
     Gradient error          =      2.8E-03 Ry/Bohr

     bfgs converged in  22 scf cycles and  21 bfgs steps
     (criteria: energy <  1.0E-04 Ry, force <  1.0E-02 Ry/Bohr)

     End of BFGS Geometry Optimization

     Final energy             =   -2246.4497844603 Ry

     File ./MoS2-V-O.bfgs deleted, as requested
Begin final coordinates

ATOMIC_POSITIONS (angstrom)
Mo            6.5416356459        1.7559498291        2.7444524579
S             8.1141827246        0.8678627440        4.3572579140
S             8.1085560850        0.8383521776        1.1523970826
Mo            8.1058763838        4.5061459047        2.6956397891
S             6.5081057687        3.6704425939        4.2918354495
S             6.5305967424        3.5716377306        1.1002709200
Mo            6.4987618757        7.1921411121        2.6728565044
S             8.0608163709        6.3042756980        4.2999398314
S             8.1187184080        6.3438372412        1.1087565993
Mo            8.1163515133        9.9498436520        2.7673610021
S             6.5054307790        8.9609014878        4.3295671950
S             6.5627384358        9.0416165373        1.1338425114
Mo            3.4274099848        1.7877025264        2.7427847933
S             4.9691523358        0.8387106446        4.3405269730
S             4.9773901749        0.8340476037        1.1549520755
Mo            4.9751711095        4.5516960106        2.6505545696
S             3.4539270699        3.6819921944        4.3112158604
S             3.4136500358        3.5926744948        1.0979637244
Mo            3.4612866572        7.1926311211        2.6907787300
S             4.9738511622        6.3328014072        1.0510304978
Mo            4.9709832684        9.9184877996        2.7397828556
S             3.4458232503        8.9607576120        4.3441335397
S             3.3921356202        9.0224252333        1.1359236839
Mo            0.2220926659        1.7727667016        2.7411450977
S             1.8302645299        0.8610992239        4.2725433011
S             1.8315216076        0.8436067458        1.1876829764
Mo            1.8463188898        4.5052529400        2.7150981637
S             0.2382984168        3.6190315324        4.3123634660
S             0.2537869293        3.5892764970        1.1245303630
Mo            0.2384453051        7.2305935693        2.7415587074
S             1.8769554630        6.3112279520        4.3115585666
S             1.8361298162        6.3459529882        1.1287739672
Mo            1.8303547369        9.9139129207        2.7660433841
S             0.2405205949        9.0359249630        4.3684768362
S             0.2345091573        9.0540825409        1.1662538145
O             1.8113486079        0.8956067022        5.7704866678
End final coordinates



     Writing all to output data dir ./MoS2-V-O.save/
 
     init_run     :      4.82s CPU      5.44s WALL (       1 calls)
     electrons    :   1971.34s CPU   2230.07s WALL (      22 calls)
     update_pot   :     64.03s CPU     68.29s WALL (      21 calls)
     forces       :     60.25s CPU     68.54s WALL (      22 calls)

     Called by init_run:
     wfcinit      :      0.71s CPU      0.82s WALL (       1 calls)
     potinit      :      2.34s CPU      2.59s WALL (       1 calls)
     hinit0       :      0.45s CPU      0.53s WALL (       1 calls)

     Called by electrons:
     c_bands      :    294.31s CPU    301.16s WALL (     203 calls)
     sum_band     :    114.31s CPU    147.12s WALL (     203 calls)
     v_of_rho     :    189.76s CPU    231.33s WALL (     217 calls)
     newd         :     66.69s CPU     97.55s WALL (     217 calls)
     PAW_pot      :      8.62s CPU      8.65s WALL (     238 calls)
     mix_rho      :   1319.62s CPU   1468.18s WALL (     203 calls)

     Called by c_bands:
     init_us_2    :      4.69s CPU      5.04s WALL (     428 calls)
     init_us_2:cp :      4.69s CPU      5.04s WALL (     428 calls)
     regterg      :    278.91s CPU    285.39s WALL (     203 calls)

     Called by *egterg:
     rdiaghg      :     19.55s CPU     19.74s WALL (    1124 calls)
     h_psi        :    180.19s CPU    181.78s WALL (    1154 calls)
     s_psi        :     17.35s CPU     17.40s WALL (    1154 calls)
     g_psi        :      0.87s CPU      0.87s WALL (     950 calls)

     Called by h_psi:
     h_psi:calbec :     20.10s CPU     20.22s WALL (    1154 calls)
     vloc_psi     :    140.54s CPU    141.90s WALL (    1154 calls)
     add_vuspsi   :     17.30s CPU     17.40s WALL (    1154 calls)

     General routines
     calbec       :     29.19s CPU     29.35s WALL (    1466 calls)
     fft          :    129.29s CPU    150.21s WALL (   14520 calls)
     ffts         :    591.08s CPU    734.59s WALL (  324889 calls)
     fftw         :     89.77s CPU     90.53s WALL (  124228 calls)
     interpolate  :      2.69s CPU      3.08s WALL (     217 calls)
 
     Parallel routines
 
     PWSCF        :  35m 9.99s CPU  39m46.38s WALL

 
   This run was terminated on:  12:23:41   1Nov2023            

=------------------------------------------------------------------------------=
   JOB DONE.
=------------------------------------------------------------------------------=
