
     Program PWSCF v.7.2 starts on  4Nov2023 at 12: 6: 7 

     This program is part of the open-source Quantum ESPRESSO suite
     for quantum simulation of materials; please cite
         "P. Giannozzi et al., J. Phys.:Condens. Matter 21 395502 (2009);
         "P. Giannozzi et al., J. Phys.:Condens. Matter 29 465901 (2017);
         "P. Giannozzi et al., J. Chem. Phys. 152 154105 (2020);
          URL http://www.quantum-espresso.org", 
     in publications or presentations arising from this work. More details at
     http://www.quantum-espresso.org/quote

     Parallel version (MPI & OpenMP), running on      48 processor cores
     Number of MPI processes:                48
     Threads/MPI process:                     1

     MPI processes distributed on     1 nodes
     572 MiB available memory on the printing compute node when the environment starts
 
     Waiting for input...
     Reading input from standard input
Warning: card &CELL ignored
Warning: card CELL_DYNAMICS = 'BFGS', ignored
Warning: card CELL_DOFREE = '2DXY' ignored
Warning: card / ignored

     Current dimensions of program PWSCF are:
     Max number of different atomic species (ntypx) = 10
     Max number of k-points (npk) =  40000
     Max angular momentum in pseudopotentials (lmaxx) =  4
     file O.pbe-n-kjpaw_psl.0.1.UPF: wavefunction(s)  2P renormalized

     IMPORTANT: XC functional enforced from input :
     Exchange-correlation= RVV10
                           (   1   4  13   4  26   0   0)
     Any further DFT definition will be discarded
     Please, verify this is what you really want


     gamma-point specific algorithms are used
     signal trapping enabled: kill the code with -SIGUSR1 to stop cleanly the simulation 
 
     R & G space division:  proc/nbgrp/npool/nimage =      48
     Subspace diagonalization in iterative solution of the eigenvalue problem:
     one sub-group per band group will be used
     scalapack distributed-memory algorithm (size of sub-group:  2*  2 procs)

 
     Parallelization info
     --------------------
     sticks:   dense  smooth     PW     G-vecs:    dense   smooth      PW
     Min         396     194     47               101632    35090    4376
     Max         398     196     50               101674    35128    4410
     Sum       19091    9389   2349              4879585  1685513  210763
 
     Using Slab Decomposition
 


     bravais-lattice index     =            0
     lattice parameter (alat)  =      17.8707  a.u.
     unit-cell volume          =   17436.2743 (a.u.)^3
     number of atoms/cell      =           36
     number of atomic types    =            3
     number of electrons       =       312.00
     number of Kohn-Sham states=          187
     kinetic-energy cutoff     =      80.0000  Ry
     charge density cutoff     =     650.0000  Ry
     scf convergence threshold =      1.0E-06
     mixing beta               =       0.7000
     number of iterations used =            8  local-TF  mixing
     energy convergence thresh.=      1.0E-04
     force convergence thresh. =      1.0E-02
     Exchange-correlation= RVV10
                           (   1   4  13   4  26   0   0)
     nstep                     =          200


     celldm(1)=  17.870686  celldm(2)=   0.000000  celldm(3)=   0.000000
     celldm(4)=   0.000000  celldm(5)=   0.000000  celldm(6)=   0.000000

     crystal axes: (cart. coord. in units of alat)
               a(1) = (   1.000000   0.000000   0.000000 )  
               a(2) = (   0.000000   1.155671   0.000000 )  
               a(3) = (   0.000000   0.000000   2.643601 )  

     reciprocal axes: (cart. coord. in units 2 pi/alat)
               b(1) = (  1.000000  0.000000  0.000000 )  
               b(2) = (  0.000000  0.865298  0.000000 )  
               b(3) = (  0.000000  0.000000  0.378272 )  


     PseudoPot. # 1 for Mo read from file:
     ../../pseudo/Mo_ONCV_PBE-1.0.oncvpsp.upf
     MD5 check sum: 1b5d28e075c9ccadda658a603575cd1f
     Pseudo is Norm-conserving, Zval = 14.0
     Generated using ONCVPSP code by D. R. Hamann
     Using radial grid of 1526 points,  6 beta functions with: 
                l(1) =   0
                l(2) =   0
                l(3) =   1
                l(4) =   1
                l(5) =   2
                l(6) =   2

     PseudoPot. # 2 for S  read from file:
     ../../pseudo/s_pbe_v1.4.uspp.F.UPF
     MD5 check sum: 88d86576ff6df21479756cfb9bdac1df
     Pseudo is Ultrasoft + core correction, Zval =  6.0
     Generated by new atomic code, or converted to UPF format
     Using radial grid of  907 points,  6 beta functions with: 
                l(1) =   0
                l(2) =   0
                l(3) =   1
                l(4) =   1
                l(5) =   2
                l(6) =   2
     Q(r) pseudized with  8 coefficients,  rinner =    1.300   1.300   1.300
                                                       1.300   1.300

     PseudoPot. # 3 for O  read from file:
     ../../pseudo/O.pbe-n-kjpaw_psl.0.1.UPF
     MD5 check sum: 0234752ac141de4415c5fc33072bef88
     Pseudo is Projector augmented-wave + core cor, Zval =  6.0
     Generated using "atomic" code by A. Dal Corso  v.5.0.99 svn rev. 10869
     Shape of augmentation charge: BESSEL
     Using radial grid of 1095 points,  4 beta functions with: 
                l(1) =   0
                l(2) =   0
                l(3) =   1
                l(4) =   1
     Q(r) pseudized with 0 coefficients 


     atomic species   valence    mass     pseudopotential
        Mo            14.00    95.94000     Mo( 1.00)
        S              6.00    32.06500     S ( 1.00)
        O              6.00    15.99940     O ( 1.00)

     No symmetry found



   Cartesian axes

     site n.     atom                  positions (alat units)
         1           Mo  tau(   1) = (   0.6952221   0.1890506   0.2985846  )
         2           S   tau(   2) = (   0.8646417   0.0856217   0.4689279  )
         3           S   tau(   3) = (   0.8663890   0.0857843   0.1351291  )
         4           Mo  tau(   4) = (   0.8560186   0.4753274   0.2873942  )
         5           S   tau(   5) = (   0.6873294   0.3936244   0.4596353  )
         6           S   tau(   6) = (   0.6929804   0.3713468   0.1185692  )
         7           Mo  tau(   7) = (   0.6862796   0.7633098   0.2825370  )
         8           S   tau(   8) = (   0.8545980   0.6708292   0.4486168  )
         9           S   tau(   9) = (   0.8545123   0.6666874   0.1146125  )
        10           Mo  tau(  10) = (   0.8629403   1.0471007   0.3006803  )
        11           S   tau(  11) = (   0.6868280   0.9456650   0.4634891  )
        12           S   tau(  12) = (   0.6998113   0.9568511   0.1205389  )
        13           Mo  tau(  13) = (   0.3618216   0.1847309   0.2935964  )
        14           S   tau(  14) = (   0.5260962   0.0863870   0.4600448  )
        15           S   tau(  15) = (   0.5348379   0.0894875   0.1297123  )
        16           Mo  tau(  16) = (   0.5265817   0.4772436   0.2784130  )
        17           S   tau(  17) = (   0.3624753   0.3882513   0.4525556  )
        18           S   tau(  18) = (   0.3635411   0.3752055   0.1119148  )
        19           Mo  tau(  19) = (   0.3652268   0.7630864   0.2781795  )
        20           S   tau(  20) = (   0.5269494   0.6690381   0.1096838  )
        21           Mo  tau(  21) = (   0.5300192   1.0470394   0.2900995  )
        22           S   tau(  22) = (   0.3670346   0.9457522   0.4574073  )
        23           S   tau(  23) = (   0.3604225   0.9585725   0.1159032  )
        24           Mo  tau(  24) = (   0.0313099   0.1847895   0.3013130  )
        25           S   tau(  25) = (   0.1956761   0.0838230   0.4650863  )
        26           S   tau(  26) = (   0.1967693   0.0903508   0.1278874  )
        27           Mo  tau(  27) = (   0.1967578   0.4753919   0.2813011  )
        28           S   tau(  28) = (   0.0287851   0.3864324   0.4586755  )
        29           S   tau(  29) = (   0.0244514   0.3729871   0.1239344  )
        30           Mo  tau(  30) = (   0.0286728   0.7631204   0.2856894  )
        31           S   tau(  31) = (   0.2011512   0.6675435   0.4465001  )
        32           S   tau(  32) = (   0.1969214   0.6672839   0.1104564  )
        33           Mo  tau(  33) = (   0.1950294   1.0511147   0.2932237  )
        34           S   tau(  34) = (   0.0312912   0.9612169   0.4667423  )
        35           S   tau(  35) = (   0.0292670   0.9563028   0.1216485  )
        36           O   tau(  36) = (   0.0000000   0.0000000   0.5650415  )

     number of k points=     1  Gaussian smearing, width (Ry)=  0.0100
                       cart. coord. in units 2pi/alat
        k(    1) = (   0.0000000   0.0000000   0.0000000), wk =   2.0000000

     Dense  grid:  2439793 G-vectors     FFT dimensions: ( 150, 180, 384)

     Smooth grid:   842757 G-vectors     FFT dimensions: ( 108, 120, 270)

     Estimated max dynamical RAM per process >     269.22 MB

     Estimated total dynamical RAM >      12.62 GB

     Initial potential from superposition of free atoms

     starting charge     311.9873, renormalised to     312.0000

     negative rho (up, down):  2.752E-04 0.000E+00


---------------------------------------------------------------------------------
Carrying out rVV10 run using the following parameters:
Nqs =      20    Nr_points =    1024   r_max =   100.000
b_value =  6.30000    beta =  0.00901
     q_mesh =  0.00010000  0.00030000  0.00058939  0.00100810
               0.00161396  0.00249058  0.00375900  0.00559430
               0.00824984  0.01209221  0.01765183  0.02569619
               0.03733578  0.05417739  0.07854596  0.11380545
               0.16482331  0.23864234  0.34545298  0.50000000

Gradients computed in Reciprocal space

---------------------------------------------------------------------------------


     Starting wfcs are  216 randomized atomic wfcs
     Checking if some PAW data can be deallocated... 

     total cpu time spent up to now is        6.8 secs

     Self-consistent Calculation

     iteration #  1     ecut=    80.00 Ry     beta= 0.70
     Davidson diagonalization with overlap
     ethr =  1.00E-02,  avg # of iterations =  2.0

     Threshold (ethr) on eigenvalues was too large:
     Diagonalizing with lowered threshold

     Davidson diagonalization with overlap
     ethr =  4.37E-04,  avg # of iterations =  3.0

     negative rho (up, down):  3.543E-08 0.000E+00

     total cpu time spent up to now is       21.1 secs

     total energy              =   -2246.17754341 Ry
     estimated scf accuracy    <       1.62465610 Ry

     iteration #  2     ecut=    80.00 Ry     beta= 0.70
     Davidson diagonalization with overlap
     ethr =  5.21E-04,  avg # of iterations =  4.0

     total cpu time spent up to now is       26.0 secs

     total energy              =   -2246.17060730 Ry
     estimated scf accuracy    <       0.66371512 Ry

     iteration #  3     ecut=    80.00 Ry     beta= 0.70
     Davidson diagonalization with overlap
     ethr =  2.13E-04,  avg # of iterations =  5.0

     total cpu time spent up to now is       30.2 secs

     total energy              =   -2246.15724251 Ry
     estimated scf accuracy    <       0.21211156 Ry

     iteration #  4     ecut=    80.00 Ry     beta= 0.70
     Davidson diagonalization with overlap
     c_bands:  1 eigenvalues not converged
     ethr =  6.80E-05,  avg # of iterations = 20.0

     total cpu time spent up to now is       35.3 secs

     total energy              =   -2246.19657784 Ry
     estimated scf accuracy    <       0.03206146 Ry

     iteration #  5     ecut=    80.00 Ry     beta= 0.70
     Davidson diagonalization with overlap
     ethr =  1.03E-05,  avg # of iterations =  9.0

     total cpu time spent up to now is       39.7 secs

     total energy              =   -2246.19763324 Ry
     estimated scf accuracy    <       0.01786490 Ry

     iteration #  6     ecut=    80.00 Ry     beta= 0.70
     Davidson diagonalization with overlap
     ethr =  5.73E-06,  avg # of iterations =  2.0

     total cpu time spent up to now is       43.6 secs

     total energy              =   -2246.19663813 Ry
     estimated scf accuracy    <       0.01212455 Ry

     iteration #  7     ecut=    80.00 Ry     beta= 0.70
     Davidson diagonalization with overlap
     ethr =  3.89E-06,  avg # of iterations =  2.0

     total cpu time spent up to now is       47.5 secs

     total energy              =   -2246.19561697 Ry
     estimated scf accuracy    <       0.00707185 Ry

     iteration #  8     ecut=    80.00 Ry     beta= 0.70
     Davidson diagonalization with overlap
     ethr =  2.27E-06,  avg # of iterations = 14.0

     negative rho (up, down):  3.439E-03 0.000E+00

     total cpu time spent up to now is       54.1 secs

     total energy              =   -2246.19478289 Ry
     estimated scf accuracy    <       0.00393246 Ry

     iteration #  9     ecut=    80.00 Ry     beta= 0.70
     Davidson diagonalization with overlap
     ethr =  1.26E-06,  avg # of iterations =  2.0

     negative rho (up, down):  2.183E-02 0.000E+00

     total cpu time spent up to now is       60.4 secs

     total energy              =   -2246.19456834 Ry
     estimated scf accuracy    <       0.00219699 Ry

     iteration # 10     ecut=    80.00 Ry     beta= 0.70
     Davidson diagonalization with overlap
     ethr =  7.04E-07,  avg # of iterations =  2.0

     negative rho (up, down):  2.506E-02 0.000E+00

     total cpu time spent up to now is       67.8 secs

     total energy              =   -2246.19459522 Ry
     estimated scf accuracy    <       0.00099954 Ry

     iteration # 11     ecut=    80.00 Ry     beta= 0.70
     Davidson diagonalization with overlap
     ethr =  3.20E-07,  avg # of iterations =  2.0

     negative rho (up, down):  1.669E-02 0.000E+00

     total cpu time spent up to now is       74.7 secs

     total energy              =   -2246.19459926 Ry
     estimated scf accuracy    <       0.00020311 Ry

     iteration # 12     ecut=    80.00 Ry     beta= 0.70
     Davidson diagonalization with overlap
     ethr =  6.51E-08,  avg # of iterations =  5.0

     negative rho (up, down):  5.083E-03 0.000E+00

     total cpu time spent up to now is       82.2 secs

     total energy              =   -2246.19462257 Ry
     estimated scf accuracy    <       0.00004215 Ry

     iteration # 13     ecut=    80.00 Ry     beta= 0.70
     Davidson diagonalization with overlap
     ethr =  1.35E-08,  avg # of iterations =  5.0

     negative rho (up, down):  1.043E-03 0.000E+00

     total cpu time spent up to now is       90.4 secs

     total energy              =   -2246.19464711 Ry
     estimated scf accuracy    <       0.00000710 Ry

     iteration # 14     ecut=    80.00 Ry     beta= 0.70
     Davidson diagonalization with overlap
     ethr =  2.28E-09,  avg # of iterations =  4.0

     negative rho (up, down):  4.610E-04 0.000E+00

     total cpu time spent up to now is       98.5 secs

     total energy              =   -2246.19464906 Ry
     estimated scf accuracy    <       0.00000177 Ry

     iteration # 15     ecut=    80.00 Ry     beta= 0.70
     Davidson diagonalization with overlap
     ethr =  5.67E-10,  avg # of iterations =  4.0

     negative rho (up, down):  2.127E-04 0.000E+00

     total cpu time spent up to now is      102.2 secs

     End of self-consistent calculation

          k = 0.0000 0.0000 0.0000 (105382 PWs)   bands (ev):

   -62.9905 -62.9504 -62.9468 -62.9330 -62.8867 -62.8770 -62.8648 -62.8531
   -62.8346 -62.8248 -62.7751 -62.7254 -37.3153 -37.2701 -37.2317 -37.2228
   -37.1930 -37.1790 -37.1679 -37.1457 -37.1295 -37.1276 -37.1246 -37.1101
   -37.1039 -37.0967 -37.0623 -37.0556 -37.0489 -37.0440 -37.0317 -37.0255
   -37.0221 -37.0090 -37.0072 -36.9980 -36.9884 -36.9717 -36.9559 -36.9478
   -36.9221 -36.9042 -36.8863 -36.8768 -36.8552 -36.8320 -36.8037 -36.7659
   -20.8140 -15.9735 -15.3295 -15.1926 -15.0907 -14.9096 -14.8484 -14.7964
   -14.5563 -14.5333 -14.4827 -14.4482 -14.4205 -14.3558 -14.2882 -14.2319
   -14.1954 -14.1642 -14.1093 -14.0690 -13.9186 -13.8980 -13.8761 -13.8541
    -8.1909  -7.7839  -7.6180  -7.4901  -7.3833  -7.3505  -7.3075  -7.2485
    -7.2164  -7.1465  -6.8878  -6.8699  -6.8208  -6.7202  -6.6859  -6.6164
    -6.5438  -6.4488  -6.4314  -6.3369  -6.1743  -6.0697  -5.9677  -5.9298
    -5.9080  -5.8458  -5.8051  -5.7395  -5.7290  -5.7034  -5.6355  -5.6196
    -5.5641  -5.5038  -5.4380  -5.3835  -5.3331  -5.1708  -5.0977  -5.0594
    -5.0310  -4.9879  -4.9005  -4.7268  -4.6829  -4.5811  -4.4404  -4.4275
    -4.3529  -4.2994  -4.1965  -4.1528  -3.9682  -3.9433  -3.8797  -3.8446
    -3.8064  -3.7719  -3.6993  -3.6572  -3.6122  -3.5957  -3.5214  -3.4947
    -3.4599  -3.4344  -3.2963  -3.2402  -3.0341  -2.9889  -2.9079  -2.8623
    -2.8482  -2.8100  -2.7770  -2.7425  -2.6995  -2.6454  -2.3989  -2.3201
    -2.0560  -1.9709  -1.9400  -1.8326  -1.4282  -0.8390  -0.7709  -0.2300
    -0.1968  -0.1253  -0.0758   0.0596   0.0849   0.1406   0.1537   0.2126
     0.2382   0.3022   0.3633   0.4660   0.4872   0.5028   0.5389   0.5607
     0.6421   0.6905   0.6950   0.7320   0.7847   0.8222   0.8659   0.9080
     0.9685   0.9934   1.2130

     the Fermi energy is    -1.6295 ev

!    total energy              =   -2246.19465136 Ry
     estimated scf accuracy    <       0.00000067 Ry
     smearing contrib. (-TS)   =      -0.00128018 Ry
     internal energy E=F+TS    =   -2246.19337118 Ry

     The total energy is F=E-TS. E is the sum of the following terms:
     one-electron contribution =  -18465.96330707 Ry
     hartree contribution      =    9221.28665405 Ry
     xc contribution           =    -392.03342794 Ry
     ewald contribution        =    7400.38686154 Ry
     one-center paw contrib.   =      -9.87015177 Ry

     convergence has been achieved in  15 iterations

     negative rho (up, down):  2.127E-04 0.000E+00

     Forces acting on atoms (cartesian axes, Ry/au):

     atom    1 type  1   force =    -0.00097431    0.01017366   -0.00613916
     atom    2 type  2   force =     0.08620581   -0.05614096    0.04488935
     atom    3 type  2   force =    -0.01314121    0.00931588   -0.00343618
     atom    4 type  1   force =     0.00452503   -0.00514852   -0.00324482
     atom    5 type  2   force =    -0.00296711   -0.00196521   -0.00520895
     atom    6 type  2   force =     0.00089946    0.00487274   -0.00119883
     atom    7 type  1   force =     0.00376176   -0.01330354   -0.00805375
     atom    8 type  2   force =     0.00093840   -0.00607073    0.01956546
     atom    9 type  2   force =     0.01081718    0.00665119    0.00954407
     atom   10 type  1   force =    -0.02618238   -0.00920718   -0.06133925
     atom   11 type  2   force =     0.00392806   -0.00197648   -0.00572315
     atom   12 type  2   force =    -0.00428698    0.00064371    0.00537739
     atom   13 type  1   force =     0.01319711    0.00474169   -0.01684817
     atom   14 type  2   force =    -0.00058461    0.00038539    0.01006408
     atom   15 type  2   force =    -0.01072915    0.00120932   -0.01115033
     atom   16 type  1   force =    -0.00385185    0.01357506    0.00456610
     atom   17 type  2   force =     0.00683065   -0.00019500    0.00311134
     atom   18 type  2   force =    -0.00116261   -0.00468423    0.01117770
     atom   19 type  1   force =     0.00505848   -0.01117416   -0.00334513
     atom   20 type  2   force =     0.00300887   -0.00377689    0.00164730
     atom   21 type  1   force =    -0.00263068    0.00164343    0.00034845
     atom   22 type  2   force =    -0.00203284   -0.00209920   -0.00254329
     atom   23 type  2   force =     0.00316472    0.00049767    0.00654463
     atom   24 type  1   force =    -0.00495228    0.01374693   -0.04653397
     atom   25 type  2   force =     0.04811134    0.03268463   -0.02114061
     atom   26 type  2   force =    -0.01068228   -0.00084968   -0.00189055
     atom   27 type  1   force =    -0.00284403   -0.00083017    0.00945043
     atom   28 type  2   force =     0.00178795   -0.00049675   -0.00296550
     atom   29 type  2   force =     0.00495475    0.00313680   -0.00257242
     atom   30 type  1   force =     0.00250412   -0.00817054   -0.01937173
     atom   31 type  2   force =    -0.00042219    0.00410085    0.01641415
     atom   32 type  2   force =    -0.00973066    0.00750205    0.00726209
     atom   33 type  1   force =     0.01278077   -0.00210791   -0.01153123
     atom   34 type  2   force =     0.00373297   -0.03123820   -0.01284586
     atom   35 type  2   force =    -0.00782785    0.00736728    0.01655521
     atom   36 type  3   force =    -0.11120438    0.03718705    0.08056512
     The non-local contrib.  to forces
     atom    1 type  1   force =    -0.01034227    0.00608805   -0.01597176
     atom    2 type  2   force =     0.35224132   -0.18691815    0.08580897
     atom    3 type  2   force =    -0.01517834   -0.00140957    0.27131542
     atom    4 type  1   force =     0.00217957    0.01086839    0.00547145
     atom    5 type  2   force =     0.00458824   -0.03116814   -0.25023235
     atom    6 type  2   force =    -0.00471049    0.00611238    0.26752116
     atom    7 type  1   force =    -0.01770367    0.00466742   -0.01927880
     atom    8 type  2   force =     0.00236953   -0.00729219   -0.25202033
     atom    9 type  2   force =     0.00219610   -0.00949770    0.27844382
     atom   10 type  1   force =     0.00524478   -0.00230953    0.01581783
     atom   11 type  2   force =     0.01560346    0.00667516   -0.26162933
     atom   12 type  2   force =    -0.01250764   -0.01793550    0.26454633
     atom   13 type  1   force =    -0.02043533    0.01647208    0.00185583
     atom   14 type  2   force =     0.00265921   -0.01159485   -0.25992519
     atom   15 type  2   force =    -0.01056696   -0.00431612    0.26110269
     atom   16 type  1   force =    -0.00384700    0.03387971   -0.02955859
     atom   17 type  2   force =     0.00110763   -0.02801696   -0.24965545
     atom   18 type  2   force =    -0.00342696    0.00018074    0.27031758
     atom   19 type  1   force =     0.01271362    0.00186817   -0.01269098
     atom   20 type  2   force =     0.00006479   -0.02110377    0.26677723
     atom   21 type  1   force =     0.00045488    0.02645269    0.00736942
     atom   22 type  2   force =    -0.00314785    0.00274492   -0.25987683
     atom   23 type  2   force =     0.00891827   -0.01460558    0.26809340
     atom   24 type  1   force =     0.00846424    0.01688659    0.00569756
     atom   25 type  2   force =    -0.01506147   -0.00634584   -0.25950026
     atom   26 type  2   force =    -0.00360845   -0.01309745    0.25868086
     atom   27 type  1   force =    -0.00126140    0.00569578    0.01274770
     atom   28 type  2   force =    -0.00499025   -0.02821338   -0.27483682
     atom   29 type  2   force =     0.00648919    0.00157222    0.26449019
     atom   30 type  1   force =     0.00505143    0.03877376    0.00791979
     atom   31 type  2   force =    -0.00885395    0.00284255   -0.25129863
     atom   32 type  2   force =    -0.00687526   -0.01263631    0.27600266
     atom   33 type  1   force =    -0.00022183    0.00178888    0.01273305
     atom   34 type  2   force =    -0.00431364    0.11420721   -0.18620945
     atom   35 type  2   force =    -0.00254762   -0.01027437    0.26886534
     atom   36 type  3   force =    -0.78341832    0.42244274   -0.72395794
     The ionic contribution  to forces
     atom    1 type  1   force =    -0.77105649    1.20007867    3.77365971
     atom    2 type  2   force =    -5.20399766    3.31971782   35.92258362
     atom    3 type  2   force =    -0.38535383    0.18074749  -37.22703152
     atom    4 type  1   force =    -0.19326171    1.16683980   -0.55271958
     atom    5 type  2   force =    -1.26676621    1.94354172   38.50078282
     atom    6 type  2   force =     0.25046819   -0.34299158  -38.59295055
     atom    7 type  1   force =    -3.03780697   -3.42975117    1.37876288
     atom    8 type  2   force =    -1.16700804   -0.33580049   37.11274973
     atom    9 type  2   force =     0.28374930   -0.13443791  -38.55737638
     atom   10 type  1   force =    -3.08098621   -1.98329734    1.06688114
     atom   11 type  2   force =    -1.41720497   -2.33294559   38.69246887
     atom   12 type  2   force =     0.27184597    0.51476058  -38.57930515
     atom   13 type  1   force =     1.32310911    1.72944812    1.20486875
     atom   14 type  2   force =    -0.10282816    0.19946785   38.17721678
     atom   15 type  2   force =     0.11122343    0.01100634  -37.47429530
     atom   16 type  1   force =    -0.07392284    4.22884730   -0.46510160
     atom   17 type  2   force =     1.05037623    1.88057566   37.69056949
     atom   18 type  2   force =    -0.08908616   -0.51027619  -39.10543805
     atom   19 type  1   force =     3.04595329   -3.00181663   -0.46974648
     atom   20 type  2   force =     0.21773823   -0.25742631  -38.95252338
     atom   21 type  1   force =    -0.18266639   -0.33419438   -0.33894374
     atom   22 type  2   force =     1.04435914   -2.24814466   38.05746698
     atom   23 type  2   force =     0.04288660    0.51578551  -38.95753871
     atom   24 type  1   force =    -0.12376945    3.76360014    1.51987997
     atom   25 type  2   force =     3.83648704    1.69501951   37.49506008
     atom   26 type  2   force =    -0.04087104    0.20588047  -38.33166022
     atom   27 type  1   force =     0.35205383    0.91835927   -3.42898289
     atom   28 type  2   force =     0.13411194    2.04261105   37.77991822
     atom   29 type  2   force =    -0.24824023   -0.18225068  -37.95637529
     atom   30 type  1   force =    -0.24231727   -2.11743495   -1.68041713
     atom   31 type  2   force =     1.43410487   -0.35855919   37.06682378
     atom   32 type  2   force =    -0.41356880   -0.09573879  -39.17374708
     atom   33 type  1   force =     2.76594462   -2.02383896   -1.51829965
     atom   34 type  2   force =     0.87107653   -5.42694323   37.24291705
     atom   35 type  2   force =    -0.26123683    0.18009640  -38.81595516
     atom   36 type  3   force =     1.26646094   -0.58053562   47.49579800
     The local contribution  to forces
     atom    1 type  1   force =     0.78035812   -1.19608096   -3.76463788
     atom    2 type  2   force =     4.95826537   -3.19982142  -35.96492813
     atom    3 type  2   force =     0.38671264   -0.17001963   36.97290408
     atom    4 type  1   force =     0.19577023   -1.18285030    0.54301968
     atom    5 type  2   force =     1.25984872   -1.91630074  -38.27633254
     atom    6 type  2   force =    -0.24534107    0.34256863   38.34489918
     atom    7 type  1   force =     3.05964256    3.41216313   -1.36862275
     atom    8 type  2   force =     1.16573183    0.33644579  -36.86184972
     atom    9 type  2   force =    -0.27525372    0.15007876   38.30909440
     atom   10 type  1   force =     3.04963726    1.97626927   -1.14469777
     atom   11 type  2   force =     1.40634654    2.32504155  -38.45764549
     atom   12 type  2   force =    -0.26481353   -0.49766374   38.34069887
     atom   13 type  1   force =    -1.28948853   -1.74126864   -1.22450218
     atom   14 type  2   force =     0.09999539   -0.18765836  -37.92806634
     atom   15 type  2   force =    -0.11195564   -0.00582664   37.22222715
     atom   16 type  1   force =     0.07393321   -4.24953701    0.49806326
     atom   17 type  2   force =    -1.04471501   -1.85430800  -37.45840667
     atom   18 type  2   force =     0.09135510    0.50615818   38.86676471
     atom   19 type  1   force =    -3.05397698    2.98910885    0.47791697
     atom   20 type  2   force =    -0.21491670    0.27392454   38.70806467
     atom   21 type  1   force =     0.17961511    0.30941153    0.33101774
     atom   22 type  2   force =    -1.04330110    2.24383023  -37.82108481
     atom   23 type  2   force =    -0.04800566   -0.50196202   38.71649373
     atom   24 type  1   force =     0.11042925   -3.76685571   -1.57278114
     atom   25 type  2   force =    -3.77367662   -1.65587743  -37.27799862
     atom   26 type  2   force =     0.03391174   -0.19433033   38.09139937
     atom   27 type  1   force =    -0.35382716   -0.92491453    3.42462859
     atom   28 type  2   force =    -0.12773358   -2.01700937  -37.52932398
     atom   29 type  2   force =     0.24728852    0.18447190   37.70951927
     atom   30 type  1   force =     0.23974048    2.07068944    1.65216572
     atom   31 type  2   force =    -1.42631971    0.35993642  -36.81990574
     atom   32 type  2   force =     0.41065336    0.11519975   38.92569262
     atom   33 type  1   force =    -2.75304869    2.01989512    1.49324497
     atom   34 type  2   force =    -0.86342181    5.28746271  -37.08665982
     atom   35 type  2   force =     0.25604469   -0.16342474   38.58430093
     atom   36 type  3   force =    -0.60316744    0.20022251  -46.69870830
     The core correction contribution to forces
     atom    1 type  1   force =     0.00000000    0.00000000    0.00000000
     atom    2 type  2   force =    -0.02023077    0.01080545    0.00136876
     atom    3 type  2   force =     0.00071161   -0.00005221   -0.02100760
     atom    4 type  1   force =     0.00000000    0.00000000    0.00000000
     atom    5 type  2   force =    -0.00058683    0.00187576    0.02024509
     atom    6 type  2   force =     0.00042469   -0.00078828   -0.02108699
     atom    7 type  1   force =     0.00000000    0.00000000    0.00000000
     atom    8 type  2   force =    -0.00005053    0.00068989    0.02032039
     atom    9 type  2   force =     0.00018277    0.00057827   -0.02105375
     atom   10 type  1   force =     0.00000000    0.00000000    0.00000000
     atom   11 type  2   force =    -0.00070151   -0.00062927    0.02074896
     atom   12 type  2   force =     0.00120091    0.00143993   -0.02091886
     atom   13 type  1   force =     0.00000000    0.00000000    0.00000000
     atom   14 type  2   force =    -0.00039291    0.00010069    0.02053928
     atom   15 type  2   force =     0.00053841    0.00031818   -0.02055906
     atom   16 type  1   force =     0.00000000    0.00000000    0.00000000
     atom   17 type  2   force =     0.00002015    0.00146161    0.02025414
     atom   18 type  2   force =     0.00001288   -0.00072942   -0.02087524
     atom   19 type  1   force =     0.00000000    0.00000000    0.00000000
     atom   20 type  2   force =     0.00012389    0.00084981   -0.02123524
     atom   21 type  1   force =     0.00000000    0.00000000    0.00000000
     atom   22 type  2   force =    -0.00004016   -0.00041431    0.02061943
     atom   23 type  2   force =    -0.00067554    0.00126722   -0.02088686
     atom   24 type  1   force =     0.00000000    0.00000000    0.00000000
     atom   25 type  2   force =     0.00023298   -0.00018387    0.02106794
     atom   26 type  2   force =    -0.00011415    0.00065931   -0.02065112
     atom   27 type  1   force =     0.00000000    0.00000000    0.00000000
     atom   28 type  2   force =     0.00039493    0.00200041    0.02098570
     atom   29 type  2   force =    -0.00054985   -0.00062269   -0.02061113
     atom   30 type  1   force =     0.00000000    0.00000000    0.00000000
     atom   31 type  2   force =     0.00052110   -0.00003133    0.02042121
     atom   32 type  2   force =     0.00000289    0.00073047   -0.02111798
     atom   33 type  1   force =     0.00000000    0.00000000    0.00000000
     atom   34 type  2   force =     0.00037026   -0.00587192    0.01688310
     atom   35 type  2   force =    -0.00007281    0.00091420   -0.02099133
     atom   36 type  3   force =     0.00889565   -0.00492586    0.00728445
     The Hubbard contrib.    to forces
     atom    1 type  1   force =     0.00000000    0.00000000    0.00000000
     atom    2 type  2   force =     0.00000000    0.00000000    0.00000000
     atom    3 type  2   force =     0.00000000    0.00000000    0.00000000
     atom    4 type  1   force =     0.00000000    0.00000000    0.00000000
     atom    5 type  2   force =     0.00000000    0.00000000    0.00000000
     atom    6 type  2   force =     0.00000000    0.00000000    0.00000000
     atom    7 type  1   force =     0.00000000    0.00000000    0.00000000
     atom    8 type  2   force =     0.00000000    0.00000000    0.00000000
     atom    9 type  2   force =     0.00000000    0.00000000    0.00000000
     atom   10 type  1   force =     0.00000000    0.00000000    0.00000000
     atom   11 type  2   force =     0.00000000    0.00000000    0.00000000
     atom   12 type  2   force =     0.00000000    0.00000000    0.00000000
     atom   13 type  1   force =     0.00000000    0.00000000    0.00000000
     atom   14 type  2   force =     0.00000000    0.00000000    0.00000000
     atom   15 type  2   force =     0.00000000    0.00000000    0.00000000
     atom   16 type  1   force =     0.00000000    0.00000000    0.00000000
     atom   17 type  2   force =     0.00000000    0.00000000    0.00000000
     atom   18 type  2   force =     0.00000000    0.00000000    0.00000000
     atom   19 type  1   force =     0.00000000    0.00000000    0.00000000
     atom   20 type  2   force =     0.00000000    0.00000000    0.00000000
     atom   21 type  1   force =     0.00000000    0.00000000    0.00000000
     atom   22 type  2   force =     0.00000000    0.00000000    0.00000000
     atom   23 type  2   force =     0.00000000    0.00000000    0.00000000
     atom   24 type  1   force =     0.00000000    0.00000000    0.00000000
     atom   25 type  2   force =     0.00000000    0.00000000    0.00000000
     atom   26 type  2   force =     0.00000000    0.00000000    0.00000000
     atom   27 type  1   force =     0.00000000    0.00000000    0.00000000
     atom   28 type  2   force =     0.00000000    0.00000000    0.00000000
     atom   29 type  2   force =     0.00000000    0.00000000    0.00000000
     atom   30 type  1   force =     0.00000000    0.00000000    0.00000000
     atom   31 type  2   force =     0.00000000    0.00000000    0.00000000
     atom   32 type  2   force =     0.00000000    0.00000000    0.00000000
     atom   33 type  1   force =     0.00000000    0.00000000    0.00000000
     atom   34 type  2   force =     0.00000000    0.00000000    0.00000000
     atom   35 type  2   force =     0.00000000    0.00000000    0.00000000
     atom   36 type  3   force =     0.00000000    0.00000000    0.00000000
     The SCF correction term to forces
     atom    1 type  1   force =     0.00006532    0.00008792    0.00079335
     atom    2 type  2   force =    -0.00007346    0.00007536    0.00003871
     atom    3 type  2   force =    -0.00003430    0.00004981    0.00036601
     atom    4 type  1   force =    -0.00016407   -0.00000639    0.00096620
     atom    5 type  2   force =    -0.00005205    0.00008621    0.00031060
     atom    6 type  2   force =     0.00005713   -0.00002839    0.00040095
     atom    7 type  1   force =    -0.00037117   -0.00038291    0.00106748
     atom    8 type  2   force =    -0.00010540   -0.00011371    0.00034795
     atom    9 type  2   force =    -0.00005829   -0.00007021    0.00041854
     atom   10 type  1   force =    -0.00007923    0.00013044    0.00064211
     atom   11 type  2   force =    -0.00011647   -0.00011830    0.00031641
     atom   12 type  2   force =    -0.00001370    0.00004246    0.00033877
     atom   13 type  1   force =     0.00001085    0.00009016    0.00091199
     atom   14 type  2   force =    -0.00001915    0.00007008    0.00028213
     atom   15 type  2   force =     0.00003059    0.00002757    0.00035677
     atom   16 type  1   force =    -0.00001623    0.00038508    0.00114560
     atom   17 type  2   force =     0.00004063    0.00009271    0.00033241
     atom   18 type  2   force =    -0.00001848   -0.00001751    0.00039127
     atom   19 type  1   force =     0.00036754   -0.00033453    0.00115794
     atom   20 type  2   force =    -0.00000235   -0.00002113    0.00054659
     atom   21 type  1   force =    -0.00003529   -0.00002638    0.00088759
     atom   22 type  2   force =     0.00009612   -0.00011535    0.00031451
     atom   23 type  2   force =     0.00004004    0.00001256    0.00036564
     atom   24 type  1   force =    -0.00007734    0.00011592    0.00065221
     atom   25 type  2   force =     0.00012840    0.00007227    0.00021282
     atom   26 type  2   force =    -0.00000140    0.00003835    0.00032314
     atom   27 type  1   force =     0.00018970    0.00002933    0.00103960
     atom   28 type  2   force =     0.00000390    0.00011456    0.00027394
     atom   29 type  2   force =    -0.00003389   -0.00003393    0.00038711
     atom   30 type  1   force =     0.00002846   -0.00019877    0.00094245
     atom   31 type  2   force =     0.00012448   -0.00008758    0.00035610
     atom   32 type  2   force =     0.00005615   -0.00005306    0.00041443
     atom   33 type  1   force =     0.00010565    0.00004706    0.00077297
     atom   34 type  2   force =     0.00002062   -0.00009295    0.00020582
     atom   35 type  2   force =    -0.00001630    0.00005582    0.00031799
     atom   36 type  3   force =     0.00002379   -0.00001670    0.00013148

     Total force =     0.222962     Total SCF correction =     0.003768

     BFGS Geometry Optimization
     Energy error            =      0.0E+00 Ry
     Gradient error          =      1.1E-01 Ry/Bohr

     number of scf cycles    =   1
     number of bfgs steps    =   0

     energy             new  =   -2246.1946513603 Ry

     new trust radius        =       0.1422674547 bohr
     new conv_thr            =       0.0000010000 Ry


ATOMIC_POSITIONS (angstrom)
Mo            6.5740328263        1.7931898978        2.8203943310
S             8.2223274883        0.7799955060        4.4582927750
S             8.1862790589        0.8161714959        1.2760650774
Mo            8.0975571054        4.4923324653        2.7161013110
S             6.4983391296        3.7213715452        4.3439041930
S             6.5538257729        3.5143160987        1.1206458358
Mo            6.4919723341        7.2113973533        2.6676226251
S             8.0822243068        6.3406584997        4.2528151597
S             8.0866418521        6.3082219763        1.0889135039
Mo            8.1467639270        9.8973081818        2.8110024256
S             6.4972462332        8.9418809079        4.3800769736
S             6.6156786278        9.0490518478        1.1427528942
Mo            3.4286432729        1.7494650464        2.7675554965
S             4.9748561308        0.8171451512        4.3558587769
S             5.0521561307        0.8469020510        1.2207579602
Mo            4.9777183680        4.5203616152        2.6353008254
S             3.4314562845        3.6714964955        4.2813560309
S             3.4373053548        3.5457499125        1.0642666654
Mo            3.4565385714        7.2104114303        2.6289066959
S             4.9848264165        6.3249336419        1.0381254421
Mo            5.0108718246        9.9024697195        2.7435853505
S             3.4698823824        8.9426404197        4.3242454596
S             3.4101038628        9.0652533380        1.0995315684
Mo            0.2934698528        1.7547840938        2.8248199942
S             1.8759216385        0.8099899707        4.3870223082
S             1.8551472136        0.8539762867        1.2084004192
Mo            1.8591863150        4.4952274561        2.6651983336
S             0.2731599922        3.6541359591        4.3360148231
S             0.2338531461        3.5289091501        1.1706566177
Mo            0.2724772716        7.2123224300        2.6914453502
S             1.9020148339        6.3149689097        4.2311301129
S             1.8570889724        6.3143137271        1.0484022147
Mo            1.8511099536        9.9390236931        2.7668441888
S             0.2978883037        9.0734672836        4.4070717290
S             0.2726290789        9.0474243137        1.1591614172
O            -0.0588468224        0.0196785398        5.3860949857



     Writing config-only to output data dir ./MoS2-V-O.save/
     NEW-OLD atomic charge density approx. for the potential

     negative rho (up, down):  1.635E-04 0.000E+00

     total cpu time spent up to now is      109.5 secs

     Self-consistent Calculation

     iteration #  1     ecut=    80.00 Ry     beta= 0.70
     Davidson diagonalization with overlap
     ethr =  1.00E-06,  avg # of iterations = 11.0

     negative rho (up, down):  1.796E-04 0.000E+00

     total cpu time spent up to now is      124.7 secs

     total energy              =   -2246.23705068 Ry
     estimated scf accuracy    <       0.01908084 Ry

     iteration #  2     ecut=    80.00 Ry     beta= 0.70
     Davidson diagonalization with overlap
     ethr =  6.12E-06,  avg # of iterations =  5.0

     negative rho (up, down):  2.622E-04 0.000E+00

     total cpu time spent up to now is      135.3 secs

     total energy              =   -2246.24008448 Ry
     estimated scf accuracy    <       0.00714375 Ry

     iteration #  3     ecut=    80.00 Ry     beta= 0.70
     Davidson diagonalization with overlap
     ethr =  2.29E-06,  avg # of iterations =  3.0

     negative rho (up, down):  3.206E-04 0.000E+00

     total cpu time spent up to now is      147.1 secs

     total energy              =   -2246.24081109 Ry
     estimated scf accuracy    <       0.00039705 Ry

     iteration #  4     ecut=    80.00 Ry     beta= 0.70
     Davidson diagonalization with overlap
     ethr =  1.27E-07,  avg # of iterations =  5.0

     negative rho (up, down):  3.403E-04 0.000E+00

     total cpu time spent up to now is      161.3 secs

     total energy              =   -2246.24086669 Ry
     estimated scf accuracy    <       0.00006749 Ry

     iteration #  5     ecut=    80.00 Ry     beta= 0.70
     Davidson diagonalization with overlap
     ethr =  2.16E-08,  avg # of iterations =  4.0

     negative rho (up, down):  3.570E-04 0.000E+00

     total cpu time spent up to now is      176.1 secs

     total energy              =   -2246.24087352 Ry
     estimated scf accuracy    <       0.00001392 Ry

     iteration #  6     ecut=    80.00 Ry     beta= 0.70
     Davidson diagonalization with overlap
     ethr =  4.46E-09,  avg # of iterations =  5.0

     negative rho (up, down):  3.560E-04 0.000E+00

     total cpu time spent up to now is      190.6 secs

     total energy              =   -2246.24087687 Ry
     estimated scf accuracy    <       0.00000193 Ry

     iteration #  7     ecut=    80.00 Ry     beta= 0.70
     Davidson diagonalization with overlap
     ethr =  6.18E-10,  avg # of iterations =  2.0

     negative rho (up, down):  2.100E-04 0.000E+00

     total cpu time spent up to now is      194.3 secs

     End of self-consistent calculation

          k = 0.0000 0.0000 0.0000 (105382 PWs)   bands (ev):

   -63.0402 -62.9561 -62.9523 -62.9310 -62.8902 -62.8687 -62.8650 -62.8574
   -62.8382 -62.8291 -62.8132 -62.7138 -37.3372 -37.2970 -37.2550 -37.2339
   -37.1977 -37.1832 -37.1792 -37.1577 -37.1400 -37.1358 -37.1269 -37.1161
   -37.1030 -37.0969 -37.0641 -37.0550 -37.0505 -37.0472 -37.0396 -37.0296
   -37.0237 -37.0152 -37.0103 -37.0042 -36.9928 -36.9842 -36.9662 -36.9548
   -36.9414 -36.8987 -36.8965 -36.8764 -36.8667 -36.8449 -36.8106 -36.7618
   -21.1926 -15.9853 -15.2883 -15.1807 -15.0708 -14.9242 -14.8077 -14.7379
   -14.5579 -14.5290 -14.4905 -14.4468 -14.4295 -14.3700 -14.2884 -14.2339
   -14.2009 -14.1770 -14.1048 -14.0393 -13.9355 -13.8959 -13.8784 -13.7909
    -8.1721  -7.7873  -7.6120  -7.4813  -7.4064  -7.3574  -7.3234  -7.2616
    -7.2229  -7.1267  -6.8856  -6.8794  -6.8309  -6.7301  -6.6953  -6.6216
    -6.5478  -6.4600  -6.4384  -6.3343  -6.1367  -6.0771  -5.9602  -5.9226
    -5.9034  -5.8438  -5.8091  -5.7546  -5.7384  -5.7150  -5.6643  -5.6259
    -5.5667  -5.5069  -5.4291  -5.3656  -5.3339  -5.1660  -5.0827  -5.0663
    -5.0298  -5.0000  -4.9095  -4.7270  -4.7091  -4.5929  -4.4415  -4.4101
    -4.3516  -4.2998  -4.2126  -4.1552  -3.9969  -3.9610  -3.8731  -3.8476
    -3.8167  -3.7692  -3.7023  -3.6564  -3.5998  -3.5957  -3.5428  -3.5035
    -3.4597  -3.4412  -3.2804  -3.2504  -3.0431  -2.9963  -2.9194  -2.8615
    -2.8483  -2.8147  -2.7935  -2.7381  -2.7130  -2.6559  -2.4285  -2.3332
    -2.0914  -2.0558  -1.9837  -1.8480  -1.3143  -0.8340  -0.7745  -0.2277
    -0.1923  -0.1344  -0.0793   0.0587   0.0863   0.1538   0.1572   0.2178
     0.2391   0.2919   0.3639   0.4628   0.4871   0.5075   0.5318   0.5590
     0.6406   0.6739   0.6962   0.7127   0.7988   0.8111   0.8742   0.9086
     0.9529   0.9876   1.2151

     the Fermi energy is    -1.5811 ev

!    total energy              =   -2246.24087727 Ry
     estimated scf accuracy    <       0.00000053 Ry
     smearing contrib. (-TS)   =      -0.00024197 Ry
     internal energy E=F+TS    =   -2246.24063530 Ry

     The total energy is F=E-TS. E is the sum of the following terms:
     one-electron contribution =  -18458.51606875 Ry
     hartree contribution      =    9217.47146441 Ry
     xc contribution           =    -392.05642450 Ry
     ewald contribution        =    7396.72706336 Ry
     one-center paw contrib.   =      -9.86666981 Ry

     convergence has been achieved in   7 iterations

     negative rho (up, down):  2.100E-04 0.000E+00

     Forces acting on atoms (cartesian axes, Ry/au):

     atom    1 type  1   force =     0.00057884    0.00105242    0.00712436
     atom    2 type  2   force =     0.08178930   -0.05527958    0.01976629
     atom    3 type  2   force =    -0.01508295    0.01026885   -0.00976486
     atom    4 type  1   force =     0.00369642   -0.00284808    0.00152242
     atom    5 type  2   force =    -0.00230555   -0.00087134   -0.00524569
     atom    6 type  2   force =    -0.00185419    0.00487560   -0.00160521
     atom    7 type  1   force =     0.00214701   -0.00946142    0.00001959
     atom    8 type  2   force =     0.00246332   -0.00561792    0.01234373
     atom    9 type  2   force =     0.00926619    0.00428202    0.00504043
     atom   10 type  1   force =    -0.00842843   -0.00311100   -0.02569532
     atom   11 type  2   force =     0.00459142   -0.00252826   -0.00982498
     atom   12 type  2   force =    -0.01005302   -0.00302195   -0.00394218
     atom   13 type  1   force =     0.00792711    0.00423133   -0.00674808
     atom   14 type  2   force =     0.00269213    0.00221200    0.00319201
     atom   15 type  2   force =    -0.00543619    0.00076439   -0.01076198
     atom   16 type  1   force =    -0.00021872    0.00991715    0.00375865
     atom   17 type  2   force =     0.00566570    0.00012362    0.00250107
     atom   18 type  2   force =    -0.00093749   -0.00155312    0.00803493
     atom   19 type  1   force =     0.00362662   -0.00920199    0.00047725
     atom   20 type  2   force =     0.00231870   -0.00370067   -0.00244252
     atom   21 type  1   force =    -0.00178352    0.00158538    0.00303372
     atom   22 type  2   force =    -0.00222936   -0.00217087   -0.00383305
     atom   23 type  2   force =     0.00321291   -0.00086436    0.00296704
     atom   24 type  1   force =     0.00056154    0.00600636   -0.02274012
     atom   25 type  2   force =     0.03114047    0.02561190   -0.02246886
     atom   26 type  2   force =    -0.00617041   -0.00137497   -0.00777908
     atom   27 type  1   force =    -0.00110939    0.00064789    0.00714566
     atom   28 type  2   force =     0.00022998   -0.00276051   -0.00436827
     atom   29 type  2   force =     0.00441610    0.00709388   -0.00756364
     atom   30 type  1   force =    -0.00139335   -0.00244951   -0.00268205
     atom   31 type  2   force =     0.00004042    0.00229997    0.01163832
     atom   32 type  2   force =    -0.00536290    0.00479221    0.00466520
     atom   33 type  1   force =     0.00628956    0.00066722   -0.00077933
     atom   34 type  2   force =     0.00061563   -0.03914414   -0.02967597
     atom   35 type  2   force =    -0.00408227    0.00558037    0.00547086
     atom   36 type  3   force =    -0.10682163    0.05394714    0.07921968
     The non-local contrib.  to forces
     atom    1 type  1   force =    -0.01447383    0.00728152   -0.02260143
     atom    2 type  2   force =     0.34640756   -0.19273611    0.12410384
     atom    3 type  2   force =    -0.01525474   -0.00270290    0.26861511
     atom    4 type  1   force =     0.00328790    0.01162048    0.00440449
     atom    5 type  2   force =     0.00558122   -0.02991707   -0.24936530
     atom    6 type  2   force =    -0.00701306    0.00565507    0.26830074
     atom    7 type  1   force =    -0.01496188    0.00594973   -0.02216303
     atom    8 type  2   force =     0.00295530   -0.00699637   -0.25822039
     atom    9 type  2   force =     0.00031602   -0.01159354    0.27555426
     atom   10 type  1   force =     0.00237359    0.00147614    0.01827780
     atom   11 type  2   force =     0.01341912    0.00542337   -0.26330352
     atom   12 type  2   force =    -0.01727131   -0.02092549    0.25883937
     atom   13 type  1   force =    -0.01455039    0.01990054    0.00011694
     atom   14 type  2   force =     0.00536421   -0.01038921   -0.26333886
     atom   15 type  2   force =    -0.00612873   -0.00319651    0.26153197
     atom   16 type  1   force =    -0.00525509    0.03659797   -0.03086248
     atom   17 type  2   force =     0.00067069   -0.02739957   -0.25054106
     atom   18 type  2   force =    -0.00351924    0.00127546    0.26975858
     atom   19 type  1   force =     0.01190442    0.00400638   -0.01470470
     atom   20 type  2   force =    -0.00028100   -0.02043758    0.26388740
     atom   21 type  1   force =    -0.00044578    0.02602377    0.00525825
     atom   22 type  2   force =    -0.00155012    0.00221282   -0.26118009
     atom   23 type  2   force =     0.00885698   -0.01594291    0.26695932
     atom   24 type  1   force =    -0.00013535    0.01685978    0.00842466
     atom   25 type  2   force =     0.00399163    0.00089695   -0.26560786
     atom   26 type  2   force =     0.00033318   -0.01140779    0.25658605
     atom   27 type  1   force =    -0.00281083    0.00616347    0.01173445
     atom   28 type  2   force =    -0.00534924   -0.02806905   -0.27546428
     atom   29 type  2   force =     0.00494974    0.00417254    0.26107056
     atom   30 type  1   force =     0.00755464    0.03823721    0.00803593
     atom   31 type  2   force =    -0.00813570    0.00149145   -0.25595744
     atom   32 type  2   force =    -0.00125686   -0.01381154    0.27381817
     atom   33 type  1   force =     0.00043454    0.00026702    0.00893711
     atom   34 type  2   force =    -0.00666430    0.06559261   -0.22781378
     atom   35 type  2   force =    -0.00182437   -0.01167887    0.26445170
     atom   36 type  3   force =    -1.04008602    0.62661252   -0.90507810
     The ionic contribution  to forces
     atom    1 type  1   force =    -0.55635629    0.90961282    4.12986305
     atom    2 type  2   force =    -5.57439971    3.57683403   35.36406197
     atom    3 type  2   force =    -0.41053952    0.20182555  -37.17141019
     atom    4 type  1   force =    -0.25545432    1.16852796   -0.43430642
     atom    5 type  2   force =    -1.21896232    1.87535465   38.50508289
     atom    6 type  2   force =     0.20565636   -0.32005139  -38.57417758
     atom    7 type  1   force =    -3.00490539   -3.29535740    1.41970683
     atom    8 type  2   force =    -1.13598204   -0.27357969   37.23750882
     atom    9 type  2   force =     0.24662127   -0.17819416  -38.53160064
     atom   10 type  1   force =    -2.60850665   -1.62142036    0.16825159
     atom   11 type  2   force =    -1.34233973   -2.28772137   38.65179508
     atom   12 type  2   force =     0.11412823    0.44013524  -38.60697889
     atom   13 type  1   force =     1.24987713    1.62392883    0.92793316
     atom   14 type  2   force =    -0.02940897    0.18858096   38.23629199
     atom   15 type  2   force =     0.16832089   -0.02195636  -37.50021169
     atom   16 type  1   force =    -0.02215255    4.09894491   -0.22881141
     atom   17 type  2   force =     1.02774401    1.81442209   37.74877278
     atom   18 type  2   force =    -0.08957292   -0.44205907  -39.04783613
     atom   19 type  1   force =     2.95562853   -2.82933083   -0.39594372
     atom   20 type  2   force =     0.19565128   -0.24426567  -39.00772442
     atom   21 type  1   force =    -0.17879991   -0.28040447   -0.04891749
     atom   22 type  2   force =     0.98055625   -2.21089224   38.07863049
     atom   23 type  2   force =     0.04470350    0.47789259  -38.90480613
     atom   24 type  1   force =    -0.17153130    3.21467316    0.91138853
     atom   25 type  2   force =     3.34957285    1.46102525   37.42323482
     atom   26 type  2   force =     0.00196909    0.14097010  -38.27525666
     atom   27 type  1   force =     0.41293802    0.94197074   -3.02052393
     atom   28 type  2   force =     0.10717956    1.89339735   37.81827827
     atom   29 type  2   force =    -0.22643750   -0.08254287  -38.02744347
     atom   30 type  1   force =    -0.22165557   -1.94380393   -1.84786489
     atom   31 type  2   force =     1.40240936   -0.28664169   37.18363782
     atom   32 type  2   force =    -0.33924031   -0.12970627  -39.15132325
     atom   33 type  1   force =     2.37562878   -1.83157340   -1.21961423
     atom   34 type  2   force =     0.83176798   -4.95338517   37.12583812
     atom   35 type  2   force =    -0.13439991    0.19653938  -38.68151312
     atom   36 type  3   force =     1.85029181   -0.99174927   47.74598806
     The local contribution  to forces
     atom    1 type  1   force =     0.57157842   -0.91596077   -4.09920674
     atom    2 type  2   force =     5.33017648   -3.45085891  -35.46659266
     atom    3 type  2   force =     0.41002847   -0.18897011   36.91422472
     atom    4 type  1   force =     0.25568296   -1.18270416    0.43215553
     atom    5 type  2   force =     1.21176145   -1.84809892  -38.28089370
     atom    6 type  2   force =    -0.20104140    0.32012563   38.32553892
     atom    7 type  1   force =     3.02211615    3.27990600   -1.39675741
     atom    8 type  2   force =     1.13550454    0.27428555  -36.98712129
     atom    9 type  2   force =    -0.23797594    0.19339869   38.28214561
     atom   10 type  1   force =     2.59764285    1.61692040   -0.21110883
     atom   11 type  2   force =     1.33413665    2.28033336  -38.41875434
     atom   12 type  2   force =    -0.10824246   -0.42378639   38.36506474
     atom   13 type  1   force =    -1.22732531   -1.63955618   -0.93414027
     atom   14 type  2   force =     0.02737895   -0.17608885  -37.99014205
     atom   15 type  2   force =    -0.16799903    0.02565315   37.24863945
     atom   16 type  1   force =     0.02730819   -4.12551284    0.26398036
     atom   17 type  2   force =    -1.02280278   -1.78822509  -37.51569139
     atom   18 type  2   force =     0.09220307    0.44004803   38.80711435
     atom   19 type  1   force =    -2.96386188    2.81615346    0.41171459
     atom   20 type  2   force =    -0.19316670    0.26019429   38.76257878
     atom   21 type  1   force =     0.17758405    0.25574281    0.04740142
     atom   22 type  2   force =    -0.98107986    2.20687476  -37.84163685
     atom   23 type  2   force =    -0.04965999   -0.46418846   38.66173959
     atom   24 type  1   force =     0.17200154   -3.22574361   -0.94137512
     atom   25 type  2   force =    -3.32183048   -1.43582679  -37.20107274
     atom   26 type  2   force =    -0.00822172   -0.13157505   38.03158694
     atom   27 type  1   force =    -0.41118997   -0.94726389    3.01661177
     atom   28 type  2   force =    -0.10203718   -1.87003318  -37.56780011
     atom   29 type  2   force =     0.22633038    0.08621230   37.77944411
     atom   30 type  1   force =     0.21261869    1.90299967    1.83792838
     atom   31 type  2   force =    -1.39472191    0.28737248  -36.93627150
     atom   32 type  2   force =     0.33538396    0.14757984   38.90327236
     atom   33 type  1   force =    -2.36990661    1.83191751    1.21064063
     atom   34 type  2   force =    -0.82494324    4.85179644  -36.94617537
     atom   35 type  2   force =     0.13218028   -0.18029381   38.44346246
     atom   36 type  3   force =    -0.92900992    0.42632474  -46.77023484
     The core correction contribution to forces
     atom    1 type  1   force =     0.00000000    0.00000000    0.00000000
     atom    2 type  2   force =    -0.02028444    0.01136832   -0.00138036
     atom    3 type  2   force =     0.00066873    0.00005244   -0.02096295
     atom    4 type  1   force =     0.00000000    0.00000000    0.00000000
     atom    5 type  2   force =    -0.00062653    0.00184216    0.02021944
     atom    6 type  2   force =     0.00049908   -0.00070689   -0.02113218
     atom    7 type  1   force =     0.00000000    0.00000000    0.00000000
     atom    8 type  2   force =    -0.00002501    0.00073024    0.02053802
     atom    9 type  2   force =     0.00024934    0.00063802   -0.02099767
     atom   10 type  1   force =     0.00000000    0.00000000    0.00000000
     atom   11 type  2   force =    -0.00050799   -0.00056958    0.02080551
     atom   12 type  2   force =     0.00124861    0.00147779   -0.02078034
     atom   13 type  1   force =     0.00000000    0.00000000    0.00000000
     atom   14 type  2   force =    -0.00052144    0.00004081    0.02067744
     atom   15 type  2   force =     0.00039477    0.00019825   -0.02060343
     atom   16 type  1   force =     0.00000000    0.00000000    0.00000000
     atom   17 type  2   force =     0.00003215    0.00139277    0.02027966
     atom   18 type  2   force =    -0.00000290   -0.00068653   -0.02089664
     atom   19 type  1   force =     0.00000000    0.00000000    0.00000000
     atom   20 type  2   force =     0.00013272    0.00083440   -0.02117288
     atom   21 type  1   force =     0.00000000    0.00000000    0.00000000
     atom   22 type  2   force =    -0.00014109   -0.00043031    0.02068231
     atom   23 type  2   force =    -0.00063924    0.00128140   -0.02087447
     atom   24 type  1   force =     0.00000000    0.00000000    0.00000000
     atom   25 type  2   force =    -0.00081122   -0.00052519    0.02137393
     atom   26 type  2   force =    -0.00025071    0.00054260   -0.02056078
     atom   27 type  1   force =     0.00000000    0.00000000    0.00000000
     atom   28 type  2   force =     0.00039602    0.00189551    0.02104746
     atom   29 type  2   force =    -0.00044133   -0.00060708   -0.02055047
     atom   30 type  1   force =     0.00000000    0.00000000    0.00000000
     atom   31 type  2   force =     0.00044143    0.00011534    0.02058775
     atom   32 type  2   force =    -0.00022276    0.00073538   -0.02107068
     atom   33 type  1   force =     0.00000000    0.00000000    0.00000000
     atom   34 type  2   force =     0.00031768   -0.00307267    0.01899650
     atom   35 type  2   force =    -0.00000225    0.00096770   -0.02084323
     atom   36 type  3   force =     0.01167951   -0.00718524    0.00936708
     The Hubbard contrib.    to forces
     atom    1 type  1   force =     0.00000000    0.00000000    0.00000000
     atom    2 type  2   force =     0.00000000    0.00000000    0.00000000
     atom    3 type  2   force =     0.00000000    0.00000000    0.00000000
     atom    4 type  1   force =     0.00000000    0.00000000    0.00000000
     atom    5 type  2   force =     0.00000000    0.00000000    0.00000000
     atom    6 type  2   force =     0.00000000    0.00000000    0.00000000
     atom    7 type  1   force =     0.00000000    0.00000000    0.00000000
     atom    8 type  2   force =     0.00000000    0.00000000    0.00000000
     atom    9 type  2   force =     0.00000000    0.00000000    0.00000000
     atom   10 type  1   force =     0.00000000    0.00000000    0.00000000
     atom   11 type  2   force =     0.00000000    0.00000000    0.00000000
     atom   12 type  2   force =     0.00000000    0.00000000    0.00000000
     atom   13 type  1   force =     0.00000000    0.00000000    0.00000000
     atom   14 type  2   force =     0.00000000    0.00000000    0.00000000
     atom   15 type  2   force =     0.00000000    0.00000000    0.00000000
     atom   16 type  1   force =     0.00000000    0.00000000    0.00000000
     atom   17 type  2   force =     0.00000000    0.00000000    0.00000000
     atom   18 type  2   force =     0.00000000    0.00000000    0.00000000
     atom   19 type  1   force =     0.00000000    0.00000000    0.00000000
     atom   20 type  2   force =     0.00000000    0.00000000    0.00000000
     atom   21 type  1   force =     0.00000000    0.00000000    0.00000000
     atom   22 type  2   force =     0.00000000    0.00000000    0.00000000
     atom   23 type  2   force =     0.00000000    0.00000000    0.00000000
     atom   24 type  1   force =     0.00000000    0.00000000    0.00000000
     atom   25 type  2   force =     0.00000000    0.00000000    0.00000000
     atom   26 type  2   force =     0.00000000    0.00000000    0.00000000
     atom   27 type  1   force =     0.00000000    0.00000000    0.00000000
     atom   28 type  2   force =     0.00000000    0.00000000    0.00000000
     atom   29 type  2   force =     0.00000000    0.00000000    0.00000000
     atom   30 type  1   force =     0.00000000    0.00000000    0.00000000
     atom   31 type  2   force =     0.00000000    0.00000000    0.00000000
     atom   32 type  2   force =     0.00000000    0.00000000    0.00000000
     atom   33 type  1   force =     0.00000000    0.00000000    0.00000000
     atom   34 type  2   force =     0.00000000    0.00000000    0.00000000
     atom   35 type  2   force =     0.00000000    0.00000000    0.00000000
     atom   36 type  3   force =     0.00000000    0.00000000    0.00000000
     The SCF correction term to forces
     atom    1 type  1   force =    -0.00017209    0.00011884   -0.00091807
     atom    2 type  2   force =    -0.00011321    0.00011308   -0.00041405
     atom    3 type  2   force =     0.00001149    0.00006387   -0.00021910
     atom    4 type  1   force =     0.00017725   -0.00029236   -0.00071872
     atom    5 type  2   force =    -0.00006199   -0.00005217   -0.00027656
     atom    6 type  2   force =     0.00004221   -0.00014683   -0.00012266
     atom    7 type  1   force =    -0.00010450    0.00004024   -0.00075435
     atom    8 type  2   force =     0.00000791   -0.00005766   -0.00034898
     atom    9 type  2   force =     0.00005288    0.00003300   -0.00004868
     atom   10 type  1   force =     0.00005915   -0.00008720   -0.00110342
     atom   11 type  2   force =    -0.00011926    0.00000594   -0.00035527
     atom   12 type  2   force =     0.00008128    0.00007689   -0.00007460
     atom   13 type  1   force =    -0.00007695   -0.00004187   -0.00064546
     atom   14 type  2   force =    -0.00012323    0.00006828   -0.00028406
     atom   15 type  2   force =    -0.00002671    0.00006585   -0.00010584
     atom   16 type  1   force =    -0.00012190   -0.00011290   -0.00053537
     atom   17 type  2   force =     0.00001899   -0.00006659   -0.00030648
     atom   18 type  2   force =    -0.00004813   -0.00013101   -0.00009277
     atom   19 type  1   force =    -0.00004708   -0.00003101   -0.00057647
     atom   20 type  2   force =    -0.00002022   -0.00002610    0.00000106
     atom   21 type  1   force =    -0.00012451    0.00022326   -0.00069601
     atom   22 type  2   force =    -0.00001716    0.00006410   -0.00031646
     atom   23 type  2   force =    -0.00005097    0.00009301   -0.00003882
     atom   24 type  1   force =     0.00022402    0.00021702   -0.00116574
     atom   25 type  2   force =     0.00021507    0.00004168   -0.00038456
     atom   26 type  2   force =    -0.00000287    0.00009516   -0.00012219
     atom   27 type  1   force =    -0.00004923   -0.00022243   -0.00066417
     atom   28 type  2   force =     0.00003820    0.00004886   -0.00041715
     atom   29 type  2   force =     0.00001218   -0.00014101   -0.00007192
     atom   30 type  1   force =     0.00008628    0.00011754   -0.00076902
     atom   31 type  2   force =     0.00004461   -0.00003761   -0.00034587
     atom   32 type  2   force =    -0.00002955   -0.00000520   -0.00001895
     atom   33 type  1   force =     0.00013022    0.00005608   -0.00073040
     atom   34 type  2   force =     0.00013489   -0.00007536   -0.00050899
     atom   35 type  2   force =    -0.00003864    0.00004596   -0.00007448
     atom   36 type  3   force =     0.00030036   -0.00005561   -0.00081007

     Total force =     0.197871     Total SCF correction =     0.003268
     Energy error            =      4.6E-02 Ry
     Gradient error          =      1.1E-01 Ry/Bohr

     number of scf cycles    =   2
     number of bfgs steps    =   1

     energy             old  =   -2246.1946513603 Ry
     energy             new  =   -2246.2408772696 Ry

     CASE: energy            _new < energy            _old


     WARNING: bfgs curvature condition failed, Theta= 0.957
     new trust radius        =       0.1564942002 bohr
     new conv_thr            =       0.0000001068 Ry


ATOMIC_POSITIONS (angstrom)
Mo            6.5740472216        1.7956865327        2.8217819238
S             8.2706626194        0.7477660655        4.4749492452
S             8.1779355019        0.8219283197        1.2717122635
Mo            8.0998716730        4.4902053659        2.7159980626
S             6.4968655417        3.7206401075        4.3408703243
S             6.5533202123        3.5171423964        1.1197991759
Mo            6.4935511361        7.2051169673        2.6659642704
S             8.0833371662        6.3373075611        4.2614656824
S             8.0923351924        6.3111946926        1.0927673965
Mo            8.1382052516        9.8942436105        2.7887323763
S             6.4997711590        8.9405291319        4.3752287484
S             6.6110423748        9.0480578363        1.1423946629
Mo            3.4343293715        1.7520239366        2.7615540538
S             4.9757393475        0.8180499020        4.3591307844
S             5.0479095284        0.8474372665        1.2144378100
Mo            4.9768401542        4.5268681351        2.6376470973
S             3.4349822083        3.6715022741        4.2829323739
S             3.4367152366        3.5442018370        1.0695753265
Mo            3.4589374335        7.2046682036        2.6283928688
S             4.9863135470        6.3227722188        1.0375551093
Mo            5.0096625245        9.9034009346        2.7447889474
S             3.4686304361        8.9413965659        4.3222897909
S             3.4119567519        9.0650338700        1.1019917792
Mo            0.2926550749        1.7598674939        2.8067141945
S             1.8974868767        0.8263026097        4.3742694920
S             1.8506364512        0.8532877128        1.2051079364
Mo            1.8581843328        4.4952974173        2.6698180806
S             0.2736155511        3.6530035953        4.3337722034
S             0.2365250175        3.5322038083        1.1673034679
Mo            0.2724754711        7.2097189825        2.6864385578
S             1.9019425941        6.3166748957        4.2388657768
S             1.8530762145        6.3176527120        1.0516441985
Mo            1.8560991605        9.9388365998        2.7641686401
S             0.2988899717        9.0524064684        4.3933462752
S             0.2694875092        9.0510293986        1.1646258864
O            -0.1216888028        0.0474909847        5.4323050885



     Writing config-only to output data dir ./MoS2-V-O.save/
     NEW-OLD atomic charge density approx. for the potential

     negative rho (up, down):  1.587E-04 0.000E+00

     total cpu time spent up to now is      201.6 secs

     Self-consistent Calculation

     iteration #  1     ecut=    80.00 Ry     beta= 0.70
     Davidson diagonalization with overlap
     ethr =  1.00E-06,  avg # of iterations = 10.0

     negative rho (up, down):  1.316E-04 0.000E+00

     total cpu time spent up to now is      214.7 secs

     total energy              =   -2246.27660512 Ry
     estimated scf accuracy    <       0.01447223 Ry

     iteration #  2     ecut=    80.00 Ry     beta= 0.70
     Davidson diagonalization with overlap
     ethr =  4.64E-06,  avg # of iterations =  5.0

     negative rho (up, down):  1.606E-04 0.000E+00

     total cpu time spent up to now is      225.3 secs

     total energy              =   -2246.27954526 Ry
     estimated scf accuracy    <       0.00652201 Ry

     iteration #  3     ecut=    80.00 Ry     beta= 0.70
     Davidson diagonalization with overlap
     ethr =  2.09E-06,  avg # of iterations =  4.0

     negative rho (up, down):  1.646E-04 0.000E+00

     total cpu time spent up to now is      241.8 secs

     total energy              =   -2246.28008936 Ry
     estimated scf accuracy    <       0.00038028 Ry

     iteration #  4     ecut=    80.00 Ry     beta= 0.70
     Davidson diagonalization with overlap
     ethr =  1.22E-07,  avg # of iterations =  5.0

     negative rho (up, down):  1.757E-04 0.000E+00

     total cpu time spent up to now is      252.9 secs

     total energy              =   -2246.28013862 Ry
     estimated scf accuracy    <       0.00004517 Ry

     iteration #  5     ecut=    80.00 Ry     beta= 0.70
     Davidson diagonalization with overlap
     ethr =  1.45E-08,  avg # of iterations =  3.0

     negative rho (up, down):  1.919E-04 0.000E+00

     total cpu time spent up to now is      263.2 secs

     total energy              =   -2246.28014362 Ry
     estimated scf accuracy    <       0.00000712 Ry

     iteration #  6     ecut=    80.00 Ry     beta= 0.70
     Davidson diagonalization with overlap
     ethr =  2.28E-09,  avg # of iterations =  5.0

     negative rho (up, down):  1.997E-04 0.000E+00

     total cpu time spent up to now is      282.6 secs

     total energy              =   -2246.28014579 Ry
     estimated scf accuracy    <       0.00000152 Ry

     iteration #  7     ecut=    80.00 Ry     beta= 0.70
     Davidson diagonalization with overlap
     ethr =  4.88E-10,  avg # of iterations =  2.0

     negative rho (up, down):  2.116E-04 0.000E+00

     total cpu time spent up to now is      296.7 secs

     total energy              =   -2246.28014585 Ry
     estimated scf accuracy    <       0.00000034 Ry

     iteration #  8     ecut=    80.00 Ry     beta= 0.70
     Davidson diagonalization with overlap
     ethr =  1.10E-10,  avg # of iterations =  3.0

     negative rho (up, down):  2.079E-04 0.000E+00

     total cpu time spent up to now is      300.4 secs

     End of self-consistent calculation

          k = 0.0000 0.0000 0.0000 (105382 PWs)   bands (ev):

   -63.0550 -62.9599 -62.9562 -62.9333 -62.8960 -62.8796 -62.8722 -62.8660
   -62.8465 -62.8347 -62.7926 -62.7330 -37.3438 -37.3047 -37.2616 -37.2392
   -37.2037 -37.1912 -37.1819 -37.1635 -37.1471 -37.1399 -37.1293 -37.1217
   -37.1055 -37.0978 -37.0724 -37.0636 -37.0572 -37.0513 -37.0413 -37.0371
   -37.0324 -37.0199 -37.0107 -37.0082 -36.9990 -36.9739 -36.9709 -36.9653
   -36.9384 -36.9121 -36.9092 -36.8818 -36.8699 -36.8540 -36.8250 -36.7742
   -21.8007 -15.9959 -15.2793 -15.1774 -15.0553 -14.9307 -14.8144 -14.6306
   -14.5518 -14.5272 -14.4964 -14.4521 -14.4295 -14.3809 -14.2733 -14.2405
   -14.2045 -14.1862 -14.1092 -14.0172 -13.9460 -13.9104 -13.8771 -13.6762
    -8.1647  -7.8091  -7.6303  -7.4902  -7.4439  -7.3614  -7.3366  -7.2732
    -7.2268  -7.1276  -6.8933  -6.8825  -6.8500  -6.7453  -6.7132  -6.6246
    -6.5522  -6.4807  -6.4430  -6.3375  -6.1263  -6.0913  -5.9628  -5.9167
    -5.8944  -5.8432  -5.8086  -5.7657  -5.7472  -5.7232  -5.6872  -5.6345
    -5.5723  -5.5138  -5.4253  -5.3654  -5.3271  -5.1696  -5.0890  -5.0746
    -5.0197  -5.0116  -4.9171  -4.7366  -4.7222  -4.6064  -4.4672  -4.3938
    -4.3512  -4.3049  -4.2366  -4.1440  -4.0218  -3.9899  -3.8787  -3.8513
    -3.8242  -3.7720  -3.7011  -3.6523  -3.6025  -3.5789  -3.5598  -3.5147
    -3.4618  -3.4398  -3.2753  -3.2524  -3.0545  -3.0057  -2.9441  -2.8695
    -2.8386  -2.8241  -2.8048  -2.7409  -2.7213  -2.6642  -2.4664  -2.3523
    -2.2084  -2.0701  -2.0094  -1.8813  -1.2041  -0.8340  -0.7697  -0.2306
    -0.1941  -0.1422  -0.0881   0.0602   0.0981   0.1531   0.1654   0.2162
     0.2425   0.2874   0.3622   0.4579   0.4787   0.5107   0.5229   0.5610
     0.6317   0.6598   0.6926   0.7076   0.7967   0.8147   0.8760   0.9082
     0.9427   0.9892   1.2158

     the Fermi energy is    -1.5426 ev

!    total energy              =   -2246.28014597 Ry
     estimated scf accuracy    <       0.00000004 Ry
     smearing contrib. (-TS)   =      -0.00002312 Ry
     internal energy E=F+TS    =   -2246.28012285 Ry

     The total energy is F=E-TS. E is the sum of the following terms:
     one-electron contribution =  -18451.47832883 Ry
     hartree contribution      =    9213.89438316 Ry
     xc contribution           =    -392.10162965 Ry
     ewald contribution        =    7393.26789237 Ry
     one-center paw contrib.   =      -9.86243989 Ry

     convergence has been achieved in   8 iterations

     negative rho (up, down):  2.079E-04 0.000E+00

     Forces acting on atoms (cartesian axes, Ry/au):

     atom    1 type  1   force =     0.00146615   -0.00627448    0.01399145
     atom    2 type  2   force =     0.05313380   -0.03696662   -0.01734928
     atom    3 type  2   force =    -0.01525842    0.01031144   -0.01125302
     atom    4 type  1   force =     0.00302609    0.00002223    0.00326579
     atom    5 type  2   force =    -0.00158970   -0.00019161   -0.00416409
     atom    6 type  2   force =    -0.00302247    0.00479548   -0.00031708
     atom    7 type  1   force =     0.00111636   -0.00595709    0.00370332
     atom    8 type  2   force =     0.00295801   -0.00524601    0.00718667
     atom    9 type  2   force =     0.00762233    0.00205483    0.00244475
     atom   10 type  1   force =     0.00356427    0.00083762   -0.00383076
     atom   11 type  2   force =     0.00502698   -0.00257677   -0.01121444
     atom   12 type  2   force =    -0.01360248   -0.00574020   -0.00882593
     atom   13 type  1   force =     0.00432498    0.00373818   -0.00251818
     atom   14 type  2   force =     0.00509520    0.00284336   -0.00000959
     atom   15 type  2   force =    -0.00122076    0.00024316   -0.00837245
     atom   16 type  1   force =     0.00181179    0.00643158    0.00240352
     atom   17 type  2   force =     0.00467085    0.00073919    0.00229730
     atom   18 type  2   force =    -0.00066038    0.00112474    0.00592170
     atom   19 type  1   force =     0.00214438   -0.00656209    0.00207883
     atom   20 type  2   force =     0.00193359   -0.00334841   -0.00441142
     atom   21 type  1   force =    -0.00170747    0.00215184    0.00283556
     atom   22 type  2   force =    -0.00198097   -0.00197536   -0.00357722
     atom   23 type  2   force =     0.00260066   -0.00181233    0.00170683
     atom   24 type  1   force =     0.00533234   -0.00086440   -0.00764794
     atom   25 type  2   force =     0.01678490    0.01821374   -0.01772826
     atom   26 type  2   force =    -0.00221156   -0.00178747   -0.01090347
     atom   27 type  1   force =     0.00017126    0.00160294    0.00458753
     atom   28 type  2   force =    -0.00073273   -0.00443816   -0.00450593
     atom   29 type  2   force =     0.00336229    0.00970263   -0.00994223
     atom   30 type  1   force =    -0.00316576    0.00147270    0.00738458
     atom   31 type  2   force =     0.00058418   -0.00000157    0.00790900
     atom   32 type  2   force =    -0.00227427    0.00279251    0.00331402
     atom   33 type  1   force =     0.00255627    0.00143227    0.00260725
     atom   34 type  2   force =    -0.00002798   -0.04148047   -0.03542522
     atom   35 type  2   force =    -0.00069611    0.00398017   -0.00213102
     atom   36 type  3   force =    -0.08113563    0.05073243    0.09048945
     The non-local contrib.  to forces
     atom    1 type  1   force =    -0.01388310    0.00733183   -0.02478033
     atom    2 type  2   force =     0.30791182   -0.17441647    0.14591984
     atom    3 type  2   force =    -0.01364172   -0.00449086    0.26778599
     atom    4 type  1   force =     0.00427767    0.01113251    0.00364138
     atom    5 type  2   force =     0.00678968   -0.02902443   -0.24811745
     atom    6 type  2   force =    -0.00814384    0.00541790    0.26919192
     atom    7 type  1   force =    -0.01381306    0.00571693   -0.02450892
     atom    8 type  2   force =     0.00311796   -0.00668327   -0.26205489
     atom    9 type  2   force =    -0.00127123   -0.01315723    0.27363145
     atom   10 type  1   force =    -0.00004229    0.00736457    0.02226301
     atom   11 type  2   force =     0.01200383    0.00468412   -0.26354386
     atom   12 type  2   force =    -0.02057105   -0.02304114    0.25530444
     atom   13 type  1   force =    -0.01007304    0.02270476   -0.00086061
     atom   14 type  2   force =     0.00776557   -0.00994712   -0.26528997
     atom   15 type  2   force =    -0.00297686   -0.00268630    0.26233159
     atom   16 type  1   force =    -0.00570911    0.03826569   -0.03157946
     atom   17 type  2   force =     0.00015592   -0.02651542   -0.25134306
     atom   18 type  2   force =    -0.00343739    0.00217653    0.26929589
     atom   19 type  1   force =     0.01226437    0.00477437   -0.01672535
     atom   20 type  2   force =    -0.00056285   -0.01948642    0.26188654
     atom   21 type  1   force =    -0.00068373    0.02618166    0.00404315
     atom   22 type  2   force =    -0.00063657    0.00201435   -0.26173008
     atom   23 type  2   force =     0.00830282   -0.01693427    0.26671458
     atom   24 type  1   force =    -0.00903690    0.01490752    0.01287278
     atom   25 type  2   force =     0.01275530    0.00221072   -0.26901745
     atom   26 type  2   force =     0.00408464   -0.00976552    0.25604647
     atom   27 type  1   force =    -0.00420794    0.00612790    0.01090994
     atom   28 type  2   force =    -0.00539767   -0.02795626   -0.27543420
     atom   29 type  2   force =     0.00360736    0.00636930    0.25881873
     atom   30 type  1   force =     0.00888359    0.03552276    0.00775326
     atom   31 type  2   force =    -0.00778719   -0.00003101   -0.25932919
     atom   32 type  2   force =     0.00288767   -0.01430334    0.27228546
     atom   33 type  1   force =     0.00012356    0.00068065    0.00637208
     atom   34 type  2   force =    -0.00305601    0.02290058   -0.25813884
     atom   35 type  2   force =    -0.00062935   -0.01326071    0.26186141
     atom   36 type  3   force =    -1.22855178    0.79344735   -1.10416212
     The ionic contribution  to forces
     atom    1 type  1   force =    -0.36571375    0.70275973    4.54643512
     atom    2 type  2   force =    -5.94871643    3.85650341   34.58966551
     atom    3 type  2   force =    -0.42719477    0.21269923  -37.14464077
     atom    4 type  1   force =    -0.30768819    1.12791420   -0.34431973
     atom    5 type  2   force =    -1.17945686    1.81685345   38.49227814
     atom    6 type  2   force =     0.18045388   -0.32755966  -38.54427531
     atom    7 type  1   force =    -2.98380120   -3.16243097    1.47282952
     atom    8 type  2   force =    -1.12494076   -0.23472501   37.34457216
     atom    9 type  2   force =     0.21594429   -0.20763593  -38.51228815
[...]
     atom   28 type  2   force =    -0.00071014   -0.01344249   -0.27758848
     atom   29 type  2   force =     0.00008988   -0.00786257    0.26613449
     atom   30 type  1   force =     0.00479520    0.01814057    0.00501874
     atom   31 type  2   force =    -0.00925921   -0.00013338   -0.26681876
     atom   32 type  2   force =     0.00689064   -0.01213402    0.26978006
     atom   33 type  1   force =    -0.00239962    0.00667303    0.00256219
     atom   34 type  2   force =    -0.00264925   -0.00588354   -0.27882447
     atom   35 type  2   force =    -0.00048999   -0.01443784    0.26540859
     atom   36 type  3   force =    -0.01497061   -0.01377532   -2.32100860
     The ionic contribution  to forces
     atom    1 type  1   force =    -1.11846372    1.22741966   -1.26498652
     atom    2 type  2   force =    -0.23579120   -0.06993041   28.68472734
     atom    3 type  2   force =     0.02808555   -0.07869203  -38.12689267
     atom    4 type  1   force =    -0.12388670    1.24065431   -0.65274295
     atom    5 type  2   force =    -1.31505790    2.13793064   37.84991959
     atom    6 type  2   force =     0.16542183   -0.19266449  -38.73222324
     atom    7 type  1   force =    -2.78906884   -2.30951224    1.87548117
     atom    8 type  2   force =    -1.12376333    0.18358346   37.91277236
     atom    9 type  2   force =     0.32703597   -0.00970080  -38.31356113
     atom   10 type  1   force =    -0.44010023   -1.57509030   -1.22728018
     atom   11 type  2   force =    -0.99865915   -2.30878924   37.95561899
     atom   12 type  2   force =     0.11143903    0.22194238  -38.67039317
     atom   13 type  1   force =     0.16467531    1.04099786    1.43383387
     atom   14 type  2   force =    -0.99560281   -0.15072530   37.89051295
     atom   15 type  2   force =    -0.04488964   -0.12308210  -38.26093526
     atom   16 type  1   force =    -0.41151548    3.80385798    1.30839555
     atom   17 type  2   force =     0.79648311    1.44817368   38.06292148
     atom   18 type  2   force =    -0.16170901   -0.26065575  -38.36931939
     atom   19 type  1   force =     2.59700200   -1.96766752    1.65496201
     atom   20 type  2   force =    -0.03717940   -0.03471786  -39.11069354
     atom   21 type  1   force =    -0.55295730   -0.79654332   -0.35882955
     atom   22 type  2   force =     0.42593282   -1.71525176   38.20892967
     atom   23 type  2   force =    -0.19049306    0.21148524  -38.37923434
     atom   24 type  1   force =     0.96125298    0.94848585   -1.78564396
     atom   25 type  2   force =     1.17618413   -0.01115790   38.17643253
     atom   26 type  2   force =     0.00397848   -0.07516552  -38.32297763
     atom   27 type  1   force =     0.52025466    0.86654059   -0.46259716
     atom   28 type  2   force =     0.52755048    1.52831327   37.59505388
     atom   29 type  2   force =     0.00707834    0.06957836  -38.41907514
     atom   30 type  1   force =     0.18286806   -1.14405520    0.61075206
     atom   31 type  2   force =     1.27278517    0.17256843   38.00804043
     atom   32 type  2   force =    -0.28774238   -0.02223865  -38.41323321
     atom   33 type  1   force =     1.02061157   -0.99574370    1.30846359
     atom   34 type  2   force =     0.57908492   -1.45556776   38.19008663
     atom   35 type  2   force =     0.07816531    0.07405100  -38.35101898
     atom   36 type  3   force =    -0.11900956    0.12136915   50.49473390
     The local contribution  to forces
     atom    1 type  1   force =     1.11208646   -1.24161357    1.25443341
     atom    2 type  2   force =     0.22927506    0.06610776  -28.97262899
     atom    3 type  2   force =    -0.02590926    0.08926104   37.86928992
     atom    4 type  1   force =     0.11883587   -1.24370140    0.65025372
     atom    5 type  2   force =     1.31059583   -2.11752114  -37.61255579
     atom    6 type  2   force =    -0.16513976    0.19472968   38.48773956
     atom    7 type  1   force =     2.80807771    2.31077515   -1.84867449
     atom    8 type  2   force =     1.11772354   -0.18384193  -37.66590630
     atom    9 type  2   force =    -0.32154946    0.02256851   38.06331175
     atom   10 type  1   force =     0.44031619    1.55829468    1.21216999
     atom   11 type  2   force =     0.99230961    2.30796555  -37.71371883
     atom   12 type  2   force =    -0.10452608   -0.20873147   38.42661572
     atom   13 type  1   force =    -0.16532659   -1.06603747   -1.43618941
     atom   14 type  2   force =     0.99547448    0.15491306  -37.63713530
     atom   15 type  2   force =     0.04555490    0.13299341   38.02110005
     atom   16 type  1   force =     0.41154740   -3.83953455   -1.27345780
     atom   17 type  2   force =    -0.79267557   -1.42466729  -37.82530516
     atom   18 type  2   force =     0.16190077    0.26588677   38.12207836
     atom   19 type  1   force =    -2.61205925    1.96418954   -1.62954038
     atom   20 type  2   force =     0.03798148    0.04709460   38.86958105
     atom   21 type  1   force =     0.55200378    0.76779948    0.35569616
     atom   22 type  2   force =    -0.42152100    1.71390203  -37.96748070
     atom   23 type  2   force =     0.18314227   -0.19847698   38.13415249
     atom   24 type  1   force =    -0.95221785   -0.95519453    1.76713177
     atom   25 type  2   force =    -1.17708897    0.01773127  -37.92575812
     atom   26 type  2   force =    -0.00703027    0.08480654   38.08017228
     atom   27 type  1   force =    -0.51684634   -0.87245397    0.45666370
     atom   28 type  2   force =    -0.52716700   -1.51554248  -37.33888079
     atom   29 type  2   force =    -0.00741395   -0.06239658   38.17272759
     atom   30 type  1   force =    -0.18772151    1.12539821   -0.61412441
     atom   31 type  2   force =    -1.26422300   -0.17296377  -37.76089589
     atom   32 type  2   force =     0.28171415    0.03416853   38.16520493
     atom   33 type  1   force =    -1.01839951    0.98893434   -1.31079717
     atom   34 type  2   force =    -0.57700354    1.46114415  -37.93299879
     atom   35 type  2   force =    -0.07770301   -0.06125016   38.10673226
     atom   36 type  3   force =     0.13410227   -0.10778019  -48.19859566
     The core correction contribution to forces
     atom    1 type  1   force =     0.00000000    0.00000000    0.00000000
     atom    2 type  2   force =    -0.00032211   -0.00029528   -0.00976348
     atom    3 type  2   force =     0.00011368    0.00049628   -0.02133266
     atom    4 type  1   force =     0.00000000    0.00000000    0.00000000
     atom    5 type  2   force =    -0.00034302    0.00093236    0.02069598
     atom    6 type  2   force =     0.00017563   -0.00025445   -0.02082850
     atom    7 type  1   force =     0.00000000    0.00000000    0.00000000
     atom    8 type  2   force =    -0.00026008    0.00030792    0.02096350
     atom    9 type  2   force =     0.00056207    0.00070147   -0.02103600
     atom   10 type  1   force =     0.00000000    0.00000000    0.00000000
     atom   11 type  2   force =    -0.00012745   -0.00021914    0.02093608
     atom   12 type  2   force =     0.00056472    0.00094865   -0.02084863
     atom   13 type  1   force =     0.00000000    0.00000000    0.00000000
     atom   14 type  2   force =     0.00005421   -0.00015476    0.02137358
     atom   15 type  2   force =     0.00006088    0.00040927   -0.02059091
     atom   16 type  1   force =     0.00000000    0.00000000    0.00000000
     atom   17 type  2   force =     0.00039904    0.00108353    0.02056776
     atom   18 type  2   force =    -0.00009037   -0.00020719   -0.02090468
     atom   19 type  1   force =     0.00000000    0.00000000    0.00000000
     atom   20 type  2   force =     0.00009587    0.00055474   -0.02120720
     atom   21 type  1   force =     0.00000000    0.00000000    0.00000000
     atom   22 type  2   force =     0.00003971   -0.00034705    0.02073909
     atom   23 type  2   force =    -0.00065429    0.00098198   -0.02089514
     atom   24 type  1   force =     0.00000000    0.00000000    0.00000000
     atom   25 type  2   force =    -0.00014676    0.00018697    0.02134283
     atom   26 type  2   force =    -0.00016823    0.00039031   -0.02077817
     atom   27 type  1   force =     0.00000000    0.00000000    0.00000000
     atom   28 type  2   force =     0.00001858    0.00086088    0.02146369
     atom   29 type  2   force =    -0.00005499    0.00026603   -0.02079067
     atom   30 type  1   force =     0.00000000    0.00000000    0.00000000
     atom   31 type  2   force =     0.00044637    0.00028173    0.02096986
     atom   32 type  2   force =    -0.00064269    0.00061970   -0.02101465
     atom   33 type  1   force =     0.00000000    0.00000000    0.00000000
     atom   34 type  2   force =     0.00014045    0.00023489    0.02160292
     atom   35 type  2   force =     0.00006548    0.00086872   -0.02090136
     atom   36 type  3   force =     0.00015667    0.00012934    0.02462105
     The Hubbard contrib.    to forces
     atom    1 type  1   force =     0.00000000    0.00000000    0.00000000
     atom    2 type  2   force =     0.00000000    0.00000000    0.00000000
     atom    3 type  2   force =     0.00000000    0.00000000    0.00000000
     atom    4 type  1   force =     0.00000000    0.00000000    0.00000000
     atom    5 type  2   force =     0.00000000    0.00000000    0.00000000
     atom    6 type  2   force =     0.00000000    0.00000000    0.00000000
     atom    7 type  1   force =     0.00000000    0.00000000    0.00000000
     atom    8 type  2   force =     0.00000000    0.00000000    0.00000000
     atom    9 type  2   force =     0.00000000    0.00000000    0.00000000
     atom   10 type  1   force =     0.00000000    0.00000000    0.00000000
     atom   11 type  2   force =     0.00000000    0.00000000    0.00000000
     atom   12 type  2   force =     0.00000000    0.00000000    0.00000000
     atom   13 type  1   force =     0.00000000    0.00000000    0.00000000
     atom   14 type  2   force =     0.00000000    0.00000000    0.00000000
     atom   15 type  2   force =     0.00000000    0.00000000    0.00000000
     atom   16 type  1   force =     0.00000000    0.00000000    0.00000000
     atom   17 type  2   force =     0.00000000    0.00000000    0.00000000
     atom   18 type  2   force =     0.00000000    0.00000000    0.00000000
     atom   19 type  1   force =     0.00000000    0.00000000    0.00000000
     atom   20 type  2   force =     0.00000000    0.00000000    0.00000000
     atom   21 type  1   force =     0.00000000    0.00000000    0.00000000
     atom   22 type  2   force =     0.00000000    0.00000000    0.00000000
     atom   23 type  2   force =     0.00000000    0.00000000    0.00000000
     atom   24 type  1   force =     0.00000000    0.00000000    0.00000000
     atom   25 type  2   force =     0.00000000    0.00000000    0.00000000
     atom   26 type  2   force =     0.00000000    0.00000000    0.00000000
     atom   27 type  1   force =     0.00000000    0.00000000    0.00000000
     atom   28 type  2   force =     0.00000000    0.00000000    0.00000000
     atom   29 type  2   force =     0.00000000    0.00000000    0.00000000
     atom   30 type  1   force =     0.00000000    0.00000000    0.00000000
     atom   31 type  2   force =     0.00000000    0.00000000    0.00000000
     atom   32 type  2   force =     0.00000000    0.00000000    0.00000000
     atom   33 type  1   force =     0.00000000    0.00000000    0.00000000
     atom   34 type  2   force =     0.00000000    0.00000000    0.00000000
     atom   35 type  2   force =     0.00000000    0.00000000    0.00000000
     atom   36 type  3   force =     0.00000000    0.00000000    0.00000000
     The SCF correction term to forces
     atom    1 type  1   force =    -0.00000540   -0.00001397    0.00006718
     atom    2 type  2   force =    -0.00002442    0.00000851    0.00001504
     atom    3 type  2   force =    -0.00001266   -0.00000169    0.00001309
     atom    4 type  1   force =    -0.00002756   -0.00002876    0.00002616
     atom    5 type  2   force =    -0.00000771   -0.00001931    0.00000798
     atom    6 type  2   force =    -0.00000375   -0.00000458    0.00001938
     atom    7 type  1   force =    -0.00000940    0.00000976    0.00000991
     atom    8 type  2   force =    -0.00001266   -0.00000832    0.00000640
     atom    9 type  2   force =    -0.00000006    0.00000218   -0.00000435
     atom   10 type  1   force =    -0.00002343    0.00002190    0.00001257
     atom   11 type  2   force =    -0.00000648    0.00002005    0.00000925
     atom   12 type  2   force =    -0.00000131    0.00000632    0.00000582
     atom   13 type  1   force =     0.00002918   -0.00000607    0.00004051
     atom   14 type  2   force =     0.00001906    0.00000771    0.00001196
     atom   15 type  2   force =     0.00000504   -0.00000403    0.00001819
     atom   16 type  1   force =     0.00001425   -0.00001956    0.00003959
     atom   17 type  2   force =     0.00001895   -0.00001089    0.00000625
     atom   18 type  2   force =     0.00000597   -0.00000126    0.00001301
     atom   19 type  1   force =     0.00001744    0.00000770   -0.00001290
     atom   20 type  2   force =    -0.00000102   -0.00000170    0.00000363
     atom   21 type  1   force =     0.00001107    0.00003056    0.00002695
     atom   22 type  2   force =     0.00001612    0.00001656    0.00000494
     atom   23 type  2   force =     0.00000416    0.00000506   -0.00000439
     atom   24 type  1   force =    -0.00002201   -0.00000862    0.00003176
     atom   25 type  2   force =     0.00000878    0.00000647    0.00000782
     atom   26 type  2   force =     0.00000318   -0.00000748    0.00000225
     atom   27 type  1   force =     0.00000930   -0.00001793    0.00001234
     atom   28 type  2   force =    -0.00000897   -0.00001219    0.00000732
     atom   29 type  2   force =    -0.00000133    0.00000059    0.00000645
     atom   30 type  1   force =    -0.00000264    0.00001075   -0.00002331
     atom   31 type  2   force =     0.00000400   -0.00000883    0.00000270
     atom   32 type  2   force =    -0.00000040    0.00000361   -0.00000990
     atom   33 type  1   force =     0.00000482    0.00001478   -0.00000345
     atom   34 type  2   force =    -0.00001011    0.00001553    0.00000271
     atom   35 type  2   force =    -0.00000064    0.00000280   -0.00000658
     atom   36 type  3   force =    -0.00004134    0.00001589   -0.00001420

     Total force =     0.007026     Total SCF correction =     0.000165
     Energy error            =      8.7E-05 Ry
     Gradient error          =      2.4E-03 Ry/Bohr

     bfgs converged in  25 scf cycles and  24 bfgs steps
     (criteria: energy <  1.0E-04 Ry, force <  1.0E-02 Ry/Bohr)

     End of BFGS Geometry Optimization

     Final energy             =   -2246.4497826382 Ry

     File ./MoS2-V-O.bfgs deleted, as requested
Begin final coordinates

ATOMIC_POSITIONS (angstrom)
Mo            6.5744246832        1.7576747804        2.7489788250
S             8.1694407013        0.8219923511        4.2733603717
S             8.1737622062        0.8259082834        1.1868077803
Mo            8.1612090287        4.4711662981        2.7167428555
S             6.5578487287        3.6488311525        4.3199439738
S             6.5864811385        3.5610695226        1.1074917458
Mo            6.5491219233        7.1591067386        2.6717403739
S             8.1286217481        6.2843060929        4.3008931941
S             8.1746913770        6.3036889922        1.1148697728
Mo            8.1729830047        9.8840682984        2.7508947253
S             6.5602391881        8.9213740649        4.3258197613
S             6.6137696114        8.9940214621        1.1174468045
Mo            3.4617671766        1.7229757476        2.7617049378
S             5.0357940680        0.7935055179        4.3446598393
S             5.0230205758        0.8104856725        1.1617441904
Mo            5.0323991662        4.5237322794        2.6638773108
S             3.5024102673        3.6403449003        4.3120804885
S             3.4761237113        3.5378631668        1.1189660888
Mo            3.5106411357        7.1578823826        2.6642385588
S             5.0330711772        6.2900688105        1.0440733173
Mo            5.0340410262        9.8828223240        2.7282524891
S             3.5050001080        8.9238737371        4.3196391879
S             3.4374323646        9.0067347606        1.1242749582
Mo            0.3248149939        1.7416538013        2.7513209817
S             1.8832665390        0.8252210255        4.3677659033
S             1.8962296715        0.8143751362        1.1643168356
Mo            1.9034260965        4.4732798177        2.7117926694
S             0.3076511281        3.5870632952        4.3227500930
S             0.3054854961        3.5557432169        1.1379021663
Mo            0.3106406251        7.1982389945        2.7300127315
S             1.9459792935        6.2836390362        4.2967874159
S             1.8903846466        6.3002435384        1.1079588787
Mo            1.8877749018        9.9151537555        2.7642663399
S             0.3036548298        9.0020475813        4.3593218843
S             0.3156007291        9.0239398437        1.1552769602
O            -1.2768560551        0.8368500317        5.7723654608
End final coordinates



     Writing all to output data dir ./MoS2-V-O.save/
 
     init_run     :      5.61s CPU      6.39s WALL (       1 calls)
     electrons    :   2362.00s CPU   2672.23s WALL (      25 calls)
     update_pot   :     74.34s CPU     79.15s WALL (      24 calls)
     forces       :     68.06s CPU     78.77s WALL (      25 calls)

     Called by init_run:
     wfcinit      :      0.48s CPU      0.54s WALL (       1 calls)
     potinit      :      3.28s CPU      3.66s WALL (       1 calls)
     hinit0       :      0.51s CPU      0.60s WALL (       1 calls)

     Called by electrons:
     c_bands      :    338.91s CPU    346.94s WALL (     238 calls)
     sum_band     :    142.15s CPU    182.65s WALL (     238 calls)
     v_of_rho     :    223.78s CPU    272.75s WALL (     254 calls)
     newd         :     76.12s CPU    113.71s WALL (     254 calls)
     PAW_pot      :     10.09s CPU     10.13s WALL (     278 calls)
     mix_rho      :   1597.06s CPU   1774.74s WALL (     238 calls)

     Called by c_bands:
     init_us_2    :      5.45s CPU      5.87s WALL (     501 calls)
     init_us_2:cp :      5.45s CPU      5.87s WALL (     501 calls)
     regterg      :    321.00s CPU    328.60s WALL (     238 calls)

     Called by *egterg:
     rdiaghg      :     21.85s CPU     22.09s WALL (    1244 calls)
     h_psi        :    208.36s CPU    210.08s WALL (    1278 calls)
     s_psi        :     19.86s CPU     19.93s WALL (    1278 calls)
     g_psi        :      1.01s CPU      1.02s WALL (    1039 calls)

     Called by h_psi:
     h_psi:calbec :     22.56s CPU     22.69s WALL (    1278 calls)
     vloc_psi     :    163.64s CPU    165.10s WALL (    1278 calls)
     add_vuspsi   :     19.54s CPU     19.65s WALL (    1278 calls)

     General routines
     calbec       :     32.64s CPU     32.82s WALL (    1640 calls)
     fft          :    160.16s CPU    184.22s WALL (   16952 calls)
     ffts         :    713.97s CPU    885.73s WALL (  390694 calls)
     fftw         :    104.24s CPU    105.04s WALL (  144980 calls)
     interpolate  :      3.16s CPU      3.62s WALL (     254 calls)
 
     Parallel routines
 
     PWSCF        :  42m 0.59s CPU  47m32.52s WALL

 
   This run was terminated on:  12:53:40   4Nov2023            

=------------------------------------------------------------------------------=
   JOB DONE.
=------------------------------------------------------------------------------=
