
     Program PWSCF v.7.2 starts on  1Nov2023 at 14:41:29 

     This program is part of the open-source Quantum ESPRESSO suite
     for quantum simulation of materials; please cite
         "P. Giannozzi et al., J. Phys.:Condens. Matter 21 395502 (2009);
         "P. Giannozzi et al., J. Phys.:Condens. Matter 29 465901 (2017);
         "P. Giannozzi et al., J. Chem. Phys. 152 154105 (2020);
          URL http://www.quantum-espresso.org", 
     in publications or presentations arising from this work. More details at
     http://www.quantum-espresso.org/quote

     Parallel version (MPI & OpenMP), running on      48 processor cores
     Number of MPI processes:                48
     Threads/MPI process:                     1

     MPI processes distributed on     1 nodes
     77073 MiB available memory on the printing compute node when the environment starts
 
     Waiting for input...
     Reading input from standard input
Warning: card &CELL ignored
Warning: card CELL_DYNAMICS = 'BFGS', ignored
Warning: card CELL_DOFREE = '2DXY' ignored
Warning: card / ignored

     Current dimensions of program PWSCF are:
     Max number of different atomic species (ntypx) = 10
     Max number of k-points (npk) =  40000
     Max angular momentum in pseudopotentials (lmaxx) =  4
     file O.pbe-n-kjpaw_psl.0.1.UPF: wavefunction(s)  2P renormalized

     IMPORTANT: XC functional enforced from input :
     Exchange-correlation= RVV10
                           (   1   4  13   4  26   0   0)
     Any further DFT definition will be discarded
     Please, verify this is what you really want


     gamma-point specific algorithms are used
     signal trapping enabled: kill the code with -SIGUSR1 to stop cleanly the simulation 
 
     R & G space division:  proc/nbgrp/npool/nimage =      48
     Subspace diagonalization in iterative solution of the eigenvalue problem:
     one sub-group per band group will be used
     scalapack distributed-memory algorithm (size of sub-group:  2*  2 procs)

 
     Parallelization info
     --------------------
     sticks:   dense  smooth     PW     G-vecs:    dense   smooth      PW
     Min         396     194     47               101632    35090    4376
     Max         398     196     50               101674    35128    4410
     Sum       19091    9389   2349              4879585  1685513  210763
 
     Using Slab Decomposition
 


     bravais-lattice index     =            0
     lattice parameter (alat)  =      17.8707  a.u.
     unit-cell volume          =   17436.2743 (a.u.)^3
     number of atoms/cell      =           36
     number of atomic types    =            3
     number of electrons       =       312.00
     number of Kohn-Sham states=          187
     kinetic-energy cutoff     =      80.0000  Ry
     charge density cutoff     =     650.0000  Ry
     scf convergence threshold =      1.0E-06
     mixing beta               =       0.7000
     number of iterations used =            8  local-TF  mixing
     energy convergence thresh.=      1.0E-04
     force convergence thresh. =      1.0E-02
     Exchange-correlation= RVV10
                           (   1   4  13   4  26   0   0)
     nstep                     =          200


     celldm(1)=  17.870686  celldm(2)=   0.000000  celldm(3)=   0.000000
     celldm(4)=   0.000000  celldm(5)=   0.000000  celldm(6)=   0.000000

     crystal axes: (cart. coord. in units of alat)
               a(1) = (   1.000000   0.000000   0.000000 )  
               a(2) = (   0.000000   1.155671   0.000000 )  
               a(3) = (   0.000000   0.000000   2.643601 )  

     reciprocal axes: (cart. coord. in units 2 pi/alat)
               b(1) = (  1.000000  0.000000  0.000000 )  
               b(2) = (  0.000000  0.865298  0.000000 )  
               b(3) = (  0.000000  0.000000  0.378272 )  


     PseudoPot. # 1 for Mo read from file:
     ../pseudo/Mo_ONCV_PBE-1.0.oncvpsp.upf
     MD5 check sum: 1b5d28e075c9ccadda658a603575cd1f
     Pseudo is Norm-conserving, Zval = 14.0
     Generated using ONCVPSP code by D. R. Hamann
     Using radial grid of 1526 points,  6 beta functions with: 
                l(1) =   0
                l(2) =   0
                l(3) =   1
                l(4) =   1
                l(5) =   2
                l(6) =   2

     PseudoPot. # 2 for S  read from file:
     ../pseudo/s_pbe_v1.4.uspp.F.UPF
     MD5 check sum: 88d86576ff6df21479756cfb9bdac1df
     Pseudo is Ultrasoft + core correction, Zval =  6.0
     Generated by new atomic code, or converted to UPF format
     Using radial grid of  907 points,  6 beta functions with: 
                l(1) =   0
                l(2) =   0
                l(3) =   1
                l(4) =   1
                l(5) =   2
                l(6) =   2
     Q(r) pseudized with  8 coefficients,  rinner =    1.300   1.300   1.300
                                                       1.300   1.300

     PseudoPot. # 3 for O  read from file:
     ../pseudo/O.pbe-n-kjpaw_psl.0.1.UPF
     MD5 check sum: 0234752ac141de4415c5fc33072bef88
     Pseudo is Projector augmented-wave + core cor, Zval =  6.0
     Generated using "atomic" code by A. Dal Corso  v.5.0.99 svn rev. 10869
     Shape of augmentation charge: BESSEL
     Using radial grid of 1095 points,  4 beta functions with: 
                l(1) =   0
                l(2) =   0
                l(3) =   1
                l(4) =   1
     Q(r) pseudized with 0 coefficients 


     atomic species   valence    mass     pseudopotential
        Mo            14.00    95.94000     Mo( 1.00)
        S              6.00    32.06500     S ( 1.00)
        O              6.00    15.99940     O ( 1.00)

     No symmetry found



   Cartesian axes

     site n.     atom                  positions (alat units)
         1           Mo  tau(   1) = (   0.6952221   0.1890506   0.2985846  )
         2           S   tau(   2) = (   0.8646417   0.0856217   0.4689279  )
         3           S   tau(   3) = (   0.8663890   0.0857843   0.1351291  )
         4           Mo  tau(   4) = (   0.8560186   0.4753274   0.2873942  )
         5           S   tau(   5) = (   0.6873294   0.3936244   0.4596353  )
         6           S   tau(   6) = (   0.6929804   0.3713468   0.1185692  )
         7           Mo  tau(   7) = (   0.6862796   0.7633098   0.2825370  )
         8           S   tau(   8) = (   0.8545980   0.6708292   0.4486168  )
         9           S   tau(   9) = (   0.8545123   0.6666874   0.1146125  )
        10           Mo  tau(  10) = (   0.8629403   1.0471007   0.3006803  )
        11           S   tau(  11) = (   0.6868280   0.9456650   0.4634891  )
        12           S   tau(  12) = (   0.6998113   0.9568511   0.1205389  )
        13           Mo  tau(  13) = (   0.3618216   0.1847309   0.2935964  )
        14           S   tau(  14) = (   0.5260962   0.0863870   0.4600448  )
        15           S   tau(  15) = (   0.5348379   0.0894875   0.1297123  )
        16           Mo  tau(  16) = (   0.5265817   0.4772436   0.2784130  )
        17           S   tau(  17) = (   0.3624753   0.3882513   0.4525556  )
        18           S   tau(  18) = (   0.3635411   0.3752055   0.1119148  )
        19           Mo  tau(  19) = (   0.3652268   0.7630864   0.2781795  )
        20           S   tau(  20) = (   0.5269494   0.6690381   0.1096838  )
        21           Mo  tau(  21) = (   0.5300192   1.0470394   0.2900995  )
        22           S   tau(  22) = (   0.3670346   0.9457522   0.4574073  )
        23           S   tau(  23) = (   0.3604225   0.9585725   0.1159032  )
        24           Mo  tau(  24) = (   0.0313099   0.1847895   0.3013130  )
        25           S   tau(  25) = (   0.1956761   0.0838230   0.4650863  )
        26           S   tau(  26) = (   0.1967693   0.0903508   0.1278874  )
        27           Mo  tau(  27) = (   0.1967578   0.4753919   0.2813011  )
        28           S   tau(  28) = (   0.0287851   0.3864324   0.4586755  )
        29           S   tau(  29) = (   0.0244514   0.3729871   0.1239344  )
        30           Mo  tau(  30) = (   0.0286728   0.7631204   0.2856894  )
        31           S   tau(  31) = (   0.2011512   0.6675435   0.4465001  )
        32           S   tau(  32) = (   0.1969214   0.6672839   0.1104564  )
        33           Mo  tau(  33) = (   0.1950294   1.0511147   0.2932237  )
        34           S   tau(  34) = (   0.0312912   0.9612169   0.4667423  )
        35           S   tau(  35) = (   0.0292670   0.9563028   0.1216485  )
        36           O   tau(  36) = (   0.2222222   0.0000000   0.5650415  )

     number of k points=     1  Gaussian smearing, width (Ry)=  0.0100
                       cart. coord. in units 2pi/alat
        k(    1) = (   0.0000000   0.0000000   0.0000000), wk =   2.0000000

     Dense  grid:  2439793 G-vectors     FFT dimensions: ( 150, 180, 384)

     Smooth grid:   842757 G-vectors     FFT dimensions: ( 108, 120, 270)

     Estimated max dynamical RAM per process >     269.22 MB

     Estimated total dynamical RAM >      12.62 GB

     Initial potential from superposition of free atoms

     starting charge     311.9873, renormalised to     312.0000

     negative rho (up, down):  2.755E-04 0.000E+00


---------------------------------------------------------------------------------
Carrying out rVV10 run using the following parameters:
Nqs =      20    Nr_points =    1024   r_max =   100.000
b_value =  6.30000    beta =  0.00901
     q_mesh =  0.00010000  0.00030000  0.00058939  0.00100810
               0.00161396  0.00249058  0.00375900  0.00559430
               0.00824984  0.01209221  0.01765183  0.02569619
               0.03733578  0.05417739  0.07854596  0.11380545
               0.16482331  0.23864234  0.34545298  0.50000000

Gradients computed in Reciprocal space

---------------------------------------------------------------------------------


     Starting wfcs are  216 randomized atomic wfcs
     Checking if some PAW data can be deallocated... 

     total cpu time spent up to now is        5.3 secs

     Self-consistent Calculation

     iteration #  1     ecut=    80.00 Ry     beta= 0.70
     Davidson diagonalization with overlap
     ethr =  1.00E-02,  avg # of iterations =  2.0

     Threshold (ethr) on eigenvalues was too large:
     Diagonalizing with lowered threshold

     Davidson diagonalization with overlap
     ethr =  4.73E-04,  avg # of iterations =  4.0

     negative rho (up, down):  3.494E-08 0.000E+00

     total cpu time spent up to now is       20.5 secs

     total energy              =   -2246.11339426 Ry
     estimated scf accuracy    <       1.72783809 Ry

     iteration #  2     ecut=    80.00 Ry     beta= 0.70
     Davidson diagonalization with overlap
     ethr =  5.54E-04,  avg # of iterations =  4.0

     total cpu time spent up to now is       25.4 secs

     total energy              =   -2246.10587092 Ry
     estimated scf accuracy    <       0.57292416 Ry

     iteration #  3     ecut=    80.00 Ry     beta= 0.70
     Davidson diagonalization with overlap
     ethr =  1.84E-04,  avg # of iterations =  2.0

     total cpu time spent up to now is       29.7 secs

     total energy              =   -2246.12142363 Ry
     estimated scf accuracy    <       0.11437979 Ry

     iteration #  4     ecut=    80.00 Ry     beta= 0.70
     Davidson diagonalization with overlap
     ethr =  3.67E-05,  avg # of iterations = 12.0

     total cpu time spent up to now is       35.0 secs

     total energy              =   -2246.13866641 Ry
     estimated scf accuracy    <       0.02345352 Ry

     iteration #  5     ecut=    80.00 Ry     beta= 0.70
     Davidson diagonalization with overlap
     ethr =  7.52E-06,  avg # of iterations =  2.0

     total cpu time spent up to now is       39.1 secs

     total energy              =   -2246.13813907 Ry
     estimated scf accuracy    <       0.01441777 Ry

     iteration #  6     ecut=    80.00 Ry     beta= 0.70
     Davidson diagonalization with overlap
     ethr =  4.62E-06,  avg # of iterations =  2.0

     total cpu time spent up to now is       43.2 secs

     total energy              =   -2246.13690014 Ry
     estimated scf accuracy    <       0.00890268 Ry

     iteration #  7     ecut=    80.00 Ry     beta= 0.70
     Davidson diagonalization with overlap
     ethr =  2.85E-06,  avg # of iterations =  8.0

     negative rho (up, down):  3.040E-04 0.000E+00

     total cpu time spent up to now is       50.5 secs

     total energy              =   -2246.13598951 Ry
     estimated scf accuracy    <       0.00503065 Ry

     iteration #  8     ecut=    80.00 Ry     beta= 0.70
     Davidson diagonalization with overlap
     ethr =  1.61E-06,  avg # of iterations =  2.0

     negative rho (up, down):  3.001E-02 0.000E+00

     total cpu time spent up to now is       56.8 secs

     total energy              =   -2246.13557941 Ry
     estimated scf accuracy    <       0.00293085 Ry

     iteration #  9     ecut=    80.00 Ry     beta= 0.70
     Davidson diagonalization with overlap
     ethr =  9.39E-07,  avg # of iterations =  2.0

     negative rho (up, down):  2.897E-02 0.000E+00

     total cpu time spent up to now is       63.2 secs

     total energy              =   -2246.13547407 Ry
     estimated scf accuracy    <       0.00129414 Ry

     iteration # 10     ecut=    80.00 Ry     beta= 0.70
     Davidson diagonalization with overlap
     ethr =  4.15E-07,  avg # of iterations =  2.0

     negative rho (up, down):  1.851E-02 0.000E+00

     total cpu time spent up to now is       69.7 secs

     total energy              =   -2246.13548995 Ry
     estimated scf accuracy    <       0.00022001 Ry

     iteration # 11     ecut=    80.00 Ry     beta= 0.70
     Davidson diagonalization with overlap
     ethr =  7.05E-08,  avg # of iterations =  9.0

     negative rho (up, down):  6.296E-03 0.000E+00

     total cpu time spent up to now is       78.7 secs

     total energy              =   -2246.13550365 Ry
     estimated scf accuracy    <       0.00005757 Ry

     iteration # 12     ecut=    80.00 Ry     beta= 0.70
     Davidson diagonalization with overlap
     ethr =  1.85E-08,  avg # of iterations =  2.0

     negative rho (up, down):  1.719E-03 0.000E+00

     total cpu time spent up to now is       88.7 secs

     total energy              =   -2246.13552897 Ry
     estimated scf accuracy    <       0.00001419 Ry

     iteration # 13     ecut=    80.00 Ry     beta= 0.70
     Davidson diagonalization with overlap
     ethr =  4.55E-09,  avg # of iterations =  4.0

     negative rho (up, down):  3.875E-04 0.000E+00

     total cpu time spent up to now is       99.0 secs

     total energy              =   -2246.13552898 Ry
     estimated scf accuracy    <       0.00000296 Ry

     iteration # 14     ecut=    80.00 Ry     beta= 0.70
     Davidson diagonalization with overlap
     ethr =  9.48E-10,  avg # of iterations =  5.0

     negative rho (up, down):  2.311E-04 0.000E+00

     total cpu time spent up to now is      103.4 secs

     End of self-consistent calculation

          k = 0.0000 0.0000 0.0000 (105382 PWs)   bands (ev):

   -62.9362 -62.9188 -62.9039 -62.8961 -62.8678 -62.8208 -62.8092 -62.7957
   -62.7755 -62.7606 -62.7595 -62.5694 -37.2560 -37.1969 -37.1919 -37.1771
   -37.1498 -37.1395 -37.1310 -37.1041 -37.0917 -37.0782 -37.0745 -37.0664
   -37.0600 -37.0519 -37.0238 -37.0162 -37.0085 -36.9907 -36.9819 -36.9769
   -36.9679 -36.9547 -36.9476 -36.9367 -36.9241 -36.9149 -36.9072 -36.9037
   -36.8873 -36.8538 -36.8302 -36.8091 -36.7730 -36.7428 -36.7001 -36.6578
   -26.6410 -15.9335 -15.1879 -15.1147 -14.9343 -14.8905 -14.7732 -14.5180
   -14.4749 -14.4198 -14.4013 -14.3669 -14.3397 -14.2921 -14.2254 -14.1511
   -14.1240 -14.1087 -14.0266 -13.9652 -13.8515 -13.8224 -13.7991 -13.3413
    -9.6082  -9.4380  -8.4220  -7.5740  -7.4369  -7.2836  -7.2484  -7.1905
    -7.1644  -7.0658  -6.9745  -6.8079  -6.7988  -6.7007  -6.6884  -6.5921
    -6.4950  -6.4545  -6.3386  -6.3061  -6.1027  -6.0914  -5.9210  -5.8638
    -5.8080  -5.7743  -5.7369  -5.6953  -5.6513  -5.6343  -5.6057  -5.5982
    -5.5355  -5.5218  -5.4221  -5.3912  -5.2537  -5.2272  -5.0800  -5.0176
    -4.9966  -4.9661  -4.8702  -4.8059  -4.7523  -4.6743  -4.5146  -4.3297
    -4.2799  -4.2313  -4.1752  -4.1601  -4.0883  -3.9366  -3.8856  -3.8037
    -3.7957  -3.7142  -3.6357  -3.6196  -3.5577  -3.5225  -3.4933  -3.4491
    -3.4085  -3.3906  -3.2737  -3.1969  -3.1799  -3.0655  -2.9715  -2.8175
    -2.7867  -2.7476  -2.7248  -2.6868  -2.6289  -2.5988  -2.5626  -2.2981
    -2.2287  -1.9853  -1.9020  -1.7068  -0.8514  -0.7142  -0.5393  -0.1905
    -0.1319  -0.0865  -0.0127   0.0814   0.1462   0.2126   0.2394   0.2943
     0.3404   0.3785   0.4335   0.5101   0.5416   0.5645   0.6091   0.6233
     0.7184   0.7479   0.7711   0.7924   0.8042   0.8366   0.9241   0.9615
     0.9934   1.1743   1.2384

     the Fermi energy is    -1.2791 ev

!    total energy              =   -2246.13553134 Ry
     estimated scf accuracy    <       0.00000018 Ry
     smearing contrib. (-TS)   =      -0.00000058 Ry
     internal energy E=F+TS    =   -2246.13553076 Ry

     The total energy is F=E-TS. E is the sum of the following terms:
     one-electron contribution =  -18471.83908322 Ry
     hartree contribution      =    9224.29146124 Ry
     xc contribution           =    -392.52755160 Ry
     ewald contribution        =    7403.77884061 Ry
     one-center paw contrib.   =      -9.83919779 Ry

     convergence has been achieved in  14 iterations

     negative rho (up, down):  2.311E-04 0.000E+00

     Forces acting on atoms (cartesian axes, Ry/au):

     atom    1 type  1   force =     0.01370431   -0.02717880    0.01329326
     atom    2 type  2   force =    -0.01737077    0.01774850   -0.00127712
     atom    3 type  2   force =    -0.01018311    0.00636421   -0.00794936
     atom    4 type  1   force =     0.00396575    0.00273971   -0.00100613
     atom    5 type  2   force =    -0.00098214   -0.00484124   -0.00629838
     atom    6 type  2   force =     0.00089951    0.01173987   -0.00026634
     atom    7 type  1   force =     0.00684867   -0.01630368   -0.00742159
     atom    8 type  2   force =     0.00152577   -0.00362000    0.01767251
     atom    9 type  2   force =     0.01263436    0.00694281    0.01221776
     atom   10 type  1   force =    -0.00820719    0.00553981   -0.02916338
     atom   11 type  2   force =     0.00479104   -0.00147563   -0.00710865
     atom   12 type  2   force =    -0.00093514    0.00122938    0.00541904
     atom   13 type  1   force =     0.01103910    0.00723990    0.00762237
     atom   14 type  2   force =     0.00859012    0.00094116    0.01136350
     atom   15 type  2   force =    -0.01310888   -0.00009010   -0.01042913
     atom   16 type  1   force =     0.00147027    0.01212184    0.00402533
     atom   17 type  2   force =     0.00750618    0.00631685    0.00170540
     atom   18 type  2   force =    -0.00390939   -0.00196218    0.00969568
     atom   19 type  1   force =     0.00766548   -0.01066775   -0.00657078
     atom   20 type  2   force =     0.00288456   -0.00360053    0.00158265
     atom   21 type  1   force =    -0.00709965    0.00453772    0.00013632
     atom   22 type  2   force =     0.00750042   -0.01746495   -0.01108037
     atom   23 type  2   force =     0.00219032    0.00078523    0.01129951
     atom   24 type  1   force =    -0.02610225   -0.00384077    0.01420167
     atom   25 type  2   force =    -0.13323280    0.54692401   -0.79579011
     atom   26 type  2   force =    -0.01190256   -0.00155871   -0.00291286
     atom   27 type  1   force =     0.00016400    0.00025332    0.00996930
     atom   28 type  2   force =    -0.00200329    0.00736937   -0.00671561
     atom   29 type  2   force =     0.00349007    0.00242370   -0.00535041
     atom   30 type  1   force =    -0.00742156    0.01088784   -0.00668658
     atom   31 type  2   force =     0.00098393   -0.00090031    0.01736175
     atom   32 type  2   force =    -0.00847467    0.00578587    0.00809366
     atom   33 type  1   force =    -0.00420147   -0.01587752   -0.09632867
     atom   34 type  2   force =    -0.00341673   -0.04954134   -0.01055463
     atom   35 type  2   force =    -0.00873326    0.00662412    0.01693965
     atom   36 type  3   force =     0.16943099   -0.50559172    0.85031073
     The non-local contrib.  to forces
     atom    1 type  1   force =    -0.00315912    0.04044380   -0.00877368
     atom    2 type  2   force =     0.00024980    0.01113708   -0.27308706
     atom    3 type  2   force =    -0.01691878    0.00207929    0.26623984
     atom    4 type  1   force =    -0.00090720    0.00941440    0.00646295
     atom    5 type  2   force =     0.00532840   -0.03471861   -0.25526853
     atom    6 type  2   force =    -0.00152760    0.00925577    0.26419828
     atom    7 type  1   force =    -0.01974830    0.00862595   -0.02190632
     atom    8 type  2   force =     0.00335171   -0.00524878   -0.25506194
     atom    9 type  2   force =     0.00595276   -0.00931510    0.27956492
     atom   10 type  1   force =     0.00654141   -0.00041781   -0.00211566
     atom   11 type  2   force =     0.01459030    0.00519034   -0.25789546
     atom   12 type  2   force =    -0.01179728   -0.01637400    0.26418206
     atom   13 type  1   force =    -0.02515926    0.00152551    0.00771897
     atom   14 type  2   force =     0.01008440    0.00022118   -0.26465603
     atom   15 type  2   force =    -0.01066913   -0.00303928    0.25506256
     atom   16 type  1   force =     0.00030214    0.02990825   -0.02735238
     atom   17 type  2   force =     0.00077727   -0.03441525   -0.24781008
     atom   18 type  2   force =    -0.00726641    0.00318020    0.27024795
     atom   19 type  1   force =     0.01169430    0.00601987   -0.01789443
     atom   20 type  2   force =     0.00013618   -0.02295434    0.26815185
     atom   21 type  1   force =     0.00264688    0.02495557    0.00595337
     atom   22 type  2   force =     0.02430593   -0.02347055   -0.25984723
     atom   23 type  2   force =     0.01292488   -0.01541413    0.26574980
     atom   24 type  1   force =     0.02538777    0.00121655   -0.00056770
     atom   25 type  2   force =    -0.06771467    0.24093496   -0.30893076
     atom   26 type  2   force =    -0.00232007   -0.00916047    0.26548902
     atom   27 type  1   force =    -0.00313659    0.01411561    0.00832436
     atom   28 type  2   force =    -0.00381354   -0.02747954   -0.27264991
     atom   29 type  2   force =     0.00640876    0.00448808    0.26290444
     atom   30 type  1   force =     0.00063980    0.02197906    0.00927940
     atom   31 type  2   force =    -0.00683422   -0.00017020   -0.25251812
     atom   32 type  2   force =    -0.00268525   -0.01074531    0.27510236
     atom   33 type  1   force =    -0.00738059    0.04651252    0.04606247
     atom   34 type  2   force =    -0.02074212   -0.05334141   -0.27455935
     atom   35 type  2   force =    -0.00527411   -0.00938604    0.27127312
     atom   36 type  3   force =    -0.52961978    1.75336661   -1.52116776
     The ionic contribution  to forces
     atom    1 type  1   force =     0.55787494    0.80794658    4.33893405
     atom    2 type  2   force =    -1.67328472    0.74786809   38.81338847
     atom    3 type  2   force =    -0.34921626    0.10533886  -36.84015170
     atom    4 type  1   force =    -0.15293814    0.92397793   -0.31421174
     atom    5 type  2   force =    -0.90363724    1.79331504   38.54737848
     atom    6 type  2   force =     0.36328191   -0.37608863  -38.54270763
     atom    7 type  1   force =    -2.51973296   -3.25385230    1.53288005
     atom    8 type  2   force =    -1.13324347   -0.16107915   37.18160769
     atom    9 type  2   force =     0.29015149   -0.10288124  -38.49174874
     atom   10 type  1   force =    -2.19743436   -0.86509816    3.80990212
     atom   11 type  2   force =    -0.40908282   -1.99009630   38.86082924
     atom   12 type  2   force =     0.46571108    0.56229962  -38.46704417
     atom   13 type  1   force =     1.83089303    2.90175106   -0.54270997
     atom   14 type  2   force =     1.55440994    0.49781510   37.81250439
     atom   15 type  2   force =     0.37519819    0.03796575  -37.60957204
     atom   16 type  1   force =     0.28386864    4.32937345   -0.57347292
     atom   17 type  2   force =     1.12997137    2.33126822   37.54538779
     atom   18 type  2   force =    -0.08082189   -0.44031832  -39.21153382
     atom   19 type  1   force =     3.11958653   -3.45673622   -0.86409414
     atom   20 type  2   force =     0.29465818   -0.27211507  -38.98392658
     atom   21 type  1   force =     1.43379657   -0.61371443   -1.05641913
     atom   22 type  2   force =     1.86305438   -3.82406968   37.24345980
     atom   23 type  2   force =     0.06514428    0.41357525  -39.20169510
     atom   24 type  1   force =    -2.08859263    2.78501812    2.92844480
     atom   25 type  2   force =    -1.85294438    8.24169524   29.68643607
     atom   26 type  2   force =    -0.33611481    0.25226920  -38.56072644
     atom   27 type  1   force =    -0.03395455    1.05759689   -3.56361328
     atom   28 type  2   force =    -0.31973041    1.72950889   37.87310171
     atom   29 type  2   force =    -0.36856507   -0.22684019  -37.89217103
     atom   30 type  1   force =    -0.81981807   -1.83079495   -1.44521451
     atom   31 type  2   force =     1.19509014   -0.46728268   37.02465813
     atom   32 type  2   force =    -0.49241731   -0.11293348  -39.20874231
     atom   33 type  1   force =     0.27547825   -2.92058577   -3.85990512
     atom   34 type  2   force =    -1.34535791   -3.14140263   38.40081141
     atom   35 type  2   force =    -0.48524827    0.24323661  -38.66990013
     atom   36 type  3   force =     2.46396634   -5.70593070   52.29983633
     The local contribution  to forces
     atom    1 type  1   force =    -0.54123613   -0.87566295   -4.31695815
     atom    2 type  2   force =     1.65617533   -0.74075378  -38.56244292
     atom    3 type  2   force =     0.35516875   -0.10091457   36.58669066
     atom    4 type  1   force =     0.15787325   -0.93048584    0.30650151
     atom    5 type  2   force =     0.89787628   -1.76537952  -38.31900987
     atom    6 type  2   force =    -0.36118489    0.37961959   38.29916886
     atom    7 type  1   force =     2.54647386    3.22915638   -1.51864645
     atom    8 type  2   force =     1.13150127    0.16214414  -36.92939107
     atom    9 type  2   force =    -0.28344232    0.11862949   38.24549737
     atom   10 type  1   force =     2.18265502    0.87089980   -3.83699685
     atom   11 type  2   force =     0.39996415    1.98398624  -38.63067640
     atom   12 type  2   force =    -0.45597841   -0.54608913   38.22921202
     atom   13 type  1   force =    -1.79445639   -2.89607847    0.54250329
     atom   14 type  2   force =    -1.55563665   -0.49667385  -37.55728974
     atom   15 type  2   force =    -0.37826860   -0.03527805   37.36442885
     atom   16 type  1   force =    -0.28278873   -4.34729023    0.60455322
     atom   17 type  2   force =    -1.12336288   -2.29249204  -37.31604487
     atom   18 type  2   force =     0.08401169    0.43602805   38.97184364
     atom   19 type  1   force =    -3.12384610    3.44027358    0.87524240
     atom   20 type  2   force =    -0.29201559    0.29055834   38.73852130
     atom   21 type  1   force =    -1.44354845    0.59332533    1.05053928
     atom   22 type  2   force =    -1.87844241    3.82916221  -37.01553968
     atom   23 type  2   force =    -0.07492103   -0.39877145   38.96800210
     atom   24 type  1   force =     2.03705867   -2.79018114   -2.91372103
     atom   25 type  2   force =     1.78207171   -7.91829906  -30.20207068
     atom   26 type  2   force =     0.32675818   -0.24514568   38.31335764
     atom   27 type  1   force =     0.03727589   -1.07128206    3.56504173
     atom   28 type  2   force =     0.32136405   -1.69675990  -37.62806731
     atom   29 type  2   force =     0.36620117    0.22554760   37.64444439
     atom   30 type  1   force =     0.81182230    1.81978245    1.42913275
     atom   31 type  2   force =    -1.18768610    0.46648566  -36.77532357
     atom   32 type  2   force =     0.48679993    0.12884566   38.96278908
     atom   33 type  1   force =    -0.27221664    2.85797009    3.71751238
     atom   34 type  2   force =     1.36133476    3.14340994  -38.15807265
     atom   35 type  2   force =     0.48162383   -0.22818279   38.43661174
     atom   36 type  3   force =    -1.76903126    3.46106482  -49.93808607
     The core correction contribution to forces
     atom    1 type  1   force =     0.00000000    0.00000000    0.00000000
     atom    2 type  2   force =    -0.00047934   -0.00062458    0.02077984
     atom    3 type  2   force =     0.00077385   -0.00022235   -0.02069398
     atom    4 type  1   force =     0.00000000    0.00000000    0.00000000
     atom    5 type  2   force =    -0.00057973    0.00194664    0.02047739
     atom    6 type  2   force =     0.00026255   -0.00098222   -0.02095361
     atom    7 type  1   force =     0.00000000    0.00000000    0.00000000
     atom    8 type  2   force =    -0.00008156    0.00065281    0.02044395
     atom    9 type  2   force =    -0.00005289    0.00055743   -0.02113602
     atom   10 type  1   force =     0.00000000    0.00000000    0.00000000
     atom   11 type  2   force =    -0.00068063   -0.00053736    0.02055916
     atom   12 type  2   force =     0.00110973    0.00134013   -0.02092100
     atom   13 type  1   force =     0.00000000    0.00000000    0.00000000
     atom   14 type  2   force =    -0.00035213   -0.00051205    0.02069034
     atom   15 type  2   force =     0.00056100    0.00022730   -0.02029837
     atom   16 type  1   force =     0.00000000    0.00000000    0.00000000
     atom   17 type  2   force =     0.00011209    0.00188121    0.02005816
     atom   18 type  2   force =     0.00022187   -0.00085222   -0.02087256
     atom   19 type  1   force =     0.00000000    0.00000000    0.00000000
     atom   20 type  2   force =     0.00009818    0.00093721   -0.02129904
     atom   21 type  1   force =     0.00000000    0.00000000    0.00000000
     atom   22 type  2   force =    -0.00145071    0.00094589    0.02080021
     atom   23 type  2   force =    -0.00095396    0.00134176   -0.02074110
     atom   24 type  1   force =     0.00000000    0.00000000    0.00000000
     atom   25 type  2   force =     0.00539661   -0.01735852    0.02879826
     atom   26 type  2   force =    -0.00015446    0.00044414   -0.02103872
     atom   27 type  1   force =     0.00000000    0.00000000    0.00000000
     atom   28 type  2   force =     0.00019959    0.00209450    0.02080083
     atom   29 type  2   force =    -0.00054797   -0.00072261   -0.02055720
     atom   30 type  1   force =     0.00000000    0.00000000    0.00000000
     atom   31 type  2   force =     0.00041468    0.00018473    0.02047467
     atom   32 type  2   force =    -0.00014963    0.00066315   -0.02110374
     atom   33 type  1   force =     0.00000000    0.00000000    0.00000000
     atom   34 type  2   force =     0.00137077    0.00180107    0.02123121
     atom   35 type  2   force =     0.00016852    0.00091873   -0.02104691
     atom   36 type  3   force =     0.00411722   -0.01404797    0.00953543
     The Hubbard contrib.    to forces
     atom    1 type  1   force =     0.00000000    0.00000000    0.00000000
     atom    2 type  2   force =     0.00000000    0.00000000    0.00000000
     atom    3 type  2   force =     0.00000000    0.00000000    0.00000000
     atom    4 type  1   force =     0.00000000    0.00000000    0.00000000
     atom    5 type  2   force =     0.00000000    0.00000000    0.00000000
     atom    6 type  2   force =     0.00000000    0.00000000    0.00000000
     atom    7 type  1   force =     0.00000000    0.00000000    0.00000000
     atom    8 type  2   force =     0.00000000    0.00000000    0.00000000
     atom    9 type  2   force =     0.00000000    0.00000000    0.00000000
     atom   10 type  1   force =     0.00000000    0.00000000    0.00000000
     atom   11 type  2   force =     0.00000000    0.00000000    0.00000000
     atom   12 type  2   force =     0.00000000    0.00000000    0.00000000
     atom   13 type  1   force =     0.00000000    0.00000000    0.00000000
     atom   14 type  2   force =     0.00000000    0.00000000    0.00000000
     atom   15 type  2   force =     0.00000000    0.00000000    0.00000000
     atom   16 type  1   force =     0.00000000    0.00000000    0.00000000
     atom   17 type  2   force =     0.00000000    0.00000000    0.00000000
     atom   18 type  2   force =     0.00000000    0.00000000    0.00000000
     atom   19 type  1   force =     0.00000000    0.00000000    0.00000000
     atom   20 type  2   force =     0.00000000    0.00000000    0.00000000
     atom   21 type  1   force =     0.00000000    0.00000000    0.00000000
     atom   22 type  2   force =     0.00000000    0.00000000    0.00000000
     atom   23 type  2   force =     0.00000000    0.00000000    0.00000000
     atom   24 type  1   force =     0.00000000    0.00000000    0.00000000
     atom   25 type  2   force =     0.00000000    0.00000000    0.00000000
     atom   26 type  2   force =     0.00000000    0.00000000    0.00000000
     atom   27 type  1   force =     0.00000000    0.00000000    0.00000000
     atom   28 type  2   force =     0.00000000    0.00000000    0.00000000
     atom   29 type  2   force =     0.00000000    0.00000000    0.00000000
     atom   30 type  1   force =     0.00000000    0.00000000    0.00000000
     atom   31 type  2   force =     0.00000000    0.00000000    0.00000000
     atom   32 type  2   force =     0.00000000    0.00000000    0.00000000
     atom   33 type  1   force =     0.00000000    0.00000000    0.00000000
     atom   34 type  2   force =     0.00000000    0.00000000    0.00000000
     atom   35 type  2   force =     0.00000000    0.00000000    0.00000000
     atom   36 type  3   force =     0.00000000    0.00000000    0.00000000
     The SCF correction term to forces
     atom    1 type  1   force =     0.00022292    0.00009538    0.00008948
     atom    2 type  2   force =    -0.00003353    0.00012331    0.00008299
     atom    3 type  2   force =     0.00000763    0.00008460   -0.00003575
     atom    4 type  1   force =    -0.00006385   -0.00016516    0.00023959
     atom    5 type  2   force =     0.00002845   -0.00000318    0.00012259
     atom    6 type  2   force =     0.00006584   -0.00006300    0.00002620
     atom    7 type  1   force =    -0.00014563   -0.00023209    0.00024957
     atom    8 type  2   force =    -0.00000387   -0.00008740    0.00007233
     atom    9 type  2   force =     0.00002363   -0.00004615    0.00003866
     atom   10 type  1   force =     0.00002904    0.00015760    0.00004544
     atom   11 type  2   force =    -0.00000167   -0.00001693    0.00007325
     atom   12 type  2   force =     0.00001804    0.00005438   -0.00001144
     atom   13 type  1   force =    -0.00023999    0.00004343    0.00010852
     atom   14 type  2   force =     0.00008286    0.00009240    0.00011297
     atom   15 type  2   force =     0.00006796    0.00003579   -0.00005169
     atom   16 type  1   force =     0.00008652    0.00013199    0.00029584
     atom   17 type  2   force =     0.00000663    0.00007633    0.00011283
     atom   18 type  2   force =    -0.00005635    0.00000174    0.00000890
     atom   19 type  1   force =     0.00022906   -0.00022335    0.00017383
     atom   20 type  2   force =     0.00000592   -0.00002506    0.00013355
     atom   21 type  1   force =     0.00000365   -0.00002712    0.00006123
     atom   22 type  2   force =     0.00003154   -0.00003119    0.00004496
     atom   23 type  2   force =    -0.00000553    0.00005542   -0.00001775
     atom   24 type  1   force =     0.00004226    0.00010733    0.00004404
     atom   25 type  2   force =    -0.00004378   -0.00004699   -0.00002456
     atom   26 type  2   force =    -0.00007309    0.00003572    0.00000407
     atom   27 type  1   force =    -0.00002245   -0.00017551    0.00021493
     atom   28 type  2   force =    -0.00002468    0.00000704    0.00009751
     atom   29 type  2   force =    -0.00000852   -0.00004756    0.00002741
     atom   30 type  1   force =    -0.00006728   -0.00007710    0.00011421
     atom   31 type  2   force =    -0.00000227   -0.00011620    0.00006907
     atom   32 type  2   force =    -0.00002410   -0.00004253    0.00004670
     atom   33 type  1   force =    -0.00008419    0.00022727    0.00000003
     atom   34 type  2   force =    -0.00002392   -0.00000669    0.00003318
     atom   35 type  2   force =    -0.00000491    0.00003924    0.00000027
     atom   36 type  3   force =    -0.00000323   -0.00004286    0.00019123

     Total force =     1.406531     Total SCF correction =     0.001036

     BFGS Geometry Optimization
     Energy error            =      0.0E+00 Ry
     Gradient error          =      8.5E-01 Ry/Bohr

     number of scf cycles    =   1
     number of bfgs steps    =   0

     energy             new  =   -2246.1355313356 Ry

     new trust radius        =       0.5000000000 bohr
     new conv_thr            =       0.0000010000 Ry


ATOMIC_POSITIONS (angstrom)
Mo            6.5781611447        1.7806413394        2.8271474084
S             8.1721300481        0.8143828926        4.4342016784
S             8.1905486091        0.8129194821        1.2757878112
Mo            8.0962080191        4.4957791873        2.7175531569
S             6.4996503437        3.7211352374        4.3450002658
S             6.5535869274        3.5148324268        1.1212100159
Mo            6.4917871471        7.2141392994        2.6699280008
S             8.0821299522        6.3429166865        4.2471204000
S             8.0842483236        6.3065325832        1.0870838509
Mo            8.1584554648        9.9036408196        2.8357736969
S             6.4964306115        8.9425378087        4.3812315488
S             6.6177006767        9.0490353019        1.1413358737
Mo            3.4245697948        1.7488644378        2.7784805745
S             4.9774300236        0.8171893171        4.3535287447
S             5.0543779834        0.8462383566        1.2239091285
Mo            4.9801442749        4.5163735683        2.6339457077
S             3.4298204458        3.6732649380        4.2801591593
S             3.4368899856        3.5477114263        1.0609076622
Mo            3.4558825180        7.2135123008        2.6289446705
S             4.9839946222        6.3259831119        1.0376709488
Mo            5.0103923065        9.9027962883        2.7434368968
S             3.4729353818        8.9391471505        4.3226702985
S             3.4090065795        9.0651969870        1.0990470814
Mo            0.2892094001        1.7464970260        2.8531885601
S             1.8153393154        0.9368743869        4.1884228526
S             1.8576622765        0.8540150101        1.2086329656
Mo            1.8607345443        4.4957335409        2.6628254918
S             0.2716857406        3.6563415437        4.3358137273
S             0.2321512612        3.5278881632        1.1706074059
Mo            0.2691956767        7.2195163528        2.6999337089
S             1.9024976313        6.3125614952        4.2270210340
S             1.8600041167        6.3118690870        1.0466929376
Mo            1.8432390678        9.9359535144        2.7475520398
S             0.2950121802        9.0769377152        4.4110870481
S             0.2744691343        9.0452719690        1.1548664198
O             2.1461677051       -0.1332843414        5.5676210997



     Writing config-only to output data dir ./MoS2-V-O.save/
     NEW-OLD atomic charge density approx. for the potential

     negative rho (up, down):  1.865E-04 0.000E+00

     total cpu time spent up to now is      111.6 secs

     Self-consistent Calculation

     iteration #  1     ecut=    80.00 Ry     beta= 0.70
     Davidson diagonalization with overlap
     ethr =  1.00E-06,  avg # of iterations = 15.0

     negative rho (up, down):  5.939E-03 0.000E+00

     total cpu time spent up to now is      125.6 secs

     total energy              =   -2246.23988976 Ry
     estimated scf accuracy    <       0.19053729 Ry

     iteration #  2     ecut=    80.00 Ry     beta= 0.70
     Davidson diagonalization with overlap
     ethr =  6.11E-05,  avg # of iterations =  5.0

     negative rho (up, down):  9.789E-03 0.000E+00

     total cpu time spent up to now is      141.6 secs

     total energy              =   -2246.25868662 Ry
     estimated scf accuracy    <       0.10792691 Ry

     iteration #  3     ecut=    80.00 Ry     beta= 0.70
     Davidson diagonalization with overlap
     ethr =  3.46E-05,  avg # of iterations =  3.0

     negative rho (up, down):  1.708E-02 0.000E+00

     total cpu time spent up to now is      153.6 secs

     total energy              =   -2246.26113538 Ry
     estimated scf accuracy    <       0.01733521 Ry

     iteration #  4     ecut=    80.00 Ry     beta= 0.70
     Davidson diagonalization with overlap
     ethr =  5.56E-06,  avg # of iterations =  3.0

     negative rho (up, down):  1.853E-02 0.000E+00

     total cpu time spent up to now is      170.3 secs

     total energy              =   -2246.26260607 Ry
     estimated scf accuracy    <       0.00706392 Ry

     iteration #  5     ecut=    80.00 Ry     beta= 0.70
     Davidson diagonalization with overlap
     ethr =  2.26E-06,  avg # of iterations =  2.0

     negative rho (up, down):  1.840E-02 0.000E+00

     total cpu time spent up to now is      180.6 secs

     total energy              =   -2246.26224177 Ry
     estimated scf accuracy    <       0.00235663 Ry

     iteration #  6     ecut=    80.00 Ry     beta= 0.70
     Davidson diagonalization with overlap
     ethr =  7.55E-07,  avg # of iterations =  5.0

     negative rho (up, down):  1.632E-02 0.000E+00

     total cpu time spent up to now is      193.5 secs

     total energy              =   -2246.26254854 Ry
     estimated scf accuracy    <       0.00077205 Ry

     iteration #  7     ecut=    80.00 Ry     beta= 0.70
     Davidson diagonalization with overlap
     ethr =  2.47E-07,  avg # of iterations =  4.0

     negative rho (up, down):  1.152E-02 0.000E+00

     total cpu time spent up to now is      203.9 secs

     total energy              =   -2246.26249346 Ry
     estimated scf accuracy    <       0.00014124 Ry

     iteration #  8     ecut=    80.00 Ry     beta= 0.70
     Davidson diagonalization with overlap
     ethr =  4.53E-08,  avg # of iterations =  5.0

     negative rho (up, down):  1.000E-02 0.000E+00

     total cpu time spent up to now is      215.4 secs

     total energy              =   -2246.26250333 Ry
     estimated scf accuracy    <       0.00018214 Ry

     iteration #  9     ecut=    80.00 Ry     beta= 0.70
     Davidson diagonalization with overlap
     ethr =  4.53E-08,  avg # of iterations =  2.0

     negative rho (up, down):  4.997E-03 0.000E+00

     total cpu time spent up to now is      223.7 secs

     total energy              =   -2246.26242408 Ry
     estimated scf accuracy    <       0.00007754 Ry

     iteration # 10     ecut=    80.00 Ry     beta= 0.70
     Davidson diagonalization with overlap
     ethr =  2.49E-08,  avg # of iterations =  5.0

     negative rho (up, down):  3.753E-03 0.000E+00

     total cpu time spent up to now is      234.7 secs

     total energy              =   -2246.26242170 Ry
     estimated scf accuracy    <       0.00002256 Ry

     iteration # 11     ecut=    80.00 Ry     beta= 0.70
     Davidson diagonalization with overlap
     ethr =  7.23E-09,  avg # of iterations =  4.0

     negative rho (up, down):  1.642E-03 0.000E+00

     total cpu time spent up to now is      244.0 secs

     total energy              =   -2246.26240712 Ry
     estimated scf accuracy    <       0.00000554 Ry

     iteration # 12     ecut=    80.00 Ry     beta= 0.70
     Davidson diagonalization with overlap
     ethr =  1.78E-09,  avg # of iterations =  3.0

     negative rho (up, down):  8.828E-04 0.000E+00

     total cpu time spent up to now is      252.1 secs

     total energy              =   -2246.26240275 Ry
     estimated scf accuracy    <       0.00000263 Ry

     iteration # 13     ecut=    80.00 Ry     beta= 0.70
     Davidson diagonalization with overlap
     ethr =  8.43E-10,  avg # of iterations =  2.0

     negative rho (up, down):  4.347E-04 0.000E+00

     total cpu time spent up to now is      262.2 secs

     total energy              =   -2246.26240029 Ry
     estimated scf accuracy    <       0.00000139 Ry

     iteration # 14     ecut=    80.00 Ry     beta= 0.70
     Davidson diagonalization with overlap
     ethr =  4.47E-10,  avg # of iterations =  2.0

     negative rho (up, down):  1.951E-04 0.000E+00

     total cpu time spent up to now is      266.5 secs

     End of self-consistent calculation

          k = 0.0000 0.0000 0.0000 (105382 PWs)   bands (ev):

   -63.0891 -63.0707 -63.0657 -63.0551 -63.0201 -62.9969 -62.9684 -62.9587
   -62.9521 -62.9017 -62.8828 -62.8592 -37.4662 -37.4054 -37.3486 -37.3389
   -37.3204 -37.3076 -37.2861 -37.2788 -37.2527 -37.2401 -37.2347 -37.2301
   -37.2267 -37.2070 -37.1995 -37.1908 -37.1759 -37.1669 -37.1496 -37.1412
   -37.1309 -37.1123 -37.0959 -37.0912 -37.0888 -37.0750 -37.0647 -37.0573
   -37.0451 -37.0387 -37.0182 -36.9975 -36.9809 -36.9337 -36.9227 -36.8485
   -19.6192 -16.1141 -15.3777 -15.3061 -15.1264 -15.0815 -14.9042 -14.7319
   -14.6505 -14.5771 -14.5646 -14.5427 -14.4991 -14.4554 -14.4366 -14.3365
   -14.2856 -14.2725 -14.2049 -14.1601 -14.0598 -14.0230 -13.9837 -13.9312
    -7.9488  -7.8850  -7.7473  -7.5874  -7.5186  -7.4255  -7.3714  -7.3360
    -7.2240  -7.0137  -6.9523  -6.9272  -6.8885  -6.8137  -6.6935  -6.6609
    -6.6120  -6.5649  -6.4724  -6.4153  -6.1865  -6.1246  -6.0593  -6.0225
    -5.9395  -5.9152  -5.8878  -5.8453  -5.8060  -5.7698  -5.7323  -5.6793
    -5.6715  -5.6377  -5.5396  -5.4850  -5.2955  -5.2328  -5.1962  -5.1449
    -5.1302  -5.0990  -4.9990  -4.8627  -4.8523  -4.6738  -4.6301  -4.4551
    -4.4218  -4.3184  -4.2652  -4.2227  -4.0432  -4.0151  -3.9787  -3.9297
    -3.9180  -3.8620  -3.7575  -3.7516  -3.6904  -3.6751  -3.6479  -3.6153
    -3.5707  -3.5419  -3.3537  -3.2836  -3.1697  -3.0955  -3.0534  -2.9852
    -2.9495  -2.9323  -2.8726  -2.8197  -2.8163  -2.7421  -2.5069  -2.4370
    -2.2431  -2.1468  -2.0318  -1.6807  -1.0151  -0.8622  -0.7381  -0.3736
    -0.3201  -0.2342  -0.1787  -0.0886  -0.0050   0.0521   0.0851   0.1197
     0.1611   0.2250   0.2578   0.3428   0.3956   0.4017   0.4378   0.4471
     0.5173   0.6018   0.6186   0.6296   0.6574   0.6771   0.7744   0.8314
     0.8535   0.9992   1.0577

     the Fermi energy is    -1.3479 ev

!    total energy              =   -2246.26240010 Ry
     estimated scf accuracy    <       0.00000032 Ry
     smearing contrib. (-TS)   =      -0.00002849 Ry
     internal energy E=F+TS    =   -2246.26237161 Ry

     The total energy is F=E-TS. E is the sum of the following terms:
     one-electron contribution =  -18449.41354646 Ry
     hartree contribution      =    9212.02471759 Ry
     xc contribution           =    -392.03987442 Ry
     ewald contribution        =    7393.03617919 Ry
     one-center paw contrib.   =      -9.86984751 Ry

     convergence has been achieved in  14 iterations

     negative rho (up, down):  1.951E-04 0.000E+00

     Forces acting on atoms (cartesian axes, Ry/au):

     atom    1 type  1   force =     0.00896282   -0.02138136    0.00407457
     atom    2 type  2   force =    -0.01554000    0.01270997    0.00205771
     atom    3 type  2   force =    -0.01190945    0.00341978   -0.01032281
     atom    4 type  1   force =     0.00639005    0.00362734   -0.00244037
     atom    5 type  2   force =    -0.00100810   -0.00551881   -0.00434324
     atom    6 type  2   force =     0.00082645    0.00918131    0.00101640
     atom    7 type  1   force =     0.00645837   -0.01372176   -0.00419589
     atom    8 type  2   force =     0.00182735   -0.00263969    0.01585813
     atom    9 type  2   force =     0.01126765    0.00610910    0.00925875
     atom   10 type  1   force =    -0.00514821    0.00426584   -0.02076171
     atom   11 type  2   force =     0.00479600   -0.00220167   -0.00750602
     atom   12 type  2   force =    -0.00163845    0.00003515    0.00253957
     atom   13 type  1   force =     0.04120125    0.03008075   -0.03633153
     atom   14 type  2   force =     0.00341554   -0.00095083    0.01242464
     atom   15 type  2   force =    -0.00973947    0.00000230   -0.00763773
     atom   16 type  1   force =     0.00005485    0.01080258    0.00369120
     atom   17 type  2   force =     0.00789385    0.00766349    0.00487650
     atom   18 type  2   force =    -0.00270981   -0.00129189    0.01052252
     atom   19 type  1   force =     0.00927570   -0.01267916   -0.00398576
     atom   20 type  2   force =     0.00359274   -0.00372214   -0.00130709
     atom   21 type  1   force =    -0.00744441    0.00232323    0.00284514
     atom   22 type  2   force =    -0.00587683   -0.00254124   -0.01239270
     atom   23 type  2   force =     0.00225081   -0.00033408    0.00569405
     atom   24 type  1   force =    -0.08909552    0.04137813   -0.06524412
     atom   25 type  2   force =     0.10999832   -0.18171479    0.21106100
     atom   26 type  2   force =    -0.01066823    0.00036125   -0.01905591
     atom   27 type  1   force =     0.00024275   -0.00053130    0.00430094
     atom   28 type  2   force =    -0.00263908    0.00992539   -0.00210968
     atom   29 type  2   force =     0.00228921    0.00396102   -0.00374088
     atom   30 type  1   force =    -0.00831678    0.00547036   -0.00217087
     atom   31 type  2   force =     0.00077396    0.00078851    0.01519489
     atom   32 type  2   force =    -0.00821832    0.00522203    0.00673865
     atom   33 type  1   force =     0.00107245   -0.02034174   -0.04139172
     atom   34 type  2   force =     0.00723563   -0.03565952   -0.01376428
     atom   35 type  2   force =    -0.00896736    0.00599779    0.00813187
     atom   36 type  3   force =    -0.04090570    0.14190462   -0.06158422
     The non-local contrib.  to forces
     atom    1 type  1   force =    -0.00518845    0.03418282   -0.00719928
     atom    2 type  2   force =    -0.00426033    0.00732787   -0.27734068
     atom    3 type  2   force =    -0.01731816   -0.00329206    0.26130669
     atom    4 type  1   force =    -0.00119781    0.01201219    0.00677988
     atom    5 type  2   force =     0.00554835   -0.03546082   -0.25764713
     atom    6 type  2   force =    -0.00179106    0.00908878    0.26554571
     atom    7 type  1   force =    -0.01834039    0.00948530   -0.02175401
     atom    8 type  2   force =     0.00436210   -0.00397203   -0.25804967
     atom    9 type  2   force =     0.00469349   -0.00995821    0.27841789
     atom   10 type  1   force =     0.00535041   -0.00304125   -0.00192532
     atom   11 type  2   force =     0.01373117    0.00528314   -0.26190699
     atom   12 type  2   force =    -0.01252009   -0.01764149    0.26332029
     atom   13 type  1   force =    -0.00823322    0.00865213    0.00041992
     atom   14 type  2   force =     0.01306945   -0.00242016   -0.27168218
     atom   15 type  2   force =    -0.00904214   -0.00494327    0.25259819
     atom   16 type  1   force =     0.00146571    0.03179149   -0.02812304
     atom   17 type  2   force =     0.00260557   -0.03214982   -0.25345272
     atom   18 type  2   force =    -0.00639195    0.00180186    0.27129114
     atom   19 type  1   force =     0.01244761    0.01313374   -0.01419043
     atom   20 type  2   force =     0.00013658   -0.02273273    0.26681605
     atom   21 type  1   force =     0.00381408    0.02155353    0.00619793
     atom   22 type  2   force =     0.01308204   -0.00247024   -0.25423744
     atom   23 type  2   force =     0.00858187   -0.01445083    0.26456025
     atom   24 type  1   force =     0.01942491   -0.00211625   -0.00277071
     atom   25 type  2   force =     0.09823908   -0.28145310    0.36709000
     atom   26 type  2   force =     0.00019456   -0.00691233    0.26152162
     atom   27 type  1   force =    -0.00342368    0.01935830    0.00845931
     atom   28 type  2   force =    -0.00647628   -0.02581511   -0.27745939
     atom   29 type  2   force =     0.00753151    0.00490708    0.26314020
     atom   30 type  1   force =    -0.00023188    0.02684942    0.01047527
     atom   31 type  2   force =    -0.00793132   -0.00319427   -0.25515851
     atom   32 type  2   force =    -0.00211043   -0.01175483    0.27488227
     atom   33 type  1   force =    -0.00685381    0.01178991    0.02252344
     atom   34 type  2   force =    -0.01824216   -0.03827776   -0.28227689
     atom   35 type  2   force =    -0.00165828   -0.00841688    0.26756406
     atom   36 type  3   force =    -0.29979725    1.04322140   -1.10101529
     The ionic contribution  to forces
     atom    1 type  1   force =     0.34128311    0.91223653    4.51606331
     atom    2 type  2   force =    -1.49193481    0.55753268   38.98323139
     atom    3 type  2   force =    -0.37267403    0.12566600  -36.90224111
     atom    4 type  1   force =    -0.21911417    0.91552267   -0.29640758
     atom    5 type  2   force =    -0.91994069    1.76570941   38.52922529
     atom    6 type  2   force =     0.33306829   -0.42309582  -38.48728835
     atom    7 type  1   force =    -2.55377959   -3.10152408    1.54041873
     atom    8 type  2   force =    -1.12909490   -0.13257368   37.25610214
     atom    9 type  2   force =     0.28486464   -0.12027526  -38.48066613
     atom   10 type  1   force =    -2.03829036   -0.86889774    3.82665671
     atom   11 type  2   force =    -0.39498562   -1.95685186   38.82262182
     atom   12 type  2   force =     0.40663406    0.54019395  -38.42610582
     atom   13 type  1   force =     2.68442834    2.74573895   -0.40071807
     atom   14 type  2   force =     1.28512673    0.42359371   37.91498192
     atom   15 type  2   force =     0.39214897    0.05880694  -37.59265724
     atom   16 type  1   force =     0.32533623    4.20919840   -0.47725459
     atom   17 type  2   force =     1.17721292    2.29249197   37.65691258
     atom   18 type  2   force =    -0.04577946   -0.41919660  -39.19030371
     atom   19 type  1   force =     3.05343677   -3.32196084   -0.81788322
     atom   20 type  2   force =     0.28910009   -0.26238799  -39.00794089
     atom   21 type  1   force =     1.26246023   -0.57048584   -0.77969706
     atom   22 type  2   force =     1.64523663   -3.50805318   37.04148812
     atom   23 type  2   force =     0.15994249    0.36685987  -39.15569461
     atom   24 type  1   force =    -3.09439346    2.93511267    2.74236819
     atom   25 type  2   force =    -0.14225607    3.03022043   32.77137600
     atom   26 type  2   force =    -0.29062020    0.30541268  -38.66495475
     atom   27 type  1   force =    -0.01563716    1.22463786   -3.42878404
     atom   28 type  2   force =    -0.34907952    1.75573146   37.97749296
     atom   29 type  2   force =    -0.37267549   -0.20421644  -37.92156245
     atom   30 type  1   force =    -0.72631038   -1.82312027   -1.36079091
     atom   31 type  2   force =     1.18639059   -0.39943875   37.05495235
     atom   32 type  2   force =    -0.48240592   -0.12720032  -39.16710224
     atom   33 type  1   force =     0.43535308   -2.71387761   -3.51378608
     atom   34 type  2   force =    -1.10278184   -2.69044674   38.30878994
     atom   35 type  2   force =    -0.54295051    0.18856433  -38.65186123
     atom   36 type  3   force =     1.02268101   -1.70962748   47.78101865
     The local contribution  to forces
     atom    1 type  1   force =    -0.32712444   -0.96802101   -4.50531240
     atom    2 type  2   force =     1.48075435   -0.55159409  -38.72522371
     atom    3 type  2   force =     0.37729330   -0.11901176   36.65088341
     atom    4 type  1   force =     0.22679053   -0.92404474    0.28658878
     atom    5 type  2   force =     0.91397603   -1.73783292  -38.29666764
     atom    6 type  2   force =    -0.33071625    0.42412760   38.24341243
     atom    7 type  1   force =     2.57855676    3.07853058   -1.52342026
     atom    8 type  2   force =     1.12667213    0.13335759  -37.00294127
     atom    9 type  2   force =    -0.27831788    0.13580438   38.23228860
     atom   10 type  1   force =     2.02779484    0.87632833   -3.84594286
     atom   11 type  2   force =     0.38667113    1.94998040  -38.58914028
     atom   12 type  2   force =    -0.39686103   -0.52385876   38.18592162
     atom   13 type  1   force =    -2.63485820   -2.72437786    0.36329807
     atom   14 type  2   force =    -1.29388651   -0.42166457  -37.65234722
     atom   15 type  2   force =    -0.39337927   -0.05418016   37.35236317
     atom   16 type  1   force =    -0.32682496   -4.23029828    0.50849008
     atom   17 type  2   force =    -1.17200655   -2.25450564  -37.41916280
     atom   18 type  2   force =     0.04926144    0.41677394   38.95018531
     atom   19 type  1   force =    -3.05660659    3.29632918    0.82754315
     atom   20 type  2   force =    -0.28572555    0.28050342   38.76074525
     atom   21 type  1   force =    -1.27367472    0.55134195    0.77582397
     atom   22 type  2   force =    -1.66284589    3.50749060  -36.82061784
     atom   23 type  2   force =    -0.16569183   -0.35391158   38.91730321
     atom   24 type  1   force =     2.98568793   -2.89168168   -2.80545851
     atom   25 type  2   force =     0.15874221   -2.94569371  -32.91637357
     atom   26 type  2   force =     0.28002650   -0.29860215   38.40484512
     atom   27 type  1   force =     0.01929537   -1.24468529    3.42405039
     atom   28 type  2   force =     0.35263197   -1.72210296  -37.72342107
     atom   29 type  2   force =     0.36803497    0.20393574   37.67496041
     atom   30 type  1   force =     0.71823421    1.80192310    1.34760605
     atom   31 type  2   force =    -1.17813005    0.40305075  -36.80531195
     atom   32 type  2   force =     0.47647480    0.14347828   38.91970674
     atom   33 type  1   force =    -0.42746234    2.68176833    3.44933601
     atom   34 type  2   force =     1.12653994    2.69145468  -38.06232972
     atom   35 type  2   force =     0.53579353   -0.17489324   38.41312534
     atom   36 type  3   force =    -0.76721714    0.82044402  -46.75343684
     The core correction contribution to forces
     atom    1 type  1   force =     0.00000000    0.00000000    0.00000000
     atom    2 type  2   force =    -0.00008752   -0.00060284    0.02128559
     atom    3 type  2   force =     0.00079680    0.00005264   -0.02051938
     atom    4 type  1   force =     0.00000000    0.00000000    0.00000000
     atom    5 type  2   force =    -0.00059580    0.00196827    0.02062587
     atom    6 type  2   force =     0.00026698   -0.00101553   -0.02097021
     atom    7 type  1   force =     0.00000000    0.00000000    0.00000000
     atom    8 type  2   force =    -0.00011350    0.00061900    0.02061495
     atom    9 type  2   force =     0.00001777    0.00058288   -0.02112725
     atom   10 type  1   force =     0.00000000    0.00000000    0.00000000
     atom   11 type  2   force =    -0.00062162   -0.00054355    0.02078625
     atom   12 type  2   force =     0.00110182    0.00136907   -0.02087510
     atom   13 type  1   force =     0.00000000    0.00000000    0.00000000
     atom   14 type  2   force =    -0.00088227   -0.00050182    0.02138634
     atom   15 type  2   force =     0.00054147    0.00030528   -0.02020211
     atom   16 type  1   force =     0.00000000    0.00000000    0.00000000
     atom   17 type  2   force =     0.00004620    0.00175280    0.02047663
     atom   18 type  2   force =     0.00017734   -0.00072816   -0.02095552
     atom   19 type  1   force =     0.00000000    0.00000000    0.00000000
     atom   20 type  2   force =     0.00009605    0.00094399   -0.02126959
     atom   21 type  1   force =     0.00000000    0.00000000    0.00000000
     atom   22 type  2   force =    -0.00135451    0.00056757    0.02094326
     atom   23 type  2   force =    -0.00056586    0.00120487   -0.02078577
     atom   24 type  1   force =     0.00000000    0.00000000    0.00000000
     atom   25 type  2   force =    -0.00471177    0.01508517   -0.01086295
     atom   26 type  2   force =    -0.00028338    0.00047235   -0.02075737
     atom   27 type  1   force =     0.00000000    0.00000000    0.00000000
     atom   28 type  2   force =     0.00031858    0.00201194    0.02115842
     atom   29 type  2   force =    -0.00058343   -0.00073332   -0.02056627
     atom   30 type  1   force =     0.00000000    0.00000000    0.00000000
     atom   31 type  2   force =     0.00044508    0.00040986    0.02060930
     atom   32 type  2   force =    -0.00018306    0.00070798   -0.02109237
     atom   33 type  1   force =     0.00000000    0.00000000    0.00000000
     atom   34 type  2   force =     0.00171651    0.00169114    0.02200265
     atom   35 type  2   force =    -0.00016796    0.00078292   -0.02100728
     atom   36 type  3   force =     0.00341444   -0.01205086    0.01202044
     The Hubbard contrib.    to forces
     atom    1 type  1   force =     0.00000000    0.00000000    0.00000000
     atom    2 type  2   force =     0.00000000    0.00000000    0.00000000
     atom    3 type  2   force =     0.00000000    0.00000000    0.00000000
     atom    4 type  1   force =     0.00000000    0.00000000    0.00000000
     atom    5 type  2   force =     0.00000000    0.00000000    0.00000000
     atom    6 type  2   force =     0.00000000    0.00000000    0.00000000
     atom    7 type  1   force =     0.00000000    0.00000000    0.00000000
     atom    8 type  2   force =     0.00000000    0.00000000    0.00000000
     atom    9 type  2   force =     0.00000000    0.00000000    0.00000000
     atom   10 type  1   force =     0.00000000    0.00000000    0.00000000
     atom   11 type  2   force =     0.00000000    0.00000000    0.00000000
     atom   12 type  2   force =     0.00000000    0.00000000    0.00000000
     atom   13 type  1   force =     0.00000000    0.00000000    0.00000000
     atom   14 type  2   force =     0.00000000    0.00000000    0.00000000
     atom   15 type  2   force =     0.00000000    0.00000000    0.00000000
     atom   16 type  1   force =     0.00000000    0.00000000    0.00000000
     atom   17 type  2   force =     0.00000000    0.00000000    0.00000000
     atom   18 type  2   force =     0.00000000    0.00000000    0.00000000
     atom   19 type  1   force =     0.00000000    0.00000000    0.00000000
     atom   20 type  2   force =     0.00000000    0.00000000    0.00000000
     atom   21 type  1   force =     0.00000000    0.00000000    0.00000000
     atom   22 type  2   force =     0.00000000    0.00000000    0.00000000
     atom   23 type  2   force =     0.00000000    0.00000000    0.00000000
     atom   24 type  1   force =     0.00000000    0.00000000    0.00000000
     atom   25 type  2   force =     0.00000000    0.00000000    0.00000000
     atom   26 type  2   force =     0.00000000    0.00000000    0.00000000
     atom   27 type  1   force =     0.00000000    0.00000000    0.00000000
     atom   28 type  2   force =     0.00000000    0.00000000    0.00000000
     atom   29 type  2   force =     0.00000000    0.00000000    0.00000000
     atom   30 type  1   force =     0.00000000    0.00000000    0.00000000
     atom   31 type  2   force =     0.00000000    0.00000000    0.00000000
     atom   32 type  2   force =     0.00000000    0.00000000    0.00000000
     atom   33 type  1   force =     0.00000000    0.00000000    0.00000000
     atom   34 type  2   force =     0.00000000    0.00000000    0.00000000
     atom   35 type  2   force =     0.00000000    0.00000000    0.00000000
     atom   36 type  3   force =     0.00000000    0.00000000    0.00000000
     The SCF correction term to forces
     atom    1 type  1   force =    -0.00000811    0.00021950    0.00050229
     atom    2 type  2   force =    -0.00001239    0.00004556    0.00008446
     atom    3 type  2   force =    -0.00000807    0.00000416    0.00022694
     atom    4 type  1   force =    -0.00008920    0.00013642    0.00057789
     atom    5 type  2   force =     0.00000331    0.00009646    0.00009971
     atom    6 type  2   force =    -0.00000221    0.00007549    0.00029617
     atom    7 type  1   force =     0.00002089   -0.00021437    0.00053900
     atom    8 type  2   force =     0.00000081   -0.00007136    0.00011134
     atom    9 type  2   force =     0.00000892   -0.00004548    0.00032500
     atom   10 type  1   force =    -0.00000380   -0.00012430    0.00042911
     atom   11 type  2   force =     0.00000023   -0.00007059    0.00011253
     atom   12 type  2   force =     0.00000609   -0.00002842    0.00025793
     atom   13 type  1   force =    -0.00013638    0.00006674    0.00064790
     atom   14 type  2   force =    -0.00001256    0.00004121    0.00006513
     atom   15 type  2   force =    -0.00000922    0.00001270    0.00023961
     atom   16 type  1   force =     0.00007717    0.00011017    0.00055810
     atom   17 type  2   force =     0.00003500    0.00007340    0.00008216
     atom   18 type  2   force =     0.00002211    0.00005628    0.00028465
     atom   19 type  1   force =    -0.00000280   -0.00018203    0.00052410
     atom   20 type  2   force =    -0.00001514   -0.00004963    0.00032144
     atom   21 type  1   force =    -0.00004471   -0.00008720    0.00049964
     atom   22 type  2   force =     0.00000420   -0.00007679    0.00001055
     atom   23 type  2   force =    -0.00001656   -0.00003720    0.00029032
     atom   24 type  1   force =     0.00018440    0.00006259    0.00059625
     atom   25 type  2   force =    -0.00001582    0.00012562   -0.00018913
     atom   26 type  2   force =     0.00001359   -0.00001010    0.00026882
     atom   27 type  1   force =     0.00000750    0.00015704    0.00055462
     atom   28 type  2   force =    -0.00003452    0.00009927    0.00009874
     atom   29 type  2   force =    -0.00001906    0.00006716    0.00026657
     atom   30 type  1   force =    -0.00000944   -0.00018269    0.00051807
     atom   31 type  2   force =    -0.00000105   -0.00003987    0.00008304
     atom   32 type  2   force =     0.00000559   -0.00000987    0.00032360
     atom   33 type  1   force =     0.00003481   -0.00002317    0.00051426
     atom   34 type  2   force =     0.00000248   -0.00008164    0.00002909
     atom   35 type  2   force =     0.00001517   -0.00004015    0.00029033
     atom   36 type  3   force =     0.00001253   -0.00008325   -0.00019183

     Total force =     0.376953     Total SCF correction =     0.002246
     Energy error            =      1.3E-01 Ry
     Gradient error          =      2.1E-01 Ry/Bohr

     number of scf cycles    =   2
     number of bfgs steps    =   1

     energy             old  =   -2246.1355313356 Ry
     energy             new  =   -2246.2624001025 Ry

     CASE: energy            _new < energy            _old

     new trust radius        =       0.1518529324 bohr
     new conv_thr            =       0.0000002111 Ry


ATOMIC_POSITIONS (angstrom)
Mo            6.5828745839        1.7697058366        2.8296856277
S             8.1643155191        0.8209725606        4.4350361467
S             8.1847349672        0.8147814675        1.2707978018
Mo            8.0992434737        4.4975296298        2.7164223741
S             6.4991515076        3.7184343567        4.3427353859
S             6.5540011613        3.5195320799        1.1216426047
Mo            6.4950140895        7.2071850507        2.6676651080
S             8.0830199239        6.3415518052        4.2550918900
S             8.0899166351        6.3096110192        1.0918443554
Mo            8.1557292977        9.9058291539        2.8249999040
S             6.4988104431        8.9414858356        4.3775287896
S             6.6169269402        9.0491196096        1.1427574002
Mo            3.4433280033        1.7625137869        2.7629112314
S             4.9794147649        0.8168233783        4.3596353026
S             5.0493559364        0.8462343245        1.2199624696
Mo            4.9802507425        4.5218084230        2.6357962457
S             3.4337162159        3.6769927009        4.2824016764
S             3.4354780279        3.5470327742        1.0660833749
Mo            3.4603956111        7.2073326351        2.6268219320
S             4.9857379382        6.3241427362        1.0371840698
Mo            5.0067171733        9.9040732233        2.7446971907
S             3.4707678530        8.9370504631        4.3165936536
S             3.4101202010        9.0650938601        1.1021867011
Mo            0.2485208713        1.7645000184        2.8252578934
S             1.8563101358        0.8874898094        4.2367945459
S             1.8522988503        0.8540867936        1.2000799121
Mo            1.8608506030        4.4955138008        2.6652772756
S             0.2704116433        3.6611241078        4.3345088813
S             0.2333545584        3.5297678260        1.1686608073
Mo            0.2651184334        7.2225344391        2.6986035486
S             1.9028934790        6.3128582564        4.2346831102
S             1.8559112610        6.3144921911        1.0501129883
Mo            1.8434760171        9.9261084734        2.7239347919
S             0.2980066013        9.0584637714        4.4044359564
S             0.2700320159        9.0482835544        1.1593951460
O             2.1376437548       -0.0991133420        5.5881137789



     Writing config-only to output data dir ./MoS2-V-O.save/
     NEW-OLD atomic charge density approx. for the potential

     negative rho (up, down):  1.760E-04 0.000E+00

     total cpu time spent up to now is      274.8 secs

     Self-consistent Calculation

     iteration #  1     ecut=    80.00 Ry     beta= 0.70
     Davidson diagonalization with overlap
     ethr =  1.00E-06,  avg # of iterations = 15.0

     negative rho (up, down):  1.130E-04 0.000E+00

     total cpu time spent up to now is      288.0 secs

     total energy              =   -2246.32259171 Ry
     estimated scf accuracy    <       0.00941005 Ry

     iteration #  2     ecut=    80.00 Ry     beta= 0.70
     Davidson diagonalization with overlap
     ethr =  3.02E-06,  avg # of iterations =  2.0

     negative rho (up, down):  9.473E-05 0.000E+00

     total cpu time spent up to now is      301.7 secs

     total energy              =   -2246.32295737 Ry
     estimated scf accuracy    <       0.00237761 Ry

     iteration #  3     ecut=    80.00 Ry     beta= 0.70
     Davidson diagonalization with overlap
     ethr =  7.62E-07,  avg # of iterations =  2.0

     negative rho (up, down):  8.530E-05 0.000E+00

     total cpu time spent up to now is      315.9 secs

     total energy              =   -2246.32300298 Ry
     estimated scf accuracy    <       0.00049567 Ry

     iteration #  4     ecut=    80.00 Ry     beta= 0.70
     Davidson diagonalization with overlap
     ethr =  1.59E-07,  avg # of iterations =  5.0

     negative rho (up, down):  8.061E-05 0.000E+00

     total cpu time spent up to now is      331.8 secs

     total energy              =   -2246.32307854 Ry
     estimated scf accuracy    <       0.00004460 Ry

     iteration #  5     ecut=    80.00 Ry     beta= 0.70
     Davidson diagonalization with overlap
     ethr =  1.43E-08,  avg # of iterations =  5.0

     negative rho (up, down):  7.385E-05 0.000E+00

     total cpu time spent up to now is      348.0 secs

     total energy              =   -2246.32308725 Ry
     estimated scf accuracy    <       0.00001520 Ry

     iteration #  6     ecut=    80.00 Ry     beta= 0.70
     Davidson diagonalization with overlap
     ethr =  4.87E-09,  avg # of iterations =  2.0

     negative rho (up, down):  6.672E-05 0.000E+00

     total cpu time spent up to now is      361.0 secs

     total energy              =   -2246.32308841 Ry
     estimated scf accuracy    <       0.00000385 Ry

     iteration #  7     ecut=    80.00 Ry     beta= 0.70
     Davidson diagonalization with overlap
     ethr =  1.23E-09,  avg # of iterations =  5.0

     negative rho (up, down):  6.665E-05 0.000E+00

     total cpu time spent up to now is      374.4 secs

     total energy              =   -2246.32308925 Ry
     estimated scf accuracy    <       0.00000120 Ry

     iteration #  8     ecut=    80.00 Ry     beta= 0.70
     Davidson diagonalization with overlap
     ethr =  3.86E-10,  avg # of iterations =  3.0

     negative rho (up, down):  8.095E-05 0.000E+00

     total cpu time spent up to now is      387.7 secs

     total energy              =   -2246.32308974 Ry
     estimated scf accuracy    <       0.00000050 Ry

     iteration #  9     ecut=    80.00 Ry     beta= 0.70
     Davidson diagonalization with overlap
     ethr =  1.60E-10,  avg # of iterations =  5.0

     negative rho (up, down):  1.937E-04 0.000E+00

     total cpu time spent up to now is      392.2 secs

     End of self-consistent calculation

          k = 0.0000 0.0000 0.0000 (105382 PWs)   bands (ev):

   -63.0796 -63.0527 -63.0456 -63.0360 -63.0118 -62.9878 -62.9610 -62.9494
   -62.9428 -62.9037 -62.8808 -62.8362 -37.4057 -37.3699 -37.3307 -37.3279
   -37.3062 -37.2898 -37.2733 -37.2609 -37.2338 -37.2241 -37.2189 -37.2158
   -37.2097 -37.1925 -37.1897 -37.1784 -37.1620 -37.1595 -37.1393 -37.1349
   -37.1208 -37.1027 -37.0870 -37.0774 -37.0717 -37.0684 -37.0601 -37.0544
   -37.0399 -37.0278 -37.0005 -36.9880 -36.9728 -36.9250 -36.9129 -36.8482
   -20.2933 -16.0960 -15.3449 -15.2817 -15.0918 -15.0648 -14.8969 -14.6686
   -14.6412 -14.5646 -14.5528 -14.5360 -14.4697 -14.4416 -14.4083 -14.3123
   -14.2729 -14.2672 -14.1672 -14.1325 -14.0489 -14.0074 -13.9977 -13.9237
    -7.8935  -7.7966  -7.7160  -7.5496  -7.4986  -7.4297  -7.3655  -7.3351
    -7.2368  -7.0105  -6.9538  -6.9299  -6.8861  -6.7979  -6.7112  -6.6674
    -6.6079  -6.5740  -6.4677  -6.4100  -6.1639  -6.1334  -6.0563  -6.0018
    -5.9371  -5.9067  -5.8743  -5.8427  -5.8099  -5.7689  -5.7197  -5.6728
    -5.6598  -5.6234  -5.5191  -5.4626  -5.3020  -5.2139  -5.1986  -5.1398
    -5.1323  -5.1005  -4.9960  -4.8705  -4.8230  -4.6743  -4.5923  -4.4543
    -4.4026  -4.3363  -4.2634  -4.2371  -4.0704  -4.0097  -3.9794  -3.9429
    -3.9139  -3.8501  -3.7634  -3.7400  -3.6894  -3.6624  -3.6378  -3.5958
    -3.5473  -3.5371  -3.3574  -3.2868  -3.1355  -3.0963  -3.0719  -2.9915
    -2.9468  -2.9143  -2.8711  -2.8167  -2.7987  -2.7345  -2.6094  -2.4233
    -2.2677  -2.1328  -2.0578  -1.8304  -0.9771  -0.8681  -0.6326  -0.3484
    -0.3000  -0.2125  -0.1815  -0.0603   0.0054   0.0595   0.1107   0.1367
     0.1538   0.2403   0.2808   0.3590   0.4059   0.4224   0.4551   0.4632
     0.5742   0.5921   0.6387   0.6440   0.6676   0.6871   0.7912   0.8405
     0.8621   0.9657   1.0496

     the Fermi energy is    -1.4038 ev

!    total energy              =   -2246.32308980 Ry
     estimated scf accuracy    <       0.00000015 Ry
     smearing contrib. (-TS)   =      -0.00000061 Ry
     internal energy E=F+TS    =   -2246.32308920 Ry

     The total energy is F=E-TS. E is the sum of the following terms:
     one-electron contribution =  -18439.54128690 Ry
     hartree contribution      =    9207.17616114 Ry
     xc contribution           =    -392.03281811 Ry
     ewald contribution        =    7387.94230300 Ry
     one-center paw contrib.   =      -9.86744832 Ry

     convergence has been achieved in   9 iterations

     negative rho (up, down):  1.937E-04 0.000E+00

     Forces acting on atoms (cartesian axes, Ry/au):

     atom    1 type  1   force =    -0.00003082   -0.01374311    0.00033415
     atom    2 type  2   force =    -0.01117724    0.00929772   -0.00112996
     atom    3 type  2   force =    -0.01687779    0.00224897   -0.01725847
     atom    4 type  1   force =     0.00384334    0.00559686    0.00064524
     atom    5 type  2   force =     0.00071750   -0.00518053   -0.00500344
     atom    6 type  2   force =     0.00049781    0.00689049    0.00239180
     atom    7 type  1   force =     0.00452873   -0.00956930   -0.00052972
     atom    8 type  2   force =     0.00139022   -0.00348879    0.01169839
     atom    9 type  2   force =     0.00981976    0.00475545    0.00550233
     atom   10 type  1   force =    -0.00146899    0.00802802   -0.00679449
     atom   11 type  2   force =     0.00421428   -0.00199031   -0.00935884
     atom   12 type  2   force =    -0.00371243   -0.00117968    0.00071740
     atom   13 type  1   force =     0.01893750    0.01285038   -0.01167017
     atom   14 type  2   force =     0.00369334    0.00058450    0.00707952
     atom   15 type  2   force =    -0.00491918   -0.00075526   -0.00936851
     atom   16 type  1   force =     0.00099697    0.00903329    0.00259096
     atom   17 type  2   force =     0.00751989    0.00599539    0.00268757
     atom   18 type  2   force =    -0.00045308    0.00215611    0.00565526
     atom   19 type  1   force =     0.00575050   -0.00866904    0.00023162
     atom   20 type  2   force =     0.00412862   -0.00388408   -0.00370827
     atom   21 type  1   force =    -0.00502034    0.00366506    0.00203784
     atom   22 type  2   force =    -0.00655484   -0.00325813   -0.01267908
     atom   23 type  2   force =     0.00551601   -0.00377842   -0.00149384
     atom   24 type  1   force =    -0.01232525    0.00694944   -0.00605923
     atom   25 type  2   force =     0.05682356   -0.14575912    0.13726444
     atom   26 type  2   force =    -0.01036309    0.00607419   -0.01055083
     atom   27 type  1   force =    -0.00139652   -0.00273687    0.00693244
     atom   28 type  2   force =    -0.00385586    0.00435095   -0.00411136
     atom   29 type  2   force =    -0.00047807    0.00766634   -0.00929931
     atom   30 type  1   force =    -0.00539990    0.00186304    0.00333985
     atom   31 type  2   force =     0.00067983    0.00069922    0.00992397
     atom   32 type  2   force =    -0.00679953    0.00436904    0.00544377
     atom   33 type  1   force =     0.00282091   -0.01101244   -0.01893837
     atom   34 type  2   force =     0.00502024   -0.02605371   -0.01843338
     atom   35 type  2   force =    -0.01161209    0.00254427   -0.00189288
     atom   36 type  3   force =    -0.03445400    0.13544004   -0.05619643
     The non-local contrib.  to forces
     atom    1 type  1   force =    -0.00119139    0.03234604   -0.00823257
     atom    2 type  2   force =    -0.00571215    0.00262319   -0.27550964
     atom    3 type  2   force =    -0.01867389   -0.00430119    0.25573630
     atom    4 type  1   force =     0.00070218    0.01215774    0.00579066
     atom    5 type  2   force =     0.00661830   -0.03537497   -0.25824024
     atom    6 type  2   force =    -0.00212122    0.00589668    0.26697679
     atom    7 type  1   force =    -0.01743355    0.00715852   -0.02318180
     atom    8 type  2   force =     0.00462225   -0.00461834   -0.26026220
     atom    9 type  2   force =     0.00318209   -0.01079066    0.27573591
     atom   10 type  1   force =     0.00513394   -0.00279199   -0.00267460
     atom   11 type  2   force =     0.01220456    0.00493692   -0.26407653
     atom   12 type  2   force =    -0.01352282   -0.01863941    0.26328326
[...]
     atom   28 type  2   force =    -0.00013979   -0.01215106   -0.27773939
     atom   29 type  2   force =     0.00040254   -0.00772415    0.26569672
     atom   30 type  1   force =    -0.00492079    0.01774406    0.00446871
     atom   31 type  2   force =    -0.00687768    0.00003225   -0.26837110
     atom   32 type  2   force =     0.00678663   -0.01289271    0.27174620
     atom   33 type  1   force =    -0.00154477    0.01730771    0.01700353
     atom   34 type  2   force =     0.00279819   -0.00531477   -0.27836852
     atom   35 type  2   force =     0.00078806   -0.01406809    0.26554137
     atom   36 type  3   force =     0.00701160   -0.02280393   -2.32072173
     The ionic contribution  to forces
     atom    1 type  1   force =    -0.19916555    1.06794214    1.36261298
     atom    2 type  2   force =    -1.17658988   -0.05514036   38.16124566
     atom    3 type  2   force =     0.01167077   -0.06437066  -38.32532685
     atom    4 type  1   force =    -0.56311382    0.88300325   -0.04430636
     atom    5 type  2   force =    -0.82507395    1.43778746   38.07482319
     atom    6 type  2   force =     0.17969507   -0.23149733  -38.31024684
     atom    7 type  1   force =    -2.64474472   -2.00216481    1.58679369
     atom    8 type  2   force =    -1.31032049    0.19842500   38.09649837
     atom    9 type  2   force =     0.29313482   -0.05155367  -38.35709654
     atom   10 type  1   force =    -1.01026922   -0.98570129    1.12740455
     atom   11 type  2   force =    -0.45969011   -1.70009851   38.12348875
     atom   12 type  2   force =     0.20452598    0.19716478  -38.46097124
     atom   13 type  1   force =     1.11141391    1.22525234   -1.33068680
     atom   14 type  2   force =     0.98069225   -0.18375660   37.84631000
     atom   15 type  2   force =     0.03556713   -0.08060644  -38.35684841
     atom   16 type  1   force =     0.39354751    3.85371897    1.27769731
     atom   17 type  2   force =     1.33884979    2.13686007   37.83770240
     atom   18 type  2   force =    -0.17408472   -0.17780845  -38.71168211
     atom   19 type  1   force =     2.78970614   -2.33354044    1.55135584
     atom   20 type  2   force =     0.04003185   -0.06522728  -39.12240882
     atom   21 type  1   force =     0.52054409   -0.82059410   -0.93903891
     atom   22 type  2   force =     1.01183671   -2.30006231   37.88822888
     atom   23 type  2   force =    -0.14886286    0.21846181  -38.75223407
     atom   24 type  1   force =    -0.91177245    0.92029254   -1.64018897
     atom   25 type  2   force =     0.22478643   -0.11567658   28.70417564
     atom   26 type  2   force =    -0.04768260   -0.06169926  -38.09069612
     atom   27 type  1   force =     0.16498341    1.26592220   -0.46106194
     atom   28 type  2   force =    -0.51923577    1.53805518   37.67785485
     atom   29 type  2   force =    -0.00104319    0.08908732  -38.35399681
     atom   30 type  1   force =    -0.15067682   -1.14864472    0.96042005
     atom   31 type  2   force =     1.17857711    0.20887335   37.93104651
     atom   32 type  2   force =    -0.33757282   -0.03278227  -38.28560183
     atom   33 type  1   force =     0.47885664   -1.58446475   -1.04608138
     atom   34 type  2   force =    -0.57638715   -1.42329804   38.22352799
     atom   35 type  2   force =    -0.05318002    0.05397354  -38.33599326
     atom   36 type  3   force =     0.15104655    0.12386793   50.49328061
     The local contribution  to forces
     atom    1 type  1   force =     0.20005024   -1.09198372   -1.36532656
     atom    2 type  2   force =     1.17709399    0.06119795  -37.91016080
     atom    3 type  2   force =    -0.00823703    0.07449886   38.08204023
     atom    4 type  1   force =     0.55916906   -0.89023437    0.03871846
     atom    5 type  2   force =     0.82076554   -1.41440847  -37.83678735
     atom    6 type  2   force =    -0.17966802    0.23708031   38.06246229
     atom    7 type  1   force =     2.65920001    1.99853124   -1.56117335
     atom    8 type  2   force =     1.30126070   -0.19867676  -37.84970873
     atom    9 type  2   force =    -0.28688293    0.06279024   38.10926238
     atom   10 type  1   force =     1.00735317    0.97965538   -1.12955151
     atom   11 type  2   force =     0.45470790    1.69920210  -37.88174492
     atom   12 type  2   force =    -0.19666713   -0.18433581   38.21600745
     atom   13 type  1   force =    -1.10456953   -1.23776683    1.31945355
     atom   14 type  2   force =    -0.98074955    0.18739625  -37.59345687
     atom   15 type  2   force =    -0.03632939    0.09112947   38.11772735
     atom   16 type  1   force =    -0.39362583   -3.88884318   -1.24234963
     atom   17 type  2   force =    -1.33427156   -2.11646809  -37.60004233
     atom   18 type  2   force =     0.17360290    0.17981321   38.46699021
     atom   19 type  1   force =    -2.80819317    2.33310068   -1.52460149
     atom   20 type  2   force =    -0.04038571    0.07697096   38.88119487
     atom   21 type  1   force =    -0.51986544    0.79166282    0.93579567
     atom   22 type  2   force =    -1.00489448    2.29887511  -37.64663359
     atom   23 type  2   force =     0.14121992   -0.20533400   38.50931398
     atom   24 type  1   force =     0.90673886   -0.92899458    1.62216231
     atom   25 type  2   force =    -0.21891340    0.11060321  -28.99200259
     atom   26 type  2   force =     0.04533475    0.07231506   37.83316577
     atom   27 type  1   force =    -0.16051167   -1.26850244    0.45856444
     atom   28 type  2   force =     0.51899826   -1.52554450  -37.42177555
     atom   29 type  2   force =     0.00123950   -0.08153323   38.10744748
     atom   30 type  1   force =     0.15561165    1.13053647   -0.96443297
     atom   31 type  2   force =    -1.17190540   -0.20874243  -37.68415135
     atom   32 type  2   force =     0.33150423    0.04536870   38.03546778
     atom   33 type  1   force =    -0.47694112    1.56610166    1.02932971
     atom   34 type  2   force =     0.57392548    1.42922714  -37.96617914
     atom   35 type  2   force =     0.05303068   -0.04105841   38.09195182
     atom   36 type  3   force =    -0.15850857   -0.10152467  -48.19755322
     The core correction contribution to forces
     atom    1 type  1   force =     0.00000000    0.00000000    0.00000000
     atom    2 type  2   force =     0.00009535    0.00015236    0.02130869
     atom    3 type  2   force =     0.00022227    0.00043191   -0.02075462
     atom    4 type  1   force =     0.00000000    0.00000000    0.00000000
     atom    5 type  2   force =    -0.00041280    0.00103752    0.02057915
     atom    6 type  2   force =     0.00015584   -0.00019487   -0.02089271
     atom    7 type  1   force =     0.00000000    0.00000000    0.00000000
     atom    8 type  2   force =    -0.00050109    0.00032888    0.02100141
     atom    9 type  2   force =     0.00069330    0.00059755   -0.02101291
     atom   10 type  1   force =     0.00000000    0.00000000    0.00000000
     atom   11 type  2   force =    -0.00007581   -0.00028391    0.02073214
     atom   12 type  2   force =     0.00070207    0.00092005   -0.02090340
     atom   13 type  1   force =     0.00000000    0.00000000    0.00000000
     atom   14 type  2   force =    -0.00004318   -0.00023456    0.02137638
     atom   15 type  2   force =    -0.00005072    0.00049779   -0.02061173
     atom   16 type  1   force =     0.00000000    0.00000000    0.00000000
     atom   17 type  2   force =     0.00038042    0.00093099    0.02070088
     atom   18 type  2   force =    -0.00019530   -0.00024116   -0.02083646
     atom   19 type  1   force =     0.00000000    0.00000000    0.00000000
     atom   20 type  2   force =    -0.00008921    0.00050134   -0.02122806
     atom   21 type  1   force =     0.00000000    0.00000000    0.00000000
     atom   22 type  2   force =     0.00025857   -0.00023960    0.02093243
     atom   23 type  2   force =    -0.00065355    0.00098790   -0.02087387
     atom   24 type  1   force =     0.00000000    0.00000000    0.00000000
     atom   25 type  2   force =     0.00027271   -0.00033256   -0.00976658
     atom   26 type  2   force =    -0.00012588    0.00048497   -0.02133493
     atom   27 type  1   force =     0.00000000    0.00000000    0.00000000
     atom   28 type  2   force =     0.00003905    0.00079707    0.02147055
     atom   29 type  2   force =     0.00002879    0.00028173   -0.02078753
     atom   30 type  1   force =     0.00000000    0.00000000    0.00000000
     atom   31 type  2   force =     0.00034704    0.00031147    0.02097721
     atom   32 type  2   force =    -0.00064580    0.00065101   -0.02103501
     atom   33 type  1   force =     0.00000000    0.00000000    0.00000000
     atom   34 type  2   force =    -0.00016892    0.00022596    0.02159254
     atom   35 type  2   force =    -0.00005426    0.00081463   -0.02090967
     atom   36 type  3   force =    -0.00007120    0.00022746    0.02461994
     The Hubbard contrib.    to forces
     atom    1 type  1   force =     0.00000000    0.00000000    0.00000000
     atom    2 type  2   force =     0.00000000    0.00000000    0.00000000
     atom    3 type  2   force =     0.00000000    0.00000000    0.00000000
     atom    4 type  1   force =     0.00000000    0.00000000    0.00000000
     atom    5 type  2   force =     0.00000000    0.00000000    0.00000000
     atom    6 type  2   force =     0.00000000    0.00000000    0.00000000
     atom    7 type  1   force =     0.00000000    0.00000000    0.00000000
     atom    8 type  2   force =     0.00000000    0.00000000    0.00000000
     atom    9 type  2   force =     0.00000000    0.00000000    0.00000000
     atom   10 type  1   force =     0.00000000    0.00000000    0.00000000
     atom   11 type  2   force =     0.00000000    0.00000000    0.00000000
     atom   12 type  2   force =     0.00000000    0.00000000    0.00000000
     atom   13 type  1   force =     0.00000000    0.00000000    0.00000000
     atom   14 type  2   force =     0.00000000    0.00000000    0.00000000
     atom   15 type  2   force =     0.00000000    0.00000000    0.00000000
     atom   16 type  1   force =     0.00000000    0.00000000    0.00000000
     atom   17 type  2   force =     0.00000000    0.00000000    0.00000000
     atom   18 type  2   force =     0.00000000    0.00000000    0.00000000
     atom   19 type  1   force =     0.00000000    0.00000000    0.00000000
     atom   20 type  2   force =     0.00000000    0.00000000    0.00000000
     atom   21 type  1   force =     0.00000000    0.00000000    0.00000000
     atom   22 type  2   force =     0.00000000    0.00000000    0.00000000
     atom   23 type  2   force =     0.00000000    0.00000000    0.00000000
     atom   24 type  1   force =     0.00000000    0.00000000    0.00000000
     atom   25 type  2   force =     0.00000000    0.00000000    0.00000000
     atom   26 type  2   force =     0.00000000    0.00000000    0.00000000
     atom   27 type  1   force =     0.00000000    0.00000000    0.00000000
     atom   28 type  2   force =     0.00000000    0.00000000    0.00000000
     atom   29 type  2   force =     0.00000000    0.00000000    0.00000000
     atom   30 type  1   force =     0.00000000    0.00000000    0.00000000
     atom   31 type  2   force =     0.00000000    0.00000000    0.00000000
     atom   32 type  2   force =     0.00000000    0.00000000    0.00000000
     atom   33 type  1   force =     0.00000000    0.00000000    0.00000000
     atom   34 type  2   force =     0.00000000    0.00000000    0.00000000
     atom   35 type  2   force =     0.00000000    0.00000000    0.00000000
     atom   36 type  3   force =     0.00000000    0.00000000    0.00000000
     The SCF correction term to forces
     atom    1 type  1   force =    -0.00001800   -0.00003327   -0.00000766
     atom    2 type  2   force =     0.00000291   -0.00000114   -0.00001087
     atom    3 type  2   force =    -0.00001324   -0.00001317    0.00000065
     atom    4 type  1   force =    -0.00000243   -0.00000416   -0.00002293
     atom    5 type  2   force =    -0.00000949   -0.00000931   -0.00000320
     atom    6 type  2   force =    -0.00000332   -0.00000882    0.00000008
     atom    7 type  1   force =    -0.00000846    0.00002693   -0.00002724
     atom    8 type  2   force =     0.00000189    0.00000893   -0.00000348
     atom    9 type  2   force =     0.00000603    0.00001236   -0.00001659
     atom   10 type  1   force =     0.00000327   -0.00000379   -0.00001501
     atom   11 type  2   force =    -0.00000805    0.00001590   -0.00000095
     atom   12 type  2   force =    -0.00000362    0.00000548   -0.00001212
     atom   13 type  1   force =    -0.00001375   -0.00004540    0.00002206
     atom   14 type  2   force =    -0.00000711   -0.00000457    0.00000299
     atom   15 type  2   force =     0.00000958   -0.00001195   -0.00000031
     atom   16 type  1   force =    -0.00001047    0.00000656    0.00000098
     atom   17 type  2   force =     0.00000855   -0.00000290   -0.00000260
     atom   18 type  2   force =     0.00000007    0.00000574   -0.00000756
     atom   19 type  1   force =    -0.00000608    0.00004059   -0.00002167
     atom   20 type  2   force =    -0.00001053    0.00001179   -0.00001574
     atom   21 type  1   force =    -0.00001287   -0.00000112   -0.00000653
     atom   22 type  2   force =    -0.00000528    0.00001151    0.00000221
     atom   23 type  2   force =    -0.00000812    0.00000023   -0.00000334
     atom   24 type  1   force =     0.00002399   -0.00003918    0.00002011
     atom   25 type  2   force =     0.00001159   -0.00002571   -0.00001402
     atom   26 type  2   force =     0.00000040   -0.00001080    0.00001432
     atom   27 type  1   force =     0.00001540    0.00000775   -0.00003148
     atom   28 type  2   force =     0.00000112   -0.00001630   -0.00001024
     atom   29 type  2   force =     0.00000457    0.00000357   -0.00000579
     atom   30 type  1   force =     0.00001699    0.00002604   -0.00002070
     atom   31 type  2   force =     0.00000406    0.00001677   -0.00000983
     atom   32 type  2   force =     0.00000362    0.00000979   -0.00001446
     atom   33 type  1   force =     0.00001810    0.00001414   -0.00000297
     atom   34 type  2   force =     0.00001068    0.00001046   -0.00000317
     atom   35 type  2   force =     0.00000833    0.00000198   -0.00000667
     atom   36 type  3   force =     0.00004534   -0.00006495   -0.00004204

     Total force =     0.007292     Total SCF correction =     0.000169
     Energy error            =      9.8E-05 Ry
     Gradient error          =      2.7E-03 Ry/Bohr

     bfgs converged in  22 scf cycles and  21 bfgs steps
     (criteria: energy <  1.0E-04 Ry, force <  1.0E-02 Ry/Bohr)

     End of BFGS Geometry Optimization

     Final energy             =   -2246.4497201155 Ry

     File ./MoS2-V-O.bfgs deleted, as requested
Begin final coordinates

ATOMIC_POSITIONS (angstrom)
Mo            6.5712093479        1.7209912591        2.7605003099
S             8.1469505087        0.8229199342        4.3649946138
S             8.1395599242        0.8149310158        1.1651737052
Mo            8.1327013991        4.4756420474        2.7201356389
S             6.5322490545        3.6364037742        4.3143504005
S             6.5634429323        3.5387570392        1.1237133737
Mo            6.5235856095        7.1577581851        2.6625716781
S             8.0855429460        6.2867102077        4.3045500269
S             8.1474845776        6.2994227367        1.1129194806
Mo            8.1477335791        9.9127890847        2.7604151589
S             6.5284950392        8.9267631248        4.3119100632
S             6.5996651720        9.0027561706        1.1171624303
Mo            3.4590397436        1.7552965462        2.7478790963
S             4.9987131624        0.7878960018        4.3405099208
S             5.0113161781        0.8142244258        1.1539246264
Mo            5.0033431581        4.5229102459        2.6637648467
S             3.4807823364        3.6461869643        4.3202192125
S             3.4473446500        3.5610003150        1.1088398995
Mo            3.4840292181        7.1630463309        2.6658518529
S             5.0003764237        6.2888073639        1.0411294908
Mo            5.0007820022        9.8838132134        2.7169097590
S             3.4806825076        8.9229622825        4.3202055540
S             3.4147670624        8.9980620764        1.1084963288
Mo            0.2480239370        1.7443773497        2.7543845660
S             1.8629289025        0.8250844035        4.2752860253
S             1.8558004383        0.8268237706        1.1887811470
Mo            1.8751075226        4.4699941819        2.7211002316
S             0.2729431810        3.5856307039        4.3298238440
S             0.2703898343        3.5571353408        1.1445897312
Mo            0.2679373231        7.1963182835        2.7364019901
S             1.9126444675        6.2842766709        4.3033884683
S             1.8557933296        6.3001764403        1.1163700491
Mo            1.8587561897        9.8858555771        2.7533155928
S             0.2736662422        9.0010468395        4.3603757978
S             0.2627889421        9.0187691567        1.1560299755
O             1.8572723913        0.8454073464        5.7743649854
End final coordinates



     Writing all to output data dir ./MoS2-V-O.save/
 
     init_run     :      4.60s CPU      5.07s WALL (       1 calls)
     electrons    :   2185.71s CPU   2487.72s WALL (      22 calls)
     update_pot   :     68.13s CPU     73.10s WALL (      21 calls)
     forces       :     67.07s CPU     77.90s WALL (      22 calls)

     Called by init_run:
     wfcinit      :      0.49s CPU      0.54s WALL (       1 calls)
     potinit      :      2.34s CPU      2.57s WALL (       1 calls)
     hinit0       :      0.44s CPU      0.47s WALL (       1 calls)

     Called by electrons:
     c_bands      :    304.62s CPU    311.44s WALL (     210 calls)
     sum_band     :    127.74s CPU    183.04s WALL (     210 calls)
     v_of_rho     :    269.75s CPU    325.42s WALL (     224 calls)
     newd         :     82.43s CPU    126.81s WALL (     224 calls)
     PAW_pot      :      8.85s CPU      8.88s WALL (     245 calls)
     mix_rho      :   1419.60s CPU   1563.44s WALL (     210 calls)

     Called by c_bands:
     init_us_2    :      4.81s CPU      5.14s WALL (     442 calls)
     init_us_2:cp :      4.81s CPU      5.14s WALL (     442 calls)
     regterg      :    288.94s CPU    295.42s WALL (     210 calls)

     Called by *egterg:
     rdiaghg      :     18.85s CPU     19.04s WALL (    1071 calls)
     h_psi        :    188.88s CPU    190.47s WALL (    1101 calls)
     s_psi        :     17.19s CPU     17.25s WALL (    1101 calls)
     g_psi        :      1.02s CPU      1.03s WALL (     890 calls)

     Called by h_psi:
     h_psi:calbec :     19.34s CPU     19.43s WALL (    1101 calls)
     vloc_psi     :    150.14s CPU    151.50s WALL (    1101 calls)
     add_vuspsi   :     17.02s CPU     17.15s WALL (    1101 calls)

     General routines
     calbec       :     28.21s CPU     28.36s WALL (    1420 calls)
     fft          :    179.74s CPU    200.74s WALL (   14947 calls)
     ffts         :    639.57s CPU    778.05s WALL (  340030 calls)
     fftw         :     98.06s CPU     98.86s WALL (  127898 calls)
     interpolate  :      2.78s CPU      3.20s WALL (     224 calls)
 
     Parallel routines
 
     PWSCF        :  38m56.26s CPU  44m20.09s WALL

 
   This run was terminated on:  15:25:49   1Nov2023            

=------------------------------------------------------------------------------=
   JOB DONE.
=------------------------------------------------------------------------------=
