
     Program PWSCF v.7.2 starts on  1Nov2023 at 22:26:39 

     This program is part of the open-source Quantum ESPRESSO suite
     for quantum simulation of materials; please cite
         "P. Giannozzi et al., J. Phys.:Condens. Matter 21 395502 (2009);
         "P. Giannozzi et al., J. Phys.:Condens. Matter 29 465901 (2017);
         "P. Giannozzi et al., J. Chem. Phys. 152 154105 (2020);
          URL http://www.quantum-espresso.org", 
     in publications or presentations arising from this work. More details at
     http://www.quantum-espresso.org/quote

     Parallel version (MPI & OpenMP), running on      48 processor cores
     Number of MPI processes:                48
     Threads/MPI process:                     1

     MPI processes distributed on     1 nodes
     74396 MiB available memory on the printing compute node when the environment starts
 
     Waiting for input...
     Reading input from standard input
Warning: card &CELL ignored
Warning: card CELL_DYNAMICS = 'BFGS', ignored
Warning: card CELL_DOFREE = '2DXY' ignored
Warning: card / ignored

     Current dimensions of program PWSCF are:
     Max number of different atomic species (ntypx) = 10
     Max number of k-points (npk) =  40000
     Max angular momentum in pseudopotentials (lmaxx) =  4
     file O.pbe-n-kjpaw_psl.0.1.UPF: wavefunction(s)  2P renormalized

     IMPORTANT: XC functional enforced from input :
     Exchange-correlation= RVV10
                           (   1   4  13   4  26   0   0)
     Any further DFT definition will be discarded
     Please, verify this is what you really want


     gamma-point specific algorithms are used
     signal trapping enabled: kill the code with -SIGUSR1 to stop cleanly the simulation 
 
     R & G space division:  proc/nbgrp/npool/nimage =      48
     Subspace diagonalization in iterative solution of the eigenvalue problem:
     one sub-group per band group will be used
     scalapack distributed-memory algorithm (size of sub-group:  2*  2 procs)

 
     Parallelization info
     --------------------
     sticks:   dense  smooth     PW     G-vecs:    dense   smooth      PW
     Min         396     194     47               101632    35090    4376
     Max         398     196     50               101674    35128    4410
     Sum       19091    9389   2349              4879585  1685513  210763
 
     Using Slab Decomposition
 


     bravais-lattice index     =            0
     lattice parameter (alat)  =      17.8707  a.u.
     unit-cell volume          =   17436.2743 (a.u.)^3
     number of atoms/cell      =           36
     number of atomic types    =            3
     number of electrons       =       312.00
     number of Kohn-Sham states=          187
     kinetic-energy cutoff     =      80.0000  Ry
     charge density cutoff     =     650.0000  Ry
     scf convergence threshold =      1.0E-06
     mixing beta               =       0.7000
     number of iterations used =            8  local-TF  mixing
     energy convergence thresh.=      1.0E-04
     force convergence thresh. =      1.0E-02
     Exchange-correlation= RVV10
                           (   1   4  13   4  26   0   0)
     nstep                     =          200


     celldm(1)=  17.870686  celldm(2)=   0.000000  celldm(3)=   0.000000
     celldm(4)=   0.000000  celldm(5)=   0.000000  celldm(6)=   0.000000

     crystal axes: (cart. coord. in units of alat)
               a(1) = (   1.000000   0.000000   0.000000 )  
               a(2) = (   0.000000   1.155671   0.000000 )  
               a(3) = (   0.000000   0.000000   2.643601 )  

     reciprocal axes: (cart. coord. in units 2 pi/alat)
               b(1) = (  1.000000  0.000000  0.000000 )  
               b(2) = (  0.000000  0.865298  0.000000 )  
               b(3) = (  0.000000  0.000000  0.378272 )  


     PseudoPot. # 1 for Mo read from file:
     ../pseudo/Mo_ONCV_PBE-1.0.oncvpsp.upf
     MD5 check sum: 1b5d28e075c9ccadda658a603575cd1f
     Pseudo is Norm-conserving, Zval = 14.0
     Generated using ONCVPSP code by D. R. Hamann
     Using radial grid of 1526 points,  6 beta functions with: 
                l(1) =   0
                l(2) =   0
                l(3) =   1
                l(4) =   1
                l(5) =   2
                l(6) =   2

     PseudoPot. # 2 for S  read from file:
     ../pseudo/s_pbe_v1.4.uspp.F.UPF
     MD5 check sum: 88d86576ff6df21479756cfb9bdac1df
     Pseudo is Ultrasoft + core correction, Zval =  6.0
     Generated by new atomic code, or converted to UPF format
     Using radial grid of  907 points,  6 beta functions with: 
                l(1) =   0
                l(2) =   0
                l(3) =   1
                l(4) =   1
                l(5) =   2
                l(6) =   2
     Q(r) pseudized with  8 coefficients,  rinner =    1.300   1.300   1.300
                                                       1.300   1.300

     PseudoPot. # 3 for O  read from file:
     ../pseudo/O.pbe-n-kjpaw_psl.0.1.UPF
     MD5 check sum: 0234752ac141de4415c5fc33072bef88
     Pseudo is Projector augmented-wave + core cor, Zval =  6.0
     Generated using "atomic" code by A. Dal Corso  v.5.0.99 svn rev. 10869
     Shape of augmentation charge: BESSEL
     Using radial grid of 1095 points,  4 beta functions with: 
                l(1) =   0
                l(2) =   0
                l(3) =   1
                l(4) =   1
     Q(r) pseudized with 0 coefficients 


     atomic species   valence    mass     pseudopotential
        Mo            14.00    95.94000     Mo( 1.00)
        S              6.00    32.06500     S ( 1.00)
        O              6.00    15.99940     O ( 1.00)

     No symmetry found



   Cartesian axes

     site n.     atom                  positions (alat units)
         1           Mo  tau(   1) = (   0.6952221   0.1890506   0.2985846  )
         2           S   tau(   2) = (   0.8646417   0.0856217   0.4689279  )
         3           S   tau(   3) = (   0.8663890   0.0857843   0.1351291  )
         4           Mo  tau(   4) = (   0.8560186   0.4753274   0.2873942  )
         5           S   tau(   5) = (   0.6873294   0.3936244   0.4596353  )
         6           S   tau(   6) = (   0.6929804   0.3713468   0.1185692  )
         7           Mo  tau(   7) = (   0.6862796   0.7633098   0.2825370  )
         8           S   tau(   8) = (   0.8545980   0.6708292   0.4486168  )
         9           S   tau(   9) = (   0.8545123   0.6666874   0.1146125  )
        10           Mo  tau(  10) = (   0.8629403   1.0471007   0.3006803  )
        11           S   tau(  11) = (   0.6868280   0.9456650   0.4634891  )
        12           S   tau(  12) = (   0.6998113   0.9568511   0.1205389  )
        13           Mo  tau(  13) = (   0.3618216   0.1847309   0.2935964  )
        14           S   tau(  14) = (   0.5260962   0.0863870   0.4600448  )
        15           S   tau(  15) = (   0.5348379   0.0894875   0.1297123  )
        16           Mo  tau(  16) = (   0.5265817   0.4772436   0.2784130  )
        17           S   tau(  17) = (   0.3624753   0.3882513   0.4525556  )
        18           S   tau(  18) = (   0.3635411   0.3752055   0.1119148  )
        19           Mo  tau(  19) = (   0.3652268   0.7630864   0.2781795  )
        20           S   tau(  20) = (   0.5269494   0.6690381   0.1096838  )
        21           Mo  tau(  21) = (   0.5300192   1.0470394   0.2900995  )
        22           S   tau(  22) = (   0.3670346   0.9457522   0.4574073  )
        23           S   tau(  23) = (   0.3604225   0.9585725   0.1159032  )
        24           Mo  tau(  24) = (   0.0313099   0.1847895   0.3013130  )
        25           S   tau(  25) = (   0.1956761   0.0838230   0.4650863  )
        26           S   tau(  26) = (   0.1967693   0.0903508   0.1278874  )
        27           Mo  tau(  27) = (   0.1967578   0.4753919   0.2813011  )
        28           S   tau(  28) = (   0.0287851   0.3864324   0.4586755  )
        29           S   tau(  29) = (   0.0244514   0.3729871   0.1239344  )
        30           Mo  tau(  30) = (   0.0286728   0.7631204   0.2856894  )
        31           S   tau(  31) = (   0.2011512   0.6675435   0.4465001  )
        32           S   tau(  32) = (   0.1969214   0.6672839   0.1104564  )
        33           Mo  tau(  33) = (   0.1950294   1.0511147   0.2932237  )
        34           S   tau(  34) = (   0.0312912   0.9612169   0.4667423  )
        35           S   tau(  35) = (   0.0292670   0.9563028   0.1216485  )
        36           O   tau(  36) = (   1.0000000   1.0272628   0.5656742  )

     number of k points=     1  Gaussian smearing, width (Ry)=  0.0100
                       cart. coord. in units 2pi/alat
        k(    1) = (   0.0000000   0.0000000   0.0000000), wk =   2.0000000

     Dense  grid:  2439793 G-vectors     FFT dimensions: ( 150, 180, 384)

     Smooth grid:   842757 G-vectors     FFT dimensions: ( 108, 120, 270)

     Estimated max dynamical RAM per process >     269.22 MB

     Estimated total dynamical RAM >      12.62 GB

     Initial potential from superposition of free atoms

     starting charge     311.9873, renormalised to     312.0000

     negative rho (up, down):  2.747E-04 0.000E+00


---------------------------------------------------------------------------------
Carrying out rVV10 run using the following parameters:
Nqs =      20    Nr_points =    1024   r_max =   100.000
b_value =  6.30000    beta =  0.00901
     q_mesh =  0.00010000  0.00030000  0.00058939  0.00100810
               0.00161396  0.00249058  0.00375900  0.00559430
               0.00824984  0.01209221  0.01765183  0.02569619
               0.03733578  0.05417739  0.07854596  0.11380545
               0.16482331  0.23864234  0.34545298  0.50000000

Gradients computed in Reciprocal space

---------------------------------------------------------------------------------


     Starting wfcs are  216 randomized atomic wfcs
     Checking if some PAW data can be deallocated... 

     total cpu time spent up to now is        5.4 secs

     Self-consistent Calculation

     iteration #  1     ecut=    80.00 Ry     beta= 0.70
     Davidson diagonalization with overlap
     ethr =  1.00E-02,  avg # of iterations =  2.0

     Threshold (ethr) on eigenvalues was too large:
     Diagonalizing with lowered threshold

     Davidson diagonalization with overlap
     ethr =  5.09E-04,  avg # of iterations =  4.0

     negative rho (up, down):  5.092E-08 0.000E+00

     total cpu time spent up to now is       19.0 secs

     total energy              =   -2245.87677698 Ry
     estimated scf accuracy    <       1.83362236 Ry

     iteration #  2     ecut=    80.00 Ry     beta= 0.70
     Davidson diagonalization with overlap
     ethr =  5.88E-04,  avg # of iterations =  4.0

     total cpu time spent up to now is       23.6 secs

     total energy              =   -2245.86795051 Ry
     estimated scf accuracy    <       0.58791220 Ry

     iteration #  3     ecut=    80.00 Ry     beta= 0.70
     Davidson diagonalization with overlap
     ethr =  1.88E-04,  avg # of iterations =  2.0

     total cpu time spent up to now is       27.5 secs

     total energy              =   -2245.88712067 Ry
     estimated scf accuracy    <       0.11431177 Ry

     iteration #  4     ecut=    80.00 Ry     beta= 0.70
     Davidson diagonalization with overlap
     c_bands:  1 eigenvalues not converged
     ethr =  3.66E-05,  avg # of iterations = 20.0

     total cpu time spent up to now is       32.6 secs

     total energy              =   -2245.90454816 Ry
     estimated scf accuracy    <       0.02539279 Ry

     iteration #  5     ecut=    80.00 Ry     beta= 0.70
     Davidson diagonalization with overlap
     ethr =  8.14E-06,  avg # of iterations = 10.0

     total cpu time spent up to now is       36.6 secs

     total energy              =   -2245.90319347 Ry
     estimated scf accuracy    <       0.01604725 Ry

     iteration #  6     ecut=    80.00 Ry     beta= 0.70
     Davidson diagonalization with overlap
     ethr =  5.14E-06,  avg # of iterations =  2.0

     total cpu time spent up to now is       40.3 secs

     total energy              =   -2245.90227836 Ry
     estimated scf accuracy    <       0.00999552 Ry

     iteration #  7     ecut=    80.00 Ry     beta= 0.70
     Davidson diagonalization with overlap
     ethr =  3.20E-06,  avg # of iterations =  2.0

     negative rho (up, down):  1.033E-04 0.000E+00

     total cpu time spent up to now is       45.9 secs

     total energy              =   -2245.90118263 Ry
     estimated scf accuracy    <       0.00587882 Ry

     iteration #  8     ecut=    80.00 Ry     beta= 0.70
     Davidson diagonalization with overlap
     ethr =  1.88E-06,  avg # of iterations =  2.0

     negative rho (up, down):  2.430E-02 0.000E+00

     total cpu time spent up to now is       51.5 secs

     total energy              =   -2245.90056389 Ry
     estimated scf accuracy    <       0.00333714 Ry

     iteration #  9     ecut=    80.00 Ry     beta= 0.70
     Davidson diagonalization with overlap
     ethr =  1.07E-06,  avg # of iterations =  2.0

     negative rho (up, down):  3.036E-02 0.000E+00

     total cpu time spent up to now is       57.4 secs

     total energy              =   -2245.90047492 Ry
     estimated scf accuracy    <       0.00160068 Ry

     iteration # 10     ecut=    80.00 Ry     beta= 0.70
     Davidson diagonalization with overlap
     ethr =  5.13E-07,  avg # of iterations =  2.0

     negative rho (up, down):  2.361E-02 0.000E+00

     total cpu time spent up to now is       64.0 secs

     total energy              =   -2245.90050911 Ry
     estimated scf accuracy    <       0.00050480 Ry

     iteration # 11     ecut=    80.00 Ry     beta= 0.70
     Davidson diagonalization with overlap
     ethr =  1.62E-07,  avg # of iterations =  2.0

     negative rho (up, down):  8.344E-03 0.000E+00

     total cpu time spent up to now is       71.1 secs

     total energy              =   -2245.90049757 Ry
     estimated scf accuracy    <       0.00006392 Ry

     iteration # 12     ecut=    80.00 Ry     beta= 0.70
     Davidson diagonalization with overlap
     ethr =  2.05E-08,  avg # of iterations =  8.0

     negative rho (up, down):  3.335E-03 0.000E+00

     total cpu time spent up to now is       81.2 secs

     total energy              =   -2245.90054256 Ry
     estimated scf accuracy    <       0.00001281 Ry

     iteration # 13     ecut=    80.00 Ry     beta= 0.70
     Davidson diagonalization with overlap
     ethr =  4.10E-09,  avg # of iterations =  2.0

     negative rho (up, down):  3.552E-04 0.000E+00

     total cpu time spent up to now is       90.8 secs

     total energy              =   -2245.90054499 Ry
     estimated scf accuracy    <       0.00000329 Ry

     iteration # 14     ecut=    80.00 Ry     beta= 0.70
     Davidson diagonalization with overlap
     ethr =  1.05E-09,  avg # of iterations =  2.0

     negative rho (up, down):  2.540E-04 0.000E+00

     total cpu time spent up to now is       94.3 secs

     End of self-consistent calculation

          k = 0.0000 0.0000 0.0000 (105382 PWs)   bands (ev):

   -62.8916 -62.8796 -62.8531 -62.8479 -62.8187 -62.8158 -62.8033 -62.7964
   -62.7917 -62.7856 -62.6494 -62.5118 -37.2288 -37.1723 -37.1579 -37.1470
   -37.1168 -37.0813 -37.0744 -37.0579 -37.0533 -37.0489 -37.0414 -37.0271
   -37.0235 -37.0089 -37.0024 -36.9899 -36.9807 -36.9759 -36.9715 -36.9649
   -36.9599 -36.9539 -36.9492 -36.9354 -36.9095 -36.9032 -36.8913 -36.8555
   -36.8148 -36.8078 -36.7888 -36.7694 -36.7388 -36.7229 -36.6383 -36.6248
   -28.1785 -15.9125 -15.1367 -15.1208 -14.9582 -14.8294 -14.7523 -14.4755
   -14.4712 -14.4423 -14.3746 -14.3301 -14.3186 -14.2601 -14.2380 -14.1176
   -14.1014 -14.0744 -14.0070 -13.9788 -13.8299 -13.7975 -13.7789 -13.0146
   -10.4952 -10.3779  -8.6022  -7.5593  -7.4342  -7.2451  -7.2122  -7.1647
    -7.1149  -7.0843  -7.0318  -6.7958  -6.7571  -6.7122  -6.6823  -6.5376
    -6.4690  -6.4072  -6.3437  -6.2521  -6.1798  -6.0444  -5.9086  -5.8475
    -5.8121  -5.7801  -5.7384  -5.6967  -5.6493  -5.6264  -5.5964  -5.5640
    -5.5166  -5.4307  -5.4263  -5.3333  -5.2976  -5.2370  -5.0891  -5.0346
    -4.9665  -4.9055  -4.8841  -4.7654  -4.6368  -4.5967  -4.4859  -4.4409
    -4.2995  -4.2349  -4.1449  -4.1015  -4.0631  -3.9694  -3.8251  -3.7500
    -3.7390  -3.6870  -3.6356  -3.5966  -3.5356  -3.4722  -3.4479  -3.4169
    -3.3945  -3.3563  -3.3128  -3.2665  -3.0568  -2.9376  -2.8887  -2.8290
    -2.7666  -2.7163  -2.6966  -2.6553  -2.6196  -2.6013  -2.4958  -2.3055
    -2.2017  -2.0003  -1.8911  -1.8448  -0.8514  -0.7334  -0.5460  -0.1618
    -0.0975  -0.0308  -0.0054   0.1627   0.1975   0.2541   0.3030   0.3286
     0.3949   0.4104   0.4444   0.4983   0.5895   0.5909   0.6179   0.6417
     0.6927   0.7660   0.7920   0.8063   0.8774   0.9309   0.9581   1.0196
     1.0496   1.0913   1.3461

     the Fermi energy is    -1.3475 ev

!    total energy              =   -2245.90054628 Ry
     estimated scf accuracy    <       0.00000045 Ry
     smearing contrib. (-TS)   =      -0.00000002 Ry
     internal energy E=F+TS    =   -2245.90054626 Ry

     The total energy is F=E-TS. E is the sum of the following terms:
     one-electron contribution =  -18474.40949190 Ry
     hartree contribution      =    9225.71726109 Ry
     xc contribution           =    -392.74941049 Ry
     ewald contribution        =    7405.37188324 Ry
     one-center paw contrib.   =      -9.83078819 Ry

     convergence has been achieved in  14 iterations

     negative rho (up, down):  2.540E-04 0.000E+00

     Forces acting on atoms (cartesian axes, Ry/au):

     atom    1 type  1   force =     0.01514103   -0.02481916    0.00177413
     atom    2 type  2   force =    -0.02701325    0.03436526   -0.00614343
     atom    3 type  2   force =    -0.01001137    0.01263617   -0.00236644
     atom    4 type  1   force =     0.00768419    0.00391460    0.00123692
     atom    5 type  2   force =    -0.00199301   -0.00624230   -0.00735694
     atom    6 type  2   force =     0.00083443    0.01076040    0.00092762
     atom    7 type  1   force =     0.00615207   -0.01228902   -0.00843536
     atom    8 type  2   force =    -0.00388357   -0.00736716    0.01563527
     atom    9 type  2   force =     0.01470187    0.00633107    0.00770540
     atom   10 type  1   force =    -0.02322345   -0.00336272   -0.09505600
     atom   11 type  2   force =     0.00732255   -0.00342074   -0.00406011
     atom   12 type  2   force =    -0.00434639    0.00076944    0.00871233
     atom   13 type  1   force =     0.00407814    0.00306030   -0.00734778
     atom   14 type  2   force =     0.00818346   -0.00040553    0.01351358
     atom   15 type  2   force =    -0.01231478    0.00248715   -0.00827057
     atom   16 type  1   force =    -0.00058872    0.01292089    0.00543665
     atom   17 type  2   force =     0.00672336    0.00016388   -0.00053196
     atom   18 type  2   force =    -0.00342669   -0.00635301    0.01401709
     atom   19 type  1   force =     0.00345757   -0.01123622   -0.00206367
     atom   20 type  2   force =     0.00264024   -0.00369466    0.00214025
     atom   21 type  1   force =    -0.00502876    0.00438066   -0.00631369
     atom   22 type  2   force =    -0.00277630   -0.00505835   -0.00231936
     atom   23 type  2   force =     0.00463030   -0.00158589    0.00748711
     atom   24 type  1   force =    -0.01106130   -0.00525094   -0.01983602
     atom   25 type  2   force =     0.01922253    0.02024085    0.00748381
     atom   26 type  2   force =    -0.01329052    0.00086993   -0.00588651
     atom   27 type  1   force =    -0.00114536   -0.00004874    0.00928549
     atom   28 type  2   force =     0.00047703   -0.00061070   -0.00525217
     atom   29 type  2   force =     0.00320707    0.00032609   -0.00316037
     atom   30 type  1   force =    -0.01156144   -0.01077956    0.02292890
     atom   31 type  2   force =     0.00699847   -0.00556983    0.01220157
     atom   32 type  2   force =    -0.00937986    0.00669509    0.00473862
     atom   33 type  1   force =     0.01227163   -0.00470819   -0.00610391
     atom   34 type  2   force =     0.45077153   -0.94026930   -1.61028599
     atom   35 type  2   force =    -0.00839352    0.00763160    0.01739727
     atom   36 type  3   force =    -0.42505918    0.92551863    1.64816827
     The non-local contrib.  to forces
     atom    1 type  1   force =    -0.00118949    0.02814181   -0.00934404
     atom    2 type  2   force =    -0.02410474    0.04197874   -0.27410529
     atom    3 type  2   force =    -0.01159663    0.00506064    0.26642701
     atom    4 type  1   force =    -0.00236981   -0.00065006    0.00562707
     atom    5 type  2   force =     0.00713385   -0.03182296   -0.25404979
     atom    6 type  2   force =    -0.00201348    0.01356171    0.26100406
     atom    7 type  1   force =    -0.01820888    0.00547717   -0.02073815
     atom    8 type  2   force =     0.01039829   -0.00020646   -0.25141376
     atom    9 type  2   force =     0.01315720   -0.00892997    0.28133260
     atom   10 type  1   force =     0.04817212   -0.02671207    0.04243099
     atom   11 type  2   force =     0.01238066    0.00580685   -0.25897897
     atom   12 type  2   force =    -0.01467182   -0.02239598    0.26069466
     atom   13 type  1   force =     0.00273439    0.01813342   -0.00721316
     atom   14 type  2   force =     0.01091268   -0.01135795   -0.26373246
     atom   15 type  2   force =    -0.01415455   -0.00900163    0.26202495
     atom   16 type  1   force =    -0.00201440    0.02416814   -0.03058309
     atom   17 type  2   force =     0.00192809   -0.02919294   -0.25129386
     atom   18 type  2   force =    -0.00293901   -0.00176842    0.27158187
     atom   19 type  1   force =     0.01856256   -0.00122527   -0.01813789
     atom   20 type  2   force =    -0.00043335   -0.02082760    0.26791946
     atom   21 type  1   force =     0.00471005    0.03298959    0.01427862
     atom   22 type  2   force =    -0.02088137    0.00790264   -0.25649959
     atom   23 type  2   force =     0.01137974   -0.01954691    0.26454616
     atom   24 type  1   force =     0.00424038    0.01220333   -0.01109002
     atom   25 type  2   force =     0.01825352    0.01096492   -0.26073304
     atom   26 type  2   force =    -0.00210469   -0.00949655    0.26049001
     atom   27 type  1   force =    -0.00163562    0.00294664    0.00961392
     atom   28 type  2   force =    -0.00369056   -0.02077440   -0.27550575
     atom   29 type  2   force =     0.00684529    0.00139950    0.26526166
     atom   30 type  1   force =     0.00844212    0.03278063   -0.00092411
     atom   31 type  2   force =    -0.01059713    0.00270363   -0.25132237
     atom   32 type  2   force =    -0.00642920   -0.01110979    0.27505597
     atom   33 type  1   force =    -0.03108763   -0.01936085    0.03130813
     atom   34 type  2   force =     0.25986534   -0.58489862   -0.86762294
     atom   35 type  2   force =    -0.00058341   -0.01260688    0.27363779
     atom   36 type  3   force =     0.70271903   -1.38905842   -1.54015346
     The ionic contribution  to forces
     atom    1 type  1   force =    -0.27036223    1.14282343    4.30082935
     atom    2 type  2   force =    -2.07015192    2.69875396   38.14849787
     atom    3 type  2   force =    -0.32370693    0.30993938  -37.01182729
     atom    4 type  1   force =    -0.14296280    0.43541878   -0.44693712
     atom    5 type  2   force =    -1.13914367    1.63406766   38.55480346
     atom    6 type  2   force =     0.27974600   -0.43289923  -38.52636983
     atom    7 type  1   force =    -3.37159636   -3.67806405    0.98197181
     atom    8 type  2   force =    -1.38976363   -0.95482547   36.92190480
     atom    9 type  2   force =     0.25462861   -0.25218932  -38.66540927
     atom   10 type  1   force =    -3.50438361    0.05404175    0.22385241
     atom   11 type  2   force =    -1.98995489   -2.05667379   38.48575970
     atom   12 type  2   force =     0.22559735    0.61284736  -38.67319104
     atom   13 type  1   force =     0.98337831    1.73838636    1.57561826
     atom   14 type  2   force =    -0.05043365    0.37299357   38.23353733
     atom   15 type  2   force =     0.12181120    0.07843197  -37.41172600
     atom   16 type  1   force =    -0.06688572    3.87057492   -0.42963620
     atom   17 type  2   force =     0.95107235    1.62908269   37.73694405
     atom   18 type  2   force =    -0.11021394   -0.58903706  -39.05132095
     atom   19 type  1   force =     3.28570858   -3.18641995   -0.77571560
     atom   20 type  2   force =     0.21287682   -0.32019559  -39.00156362
     atom   21 type  1   force =    -0.20561490    0.12861542   -0.41177607
     atom   22 type  2   force =     1.36579728   -2.01686880   37.93666328
     atom   23 type  2   force =     0.07541644    0.60085113  -39.02851703
     atom   24 type  1   force =    -0.36169564    3.04914858    3.56545094
     atom   25 type  2   force =     2.01425202    1.84397391   38.43057590
     atom   26 type  2   force =    -0.10710913    0.31262738  -38.16461389
     atom   27 type  1   force =     0.29694196    0.27699726   -3.33901474
     atom   28 type  2   force =     0.08960082    1.29723922   37.94907767
     atom   29 type  2   force =    -0.25417965   -0.32868433  -37.83532644
     atom   30 type  1   force =    -0.12702047   -2.94988069   -2.85718445
     atom   31 type  2   force =     1.66005769   -0.84844231   36.91999450
     atom   32 type  2   force =    -0.38107870   -0.20020265  -39.26834763
     atom   33 type  1   force =     3.07757713   -0.54556076   -1.97629941
     atom   34 type  2   force =     3.99753947   -9.40318529   27.33778162
     atom   35 type  2   force =    -0.24789620    0.33464662  -39.03385123
     atom   36 type  3   force =    -2.77784799    5.34166792   54.60536484
     The local contribution  to forces
     atom    1 type  1   force =     0.28682268   -1.19607904   -4.28908704
     atom    2 type  2   force =     2.06638568   -2.70448710  -37.90137833
     atom    3 type  2   force =     0.32478440   -0.30195620   36.76409364
     atom    4 type  1   force =     0.15307225   -0.43092598    0.44294872
     atom    5 type  2   force =     1.13070894   -1.61038051  -38.32843272
     atom    6 type  2   force =    -0.27722482    0.43128263   38.28733534
     atom    7 type  1   force =     3.39612311    3.66070527   -0.96909919
     atom    8 type  2   force =     1.37603760    0.94765582  -36.67493895
     atom    9 type  2   force =    -0.25269083    0.26699139   38.41327044
     atom   10 type  1   force =     3.43296980   -0.03055578   -0.36041196
     atom   11 type  2   force =     1.98581206    2.04807652  -38.25124134
     atom   12 type  2   force =    -0.21661411   -0.59136440   38.44228297
     atom   13 type  1   force =    -0.98210747   -1.75375398   -1.57518829
     atom   14 type  2   force =     0.04829371   -0.36225146  -37.97686895
     atom   15 type  2   force =    -0.12074846   -0.06747977   37.16238356
     atom   16 type  1   force =     0.06834206   -3.88200394    0.46602395
     atom   17 type  2   force =    -0.94629878   -1.60138904  -37.50643031
     atom   18 type  2   force =     0.10972938    0.58499970   38.81496659
     atom   19 type  1   force =    -3.30092540    3.17680317    0.79229772
     atom   20 type  2   force =    -0.20993123    0.33653675   38.75725412
     atom   21 type  1   force =     0.19592449   -0.15711469    0.39179481
     atom   22 type  2   force =    -1.34882000    2.00470079  -37.70272922
     atom   23 type  2   force =    -0.08136336   -0.58438258   38.79251543
     atom   24 type  1   force =     0.34631684   -3.06700040   -3.57343131
     atom   25 type  2   force =    -2.01297259   -1.83439742  -38.18287690
     atom   26 type  2   force =     0.09610104   -0.30279146   37.91931802
     atom   27 type  1   force =    -0.29655327   -0.28009200    3.33904016
     atom   28 type  2   force =    -0.08570993   -1.27883204  -37.69975522
     atom   29 type  2   force =     0.25111701    0.32821202   37.58786765
     atom   30 type  1   force =     0.10694046    2.90663761    2.88167235
     atom   31 type  2   force =    -1.64320892    0.84046158  -36.67674334
     atom   32 type  2   force =     0.37810269    0.21739141   39.01940266
     atom   33 type  1   force =    -3.03424183    0.56038780    1.93970477
     atom   34 type  2   force =    -3.78974544    9.01032567  -28.14338034
     atom   35 type  2   force =     0.24026197   -0.31539453   38.79923827
     atom   36 type  3   force =     1.65390774   -3.03405748  -51.42090962
     The core correction contribution to forces
     atom    1 type  1   force =     0.00000000    0.00000000    0.00000000
     atom    2 type  2   force =     0.00093038   -0.00207562    0.02104304
     atom    3 type  2   force =     0.00049606   -0.00046977   -0.02065921
     atom    4 type  1   force =     0.00000000    0.00000000    0.00000000
     atom    5 type  2   force =    -0.00064474    0.00172485    0.02042346
     atom    6 type  2   force =     0.00032130   -0.00125004   -0.02079585
     atom    7 type  1   force =     0.00000000    0.00000000    0.00000000
     atom    8 type  2   force =    -0.00055077    0.00019759    0.02015473
     atom    9 type  2   force =    -0.00042743    0.00050001   -0.02120267
     atom   10 type  1   force =     0.00000000    0.00000000    0.00000000
     atom   11 type  2   force =    -0.00074578   -0.00046957    0.02050613
     atom   12 type  2   force =     0.00135873    0.00172972   -0.02070484
     atom   13 type  1   force =     0.00000000    0.00000000    0.00000000
     atom   14 type  2   force =    -0.00054358    0.00010781    0.02067657
     atom   15 type  2   force =     0.00078395    0.00049888   -0.02061917
     atom   16 type  1   force =     0.00000000    0.00000000    0.00000000
     atom   17 type  2   force =    -0.00000233    0.00150458    0.02031548
     atom   18 type  2   force =    -0.00000286   -0.00060598   -0.02096088
     atom   19 type  1   force =     0.00000000    0.00000000    0.00000000
     atom   20 type  2   force =     0.00014820    0.00084254   -0.02129685
     atom   21 type  1   force =     0.00000000    0.00000000    0.00000000
     atom   22 type  2   force =     0.00101678   -0.00061504    0.02031784
     atom   23 type  2   force =    -0.00081693    0.00155777   -0.02071671
     atom   24 type  1   force =     0.00000000    0.00000000    0.00000000
     atom   25 type  2   force =    -0.00043515   -0.00049776    0.02067883
     atom   26 type  2   force =    -0.00017806    0.00045388   -0.02070319
     atom   27 type  1   force =     0.00000000    0.00000000    0.00000000
     atom   28 type  2   force =     0.00024268    0.00157790    0.02100041
     atom   29 type  2   force =    -0.00058166   -0.00064444   -0.02066804
     atom   30 type  1   force =     0.00000000    0.00000000    0.00000000
     atom   31 type  2   force =     0.00068761   -0.00014363    0.02031885
     atom   32 type  2   force =     0.00002865    0.00064537   -0.02110102
     atom   33 type  1   force =     0.00000000    0.00000000    0.00000000
     atom   34 type  2   force =    -0.01691419    0.03766952    0.06323459
     atom   35 type  2   force =    -0.00018362    0.00107371   -0.02127802
     atom   36 type  3   force =    -0.00385060    0.00707005    0.00390923
     The Hubbard contrib.    to forces
     atom    1 type  1   force =     0.00000000    0.00000000    0.00000000
     atom    2 type  2   force =     0.00000000    0.00000000    0.00000000
     atom    3 type  2   force =     0.00000000    0.00000000    0.00000000
     atom    4 type  1   force =     0.00000000    0.00000000    0.00000000
     atom    5 type  2   force =     0.00000000    0.00000000    0.00000000
     atom    6 type  2   force =     0.00000000    0.00000000    0.00000000
     atom    7 type  1   force =     0.00000000    0.00000000    0.00000000
     atom    8 type  2   force =     0.00000000    0.00000000    0.00000000
     atom    9 type  2   force =     0.00000000    0.00000000    0.00000000
     atom   10 type  1   force =     0.00000000    0.00000000    0.00000000
     atom   11 type  2   force =     0.00000000    0.00000000    0.00000000
     atom   12 type  2   force =     0.00000000    0.00000000    0.00000000
     atom   13 type  1   force =     0.00000000    0.00000000    0.00000000
     atom   14 type  2   force =     0.00000000    0.00000000    0.00000000
     atom   15 type  2   force =     0.00000000    0.00000000    0.00000000
     atom   16 type  1   force =     0.00000000    0.00000000    0.00000000
     atom   17 type  2   force =     0.00000000    0.00000000    0.00000000
     atom   18 type  2   force =     0.00000000    0.00000000    0.00000000
     atom   19 type  1   force =     0.00000000    0.00000000    0.00000000
     atom   20 type  2   force =     0.00000000    0.00000000    0.00000000
     atom   21 type  1   force =     0.00000000    0.00000000    0.00000000
     atom   22 type  2   force =     0.00000000    0.00000000    0.00000000
     atom   23 type  2   force =     0.00000000    0.00000000    0.00000000
     atom   24 type  1   force =     0.00000000    0.00000000    0.00000000
     atom   25 type  2   force =     0.00000000    0.00000000    0.00000000
     atom   26 type  2   force =     0.00000000    0.00000000    0.00000000
     atom   27 type  1   force =     0.00000000    0.00000000    0.00000000
     atom   28 type  2   force =     0.00000000    0.00000000    0.00000000
     atom   29 type  2   force =     0.00000000    0.00000000    0.00000000
     atom   30 type  1   force =     0.00000000    0.00000000    0.00000000
     atom   31 type  2   force =     0.00000000    0.00000000    0.00000000
     atom   32 type  2   force =     0.00000000    0.00000000    0.00000000
     atom   33 type  1   force =     0.00000000    0.00000000    0.00000000
     atom   34 type  2   force =     0.00000000    0.00000000    0.00000000
     atom   35 type  2   force =     0.00000000    0.00000000    0.00000000
     atom   36 type  3   force =     0.00000000    0.00000000    0.00000000
     The SCF correction term to forces
     atom    1 type  1   force =    -0.00013271    0.00029719   -0.00060362
     atom    2 type  2   force =    -0.00007543    0.00019782   -0.00018020
     atom    3 type  2   force =     0.00000896    0.00006467   -0.00038008
     atom    4 type  1   force =    -0.00005822    0.00007441   -0.00038124
     atom    5 type  2   force =    -0.00005017    0.00017120   -0.00008084
     atom    6 type  2   force =     0.00000266    0.00006788   -0.00022558
     atom    7 type  1   force =    -0.00016858   -0.00040486   -0.00054931
     atom    8 type  2   force =    -0.00000784   -0.00018609   -0.00005104
     atom    9 type  2   force =     0.00003156   -0.00003849   -0.00026519
     atom   10 type  1   force =     0.00001547   -0.00013407   -0.00090693
     atom   11 type  2   force =    -0.00017227   -0.00015820   -0.00008511
     atom   12 type  2   force =    -0.00001932   -0.00004471   -0.00034891
     atom   13 type  1   force =     0.00007013    0.00029704   -0.00054408
     atom   14 type  2   force =    -0.00004847    0.00010504   -0.00007840
     atom   15 type  2   force =    -0.00000970    0.00004025   -0.00031340
     atom   16 type  1   force =    -0.00003343    0.00018433   -0.00034750
     atom   17 type  2   force =     0.00002124    0.00016114   -0.00004680
     atom   18 type  2   force =    -0.00000302    0.00006130   -0.00022904
     atom   19 type  1   force =     0.00010905   -0.00039162   -0.00048738
     atom   20 type  2   force =    -0.00002297   -0.00004822   -0.00015235
     atom   21 type  1   force =    -0.00005117   -0.00010711   -0.00059054
     atom   22 type  2   force =     0.00010823   -0.00017539   -0.00005116
     atom   23 type  2   force =     0.00001162   -0.00006275   -0.00032024
     atom   24 type  1   force =     0.00007435    0.00040010   -0.00074512
     atom   25 type  2   force =     0.00012195    0.00019974   -0.00014047
     atom   26 type  2   force =    -0.00000245    0.00007924   -0.00035695
     atom   27 type  1   force =     0.00009880    0.00010191   -0.00033333
     atom   28 type  2   force =     0.00003124    0.00018118   -0.00004877
     atom   29 type  2   force =     0.00000331    0.00004590   -0.00027469
     atom   30 type  1   force =     0.00007368   -0.00031456   -0.00061438
     atom   31 type  2   force =     0.00005644   -0.00014655   -0.00002554
     atom   32 type  2   force =    -0.00000608   -0.00002670   -0.00025084
     atom   33 type  1   force =     0.00002119   -0.00017183   -0.00079689
     atom   34 type  2   force =     0.00002357   -0.00017804   -0.00027840
     atom   35 type  2   force =     0.00000496   -0.00008478   -0.00032903
     atom   36 type  3   force =     0.00000986   -0.00010090   -0.00002220

     Total force =     2.730017     Total SCF correction =     0.002629

     BFGS Geometry Optimization
     Energy error            =      0.0E+00 Ry
     Gradient error          =      1.6E+00 Ry/Bohr

     number of scf cycles    =   1
     number of bfgs steps    =   0

     energy             new  =   -2245.9005462785 Ry

     new trust radius        =       0.5000000000 bohr
     new conv_thr            =       0.0000010000 Ry


ATOMIC_POSITIONS (angstrom)
Mo            6.5766161467        1.7844167945        2.8238853163
S             8.1730202665        0.8143971253        4.4336993733
S             8.1918658804        0.8129674066        1.2775602524
Mo            8.0962119586        4.4955915431        2.7179873141
S             6.4996370813        3.7215590067        4.3456559456
S             6.5534637525        3.5132070522        1.1214069091
Mo            6.4908218550        7.2167590309        2.6707325076
S             8.0811973680        6.3428648943        4.2445967982
S             8.0829254125        6.3055669204        1.0849152892
Mo            8.1574475310        9.9017211825        2.8304804127
S             6.4961676025        8.9424596609        4.3825510640
S             6.6173536342        9.0488162911        1.1410971040
Mo            3.4222165949        1.7473737810        2.7754677105
S             4.9762830674        0.8168858277        4.3523785782
S             5.0561519833        0.8466017665        1.2255289878
Mo            4.9796762823        4.5149425480        2.6336270063
S             3.4287598388        3.6716220666        4.2796369329
S             3.4374526145        3.5473610974        1.0602659296
Mo            3.4543339241        7.2147900604        2.6303950358
S             4.9835947586        6.3264277229        1.0375460152
Mo            5.0115771666        9.9021982979        2.7425387298
S             3.4705789709        8.9430604745        4.3252745679
S             3.4090615037        9.0647734057        1.0970907782
Mo            0.2945798980        1.7467924346        2.8467357970
S             1.8530873423        0.7954582044        4.3992314673
S             1.8589850102        0.8545447209        1.2085969607
Mo            1.8605348930        4.4956601053        2.6614654560
S             0.2722789950        3.6543154263        4.3368668356
S             0.2316691821        3.5272937594        1.1715862873
Mo            0.2695732592        7.2151739808        2.7048277190
S             1.9031939960        6.3120381898        4.2241104326
S             1.8609572510        6.3112581287        1.0452064142
Mo            1.8460225412        9.9394961790        2.7721126700
S             0.3574726368        8.9615896943        4.1939603207
S             0.2756251358        9.0445679258        1.1527766426
O             9.3987116769        9.8409714819        5.5745272580



     Writing config-only to output data dir ./MoS2-V-O.save/
     NEW-OLD atomic charge density approx. for the potential

     negative rho (up, down):  1.992E-04 0.000E+00

     total cpu time spent up to now is      101.6 secs

     Self-consistent Calculation

     iteration #  1     ecut=    80.00 Ry     beta= 0.70
     Davidson diagonalization with overlap
     ethr =  1.00E-06,  avg # of iterations = 20.0

     negative rho (up, down):  7.324E-03 0.000E+00

     total cpu time spent up to now is      122.6 secs

     total energy              =   -2246.29685175 Ry
     estimated scf accuracy    <       0.22072989 Ry

     iteration #  2     ecut=    80.00 Ry     beta= 0.70
     Davidson diagonalization with overlap
     ethr =  7.07E-05,  avg # of iterations =  5.0

     negative rho (up, down):  1.345E-02 0.000E+00

     total cpu time spent up to now is      138.5 secs

     total energy              =   -2246.30477716 Ry
     estimated scf accuracy    <       0.09407012 Ry

     iteration #  3     ecut=    80.00 Ry     beta= 0.70
     Davidson diagonalization with overlap
     ethr =  3.02E-05,  avg # of iterations =  3.0

     negative rho (up, down):  2.072E-02 0.000E+00

     total cpu time spent up to now is      150.5 secs

     total energy              =   -2246.30739787 Ry
     estimated scf accuracy    <       0.01739502 Ry

     iteration #  4     ecut=    80.00 Ry     beta= 0.70
     Davidson diagonalization with overlap
     ethr =  5.58E-06,  avg # of iterations =  3.0

     negative rho (up, down):  2.176E-02 0.000E+00

     total cpu time spent up to now is      161.6 secs

     total energy              =   -2246.30844644 Ry
     estimated scf accuracy    <       0.00668203 Ry

     iteration #  5     ecut=    80.00 Ry     beta= 0.70
     Davidson diagonalization with overlap
     ethr =  2.14E-06,  avg # of iterations =  2.0

     negative rho (up, down):  2.128E-02 0.000E+00

     total cpu time spent up to now is      174.1 secs

     total energy              =   -2246.30794653 Ry
     estimated scf accuracy    <       0.00237786 Ry

     iteration #  6     ecut=    80.00 Ry     beta= 0.70
     Davidson diagonalization with overlap
     ethr =  7.62E-07,  avg # of iterations =  6.0

     negative rho (up, down):  1.848E-02 0.000E+00

     total cpu time spent up to now is      185.5 secs

     total energy              =   -2246.30817423 Ry
     estimated scf accuracy    <       0.00163176 Ry

     iteration #  7     ecut=    80.00 Ry     beta= 0.70
     Davidson diagonalization with overlap
     ethr =  5.23E-07,  avg # of iterations =  4.0

     negative rho (up, down):  1.391E-02 0.000E+00

     total cpu time spent up to now is      196.0 secs

     total energy              =   -2246.30828771 Ry
     estimated scf accuracy    <       0.00012404 Ry

     iteration #  8     ecut=    80.00 Ry     beta= 0.70
     Davidson diagonalization with overlap
     ethr =  3.98E-08,  avg # of iterations =  6.0

     negative rho (up, down):  1.011E-02 0.000E+00

     total cpu time spent up to now is      209.3 secs

     total energy              =   -2246.30822458 Ry
     estimated scf accuracy    <       0.00016416 Ry

     iteration #  9     ecut=    80.00 Ry     beta= 0.70
     Davidson diagonalization with overlap
     ethr =  3.98E-08,  avg # of iterations =  4.0

     negative rho (up, down):  5.704E-03 0.000E+00

     total cpu time spent up to now is      217.6 secs

     total energy              =   -2246.30817030 Ry
     estimated scf accuracy    <       0.00003667 Ry

     iteration # 10     ecut=    80.00 Ry     beta= 0.70
     Davidson diagonalization with overlap
     ethr =  1.18E-08,  avg # of iterations =  5.0

     negative rho (up, down):  3.042E-03 0.000E+00

     total cpu time spent up to now is      225.9 secs

     total energy              =   -2246.30814666 Ry
     estimated scf accuracy    <       0.00001557 Ry

     iteration # 11     ecut=    80.00 Ry     beta= 0.70
     Davidson diagonalization with overlap
     ethr =  4.99E-09,  avg # of iterations =  5.0

     negative rho (up, down):  1.918E-03 0.000E+00

     total cpu time spent up to now is      234.3 secs

     total energy              =   -2246.30813919 Ry
     estimated scf accuracy    <       0.00000499 Ry

     iteration # 12     ecut=    80.00 Ry     beta= 0.70
     Davidson diagonalization with overlap
     ethr =  1.60E-09,  avg # of iterations =  5.0

     negative rho (up, down):  5.432E-04 0.000E+00

     total cpu time spent up to now is      244.8 secs

     total energy              =   -2246.30813010 Ry
     estimated scf accuracy    <       0.00000296 Ry

     iteration # 13     ecut=    80.00 Ry     beta= 0.70
     Davidson diagonalization with overlap
     ethr =  9.47E-10,  avg # of iterations =  5.0

     negative rho (up, down):  1.934E-04 0.000E+00

     total cpu time spent up to now is      248.4 secs

     End of self-consistent calculation

          k = 0.0000 0.0000 0.0000 (105382 PWs)   bands (ev):

   -63.0656 -63.0520 -63.0386 -63.0083 -62.9869 -62.9731 -62.9709 -62.9633
   -62.9391 -62.9125 -62.9057 -62.8367 -37.4172 -37.3643 -37.3412 -37.3275
   -37.2943 -37.2698 -37.2466 -37.2432 -37.2354 -37.2200 -37.2088 -37.2045
   -37.1970 -37.1824 -37.1779 -37.1603 -37.1548 -37.1498 -37.1351 -37.1337
   -37.1250 -37.1168 -37.1116 -37.1022 -37.0815 -37.0708 -37.0639 -37.0561
   -37.0400 -37.0241 -37.0055 -36.9857 -36.9605 -36.9273 -36.9127 -36.8909
   -20.3371 -16.0939 -15.3568 -15.2980 -15.1279 -15.0168 -14.8975 -14.6919
   -14.6502 -14.6318 -14.5473 -14.5354 -14.4765 -14.4293 -14.3577 -14.2850
   -14.2684 -14.2450 -14.1770 -14.1596 -14.0864 -14.0137 -13.9779 -13.9048
    -8.0211  -7.7967  -7.7385  -7.6190  -7.4526  -7.3898  -7.3459  -7.2859
    -7.2627  -7.0348  -6.9787  -6.9537  -6.8913  -6.8069  -6.7482  -6.6919
    -6.6468  -6.5450  -6.4161  -6.3885  -6.2093  -6.1343  -6.0664  -5.9910
    -5.9614  -5.9291  -5.9205  -5.8504  -5.8090  -5.7667  -5.7331  -5.6694
    -5.6144  -5.5877  -5.5447  -5.4072  -5.3653  -5.3345  -5.2659  -5.1324
    -5.0962  -5.0480  -5.0101  -4.8020  -4.7902  -4.6461  -4.5406  -4.4769
    -4.4679  -4.3735  -4.2870  -4.1979  -4.0762  -3.9751  -3.9219  -3.9045
    -3.8729  -3.8416  -3.7699  -3.7428  -3.6816  -3.6569  -3.6197  -3.5912
    -3.5297  -3.5059  -3.4439  -3.3170  -3.0785  -3.0687  -3.0303  -3.0081
    -2.9521  -2.9015  -2.8981  -2.8282  -2.7951  -2.7830  -2.5697  -2.4129
    -2.2166  -2.1553  -2.0941  -1.8812  -1.0028  -0.9107  -0.6600  -0.3507
    -0.2979  -0.2080  -0.1592  -0.0376   0.0070   0.1072   0.1270   0.1532
     0.2042   0.2409   0.2584   0.3070   0.3944   0.4124   0.4183   0.4629
     0.5322   0.6035   0.6212   0.6595   0.6888   0.7463   0.7674   0.8478
     0.8722   0.9228   1.1653

     the Fermi energy is    -1.4421 ev

!    total energy              =   -2246.30812982 Ry
     estimated scf accuracy    <       0.00000065 Ry
     smearing contrib. (-TS)   =      -0.00000034 Ry
     internal energy E=F+TS    =   -2246.30812949 Ry

     The total energy is F=E-TS. E is the sum of the following terms:
     one-electron contribution =  -18450.81363404 Ry
     hartree contribution      =    9212.78612807 Ry
     xc contribution           =    -392.08695397 Ry
     ewald contribution        =    7393.67324425 Ry
     one-center paw contrib.   =      -9.86691379 Ry

     convergence has been achieved in  13 iterations

     negative rho (up, down):  1.934E-04 0.000E+00

     Forces acting on atoms (cartesian axes, Ry/au):

     atom    1 type  1   force =     0.01107010   -0.01418438   -0.00242240
     atom    2 type  2   force =    -0.01402008    0.01234538   -0.00405823
     atom    3 type  2   force =    -0.01159688    0.01100331   -0.00417851
     atom    4 type  1   force =     0.00640516    0.00392314    0.00039191
     atom    5 type  2   force =    -0.00079438   -0.00656401   -0.00618784
     atom    6 type  2   force =     0.00081626    0.00932283    0.00109721
     atom    7 type  1   force =     0.00250705   -0.00887824   -0.00738028
     atom    8 type  2   force =    -0.00455641   -0.00911790    0.01804423
     atom    9 type  2   force =     0.01131218    0.00513048    0.00594100
     atom   10 type  1   force =    -0.03091080    0.00627729   -0.07506007
     atom   11 type  2   force =     0.00706878   -0.00083613   -0.00638928
     atom   12 type  2   force =    -0.00169817    0.00260778    0.00740790
     atom   13 type  1   force =     0.00349676    0.00524080   -0.00838934
     atom   14 type  2   force =     0.00797684   -0.00137920    0.01381427
     atom   15 type  2   force =    -0.01129732    0.00153957   -0.00931181
     atom   16 type  1   force =    -0.00100437    0.01204618    0.00398325
     atom   17 type  2   force =     0.00631688   -0.00062511    0.00041456
     atom   18 type  2   force =    -0.00334963   -0.00563847    0.01303651
     atom   19 type  1   force =     0.00687754   -0.00894611   -0.00322490
     atom   20 type  2   force =     0.00238641   -0.00426505    0.00141635
     atom   21 type  1   force =    -0.00614138    0.00250256   -0.00336764
     atom   22 type  2   force =     0.00000358   -0.00344468   -0.00058240
     atom   23 type  2   force =     0.00270071   -0.00058576    0.00823688
     atom   24 type  1   force =    -0.01098345   -0.00690241   -0.01465697
     atom   25 type  2   force =     0.01275952    0.01325726    0.00727026
     atom   26 type  2   force =    -0.01178448    0.00199074   -0.00569305
     atom   27 type  1   force =    -0.00052176    0.00096170    0.00752235
     atom   28 type  2   force =     0.00019581   -0.00095691   -0.00406899
     atom   29 type  2   force =     0.00299166    0.00161622   -0.00373354
     atom   30 type  1   force =    -0.00842044   -0.05832105   -0.02988100
     atom   31 type  2   force =     0.00860897   -0.00962383    0.01532393
     atom   32 type  2   force =    -0.00805490    0.00532168    0.00484365
     atom   33 type  1   force =     0.04922430    0.01075771   -0.04550981
     atom   34 type  2   force =    -0.06716987    0.14412253    0.17174534
     atom   35 type  2   force =    -0.00791849    0.00811741    0.00188771
     atom   36 type  3   force =     0.05750428   -0.11781534   -0.04828125
     The non-local contrib.  to forces
     atom    1 type  1   force =     0.00460207    0.02380824   -0.00501568
     atom    2 type  2   force =     0.00021745    0.01547798   -0.26397007
     atom    3 type  2   force =    -0.01052421   -0.00219688    0.26664154
     atom    4 type  1   force =    -0.00410291   -0.00154672    0.00431695
     atom    5 type  2   force =     0.00789434   -0.03130956   -0.25611048
     atom    6 type  2   force =    -0.00121374    0.01341298    0.26254458
     atom    7 type  1   force =    -0.01975958    0.00451735   -0.02106540
     atom    8 type  2   force =     0.00827033   -0.00300315   -0.25739538
     atom    9 type  2   force =     0.00775816   -0.00900951    0.27814161
     atom   10 type  1   force =     0.01346202   -0.00767581    0.01857221
     atom   11 type  2   force =     0.00121696    0.00124561   -0.26819196
     atom   12 type  2   force =    -0.00971457   -0.01820912    0.26272235
     atom   13 type  1   force =     0.00034023    0.01930897   -0.00364550
     atom   14 type  2   force =     0.00906880   -0.01131097   -0.26626593
     atom   15 type  2   force =    -0.01370982   -0.01050721    0.26088011
     atom   16 type  1   force =    -0.00219597    0.02286686   -0.02801372
     atom   17 type  2   force =     0.00098671   -0.02813991   -0.25361299
     atom   18 type  2   force =    -0.00348368   -0.00079531    0.27194953
     atom   19 type  1   force =     0.02174095   -0.00169674   -0.01936706
     atom   20 type  2   force =    -0.00116277   -0.01962242    0.26817037
     atom   21 type  1   force =     0.00705687    0.03003727    0.01357641
     atom   22 type  2   force =    -0.01232426    0.00506760   -0.26624266
     atom   23 type  2   force =     0.00759993   -0.01743493    0.26629988
     atom   24 type  1   force =     0.00167575    0.01521021   -0.00906479
     atom   25 type  2   force =     0.01278071    0.01107709   -0.26775339
     atom   26 type  2   force =    -0.00348337   -0.00936440    0.25877038
     atom   27 type  1   force =    -0.00067537   -0.00070510    0.00946389
     atom   28 type  2   force =    -0.00322540   -0.02091044   -0.27835162
     atom   29 type  2   force =     0.00671092    0.00326586    0.26585293
     atom   30 type  1   force =     0.00480390    0.03347116    0.00009118
     atom   31 type  2   force =    -0.01030948   -0.00122983   -0.25774798
     atom   32 type  2   force =    -0.00274499   -0.01141674    0.27388053
     atom   33 type  1   force =    -0.01293644   -0.00573468    0.01757325
     atom   34 type  2   force =    -0.12265974    0.17452267    0.37638341
     atom   35 type  2   force =     0.00092811   -0.01314090    0.26987519
     atom   36 type  3   force =     0.49772464   -0.98037265   -1.33960953
     The ionic contribution  to forces
     atom    1 type  1   force =    -0.31531773    1.15861798    4.35400680
     atom    2 type  2   force =    -1.89758045    2.37589141   37.96176909
     atom    3 type  2   force =    -0.31087943    0.34718772  -36.99290144
     atom    4 type  1   force =    -0.20140238    0.34092633   -0.39419522
     atom    5 type  2   force =    -1.14136138    1.62091029   38.53143785
     atom    6 type  2   force =     0.26531289   -0.45311993  -38.48715173
     atom    7 type  1   force =    -3.42086889   -3.58805729    1.09054105
     atom    8 type  2   force =    -1.44553676   -0.88395897   37.08189333
     atom    9 type  2   force =     0.22577923   -0.28682377  -38.68123840
     atom   10 type  1   force =    -3.38987988    0.42483085    0.76491257
     atom   11 type  2   force =    -1.76835384   -2.00618884   38.50392633
     atom   12 type  2   force =     0.15630301    0.59648842  -38.65978268
     atom   13 type  1   force =     0.94343900    1.67526767    1.61612897
     atom   14 type  2   force =    -0.07182801    0.34709401   38.24823861
     atom   15 type  2   force =     0.12352578    0.09753644  -37.39823129
     atom   16 type  1   force =    -0.03877556    3.78847825   -0.35367219
     atom   17 type  2   force =     0.95229249    1.59755785   37.74468474
     atom   18 type  2   force =    -0.10174119   -0.59128265  -39.01855919
     atom   19 type  1   force =     3.43960677   -3.18388519   -0.73248511
     atom   20 type  2   force =     0.21323562   -0.32492711  -39.00606936
     atom   21 type  1   force =    -0.16656916    0.14123133   -0.28475837
     atom   22 type  2   force =     1.33024511   -1.94470915   38.04545487
     atom   23 type  2   force =     0.10895221    0.61182039  -39.02381677
     atom   24 type  1   force =    -0.31040630    2.79716997    3.66059784
     atom   25 type  2   force =     1.83911832    1.59134166   38.41999330
     atom   26 type  2   force =    -0.09875189    0.32550502  -38.11859865
     atom   27 type  1   force =     0.32448842    0.17248469   -3.24800290
     atom   28 type  2   force =     0.09329427    1.24638185   37.94852787
     atom   29 type  2   force =    -0.24799871   -0.34064318  -37.82831454
     atom   30 type  1   force =    -0.33064318   -3.93789174   -3.21644581
     atom   31 type  2   force =     1.71319416   -0.89234371   37.06509786
     atom   32 type  2   force =    -0.35768334   -0.24011480  -39.28850769
     atom   33 type  1   force =     3.34823069    0.30012728   -1.67601672
     atom   34 type  2   force =     1.53363750   -4.32035384   31.97089061
     atom   35 type  2   force =    -0.22920462    0.37625966  -39.15952470
     atom   36 type  3   force =    -0.76587278    1.06119111   48.56017108
     The local contribution  to forces
     atom    1 type  1   force =     0.32191158   -1.19690043   -4.35197247
     atom    2 type  2   force =     1.88307033   -2.37748414  -37.72308721
     atom    3 type  2   force =     0.30938521   -0.33411888   36.74256213
     atom    4 type  1   force =     0.21200635   -0.33535959    0.38970318
     atom    5 type  2   force =     1.13339557   -1.59784529  -38.30217544
     atom    6 type  2   force =    -0.26352150    0.45026176   38.24614724
     atom    7 type  1   force =     3.44321608    3.57491655   -1.07726704
     atom    8 type  2   force =     1.43327938    0.87757650  -36.82717288
     atom    9 type  2   force =    -0.22197692    0.30054078   38.42977296
     atom   10 type  1   force =     3.34573286   -0.41101311   -0.85927608
     atom   11 type  2   force =     1.77402880    2.00427914  -38.26349654
     atom   12 type  2   force =    -0.14921347   -0.57705769   38.42505874
     atom   13 type  1   force =    -0.94037456   -1.68968224   -1.62142084
     atom   14 type  2   force =     0.07119414   -0.33740160  -37.98914177
     atom   15 type  2   force =    -0.12187614   -0.08617245   37.14827812
     atom   16 type  1   force =     0.03993500   -3.79916868    0.38508856
     atom   17 type  2   force =    -0.94704340   -1.57146359  -37.51122579
     atom   18 type  2   force =     0.10182915    0.58707682   38.78022048
     atom   19 type  1   force =    -3.45470771    3.17696831    0.74827341
     atom   20 type  2   force =    -0.20993794    0.33958270   38.76028397
     atom   21 type  1   force =     0.15325606   -0.16885511    0.26742617
     atom   22 type  2   force =    -1.31855139    1.93660450  -37.80097422
     atom   23 type  2   force =    -0.11335202   -0.59640477   38.78639169
     atom   24 type  1   force =     0.29772392   -2.81964598   -3.66685002
     atom   25 type  2   force =    -1.83851909   -1.58831803  -38.16656871
     atom   26 type  2   force =     0.09051331   -0.31479162   37.87449209
     atom   27 type  1   force =    -0.32440651   -0.17060750    3.24550042
     atom   28 type  2   force =    -0.09009358   -1.22794780  -37.69554662
     atom   29 type  2   force =     0.24483636    0.33968082   37.57903500
     atom   30 type  1   force =     0.31754292    3.84651691    3.18614602
     atom   31 type  2   force =    -1.69498389    0.88412397  -36.81291077
     atom   32 type  2   force =     0.35250944    0.25632499   39.04024785
     atom   33 type  1   force =    -3.28622799   -0.28395598    1.61247017
     atom   34 type  2   force =    -1.48516785    4.30064750  -32.16378773
     atom   35 type  2   force =     0.22058744   -0.35600821   38.91246735
     atom   36 type  3   force =     0.33136764   -0.20976984  -47.28321648
     The core correction contribution to forces
     atom    1 type  1   force =     0.00000000    0.00000000    0.00000000
     atom    2 type  2   force =     0.00022119   -0.00156771    0.02101887
     atom    3 type  2   force =     0.00045660    0.00001563   -0.02074685
     atom    4 type  1   force =     0.00000000    0.00000000    0.00000000
     atom    5 type  2   force =    -0.00068548    0.00167094    0.02055218
     atom    6 type  2   force =     0.00025790   -0.00126937   -0.02083234
     atom    7 type  1   force =     0.00000000    0.00000000    0.00000000
     atom    8 type  2   force =    -0.00048061    0.00039215    0.02064056
     atom    9 type  2   force =    -0.00017530    0.00047799   -0.02108620
     atom   10 type  1   force =     0.00000000    0.00000000    0.00000000
     atom   11 type  2   force =     0.00017145   -0.00015584    0.02127352
     atom   12 type  2   force =     0.00100294    0.00145809   -0.02086930
     atom   13 type  1   force =     0.00000000    0.00000000    0.00000000
     atom   14 type  2   force =    -0.00046383    0.00010949    0.02085649
     atom   15 type  2   force =     0.00077348    0.00061882   -0.02055681
     atom   16 type  1   force =     0.00000000    0.00000000    0.00000000
     atom   17 type  2   force =     0.00004975    0.00142654    0.02047322
     atom   18 type  2   force =     0.00004446   -0.00065565   -0.02098341
     atom   19 type  1   force =     0.00000000    0.00000000    0.00000000
     atom   20 type  2   force =     0.00018883    0.00075580   -0.02132284
     atom   21 type  1   force =     0.00000000    0.00000000    0.00000000
     atom   22 type  2   force =     0.00054164   -0.00043074    0.02100090
     atom   23 type  2   force =    -0.00059043    0.00143427   -0.02082933
     atom   24 type  1   force =     0.00000000    0.00000000    0.00000000
     atom   25 type  2   force =    -0.00058410   -0.00097407    0.02143399
     atom   26 type  2   force =    -0.00010213    0.00050958   -0.02063779
     atom   27 type  1   force =     0.00000000    0.00000000    0.00000000
     atom   28 type  2   force =     0.00021532    0.00153507    0.02120963
     atom   29 type  2   force =    -0.00056732   -0.00072249   -0.02069442
     atom   30 type  1   force =     0.00000000    0.00000000    0.00000000
     atom   31 type  2   force =     0.00069196    0.00002821    0.02074155
     atom   32 type  2   force =    -0.00014031    0.00063687   -0.02106153
     atom   33 type  1   force =     0.00000000    0.00000000    0.00000000
     atom   34 type  2   force =     0.00721808   -0.01094772   -0.01241136
     atom   35 type  2   force =    -0.00020796    0.00105484   -0.02106814
     atom   36 type  3   force =    -0.00571977    0.01116498    0.01456933
     The Hubbard contrib.    to forces
     atom    1 type  1   force =     0.00000000    0.00000000    0.00000000
     atom    2 type  2   force =     0.00000000    0.00000000    0.00000000
     atom    3 type  2   force =     0.00000000    0.00000000    0.00000000
     atom    4 type  1   force =     0.00000000    0.00000000    0.00000000
     atom    5 type  2   force =     0.00000000    0.00000000    0.00000000
     atom    6 type  2   force =     0.00000000    0.00000000    0.00000000
     atom    7 type  1   force =     0.00000000    0.00000000    0.00000000
     atom    8 type  2   force =     0.00000000    0.00000000    0.00000000
     atom    9 type  2   force =     0.00000000    0.00000000    0.00000000
     atom   10 type  1   force =     0.00000000    0.00000000    0.00000000
     atom   11 type  2   force =     0.00000000    0.00000000    0.00000000
     atom   12 type  2   force =     0.00000000    0.00000000    0.00000000
     atom   13 type  1   force =     0.00000000    0.00000000    0.00000000
     atom   14 type  2   force =     0.00000000    0.00000000    0.00000000
     atom   15 type  2   force =     0.00000000    0.00000000    0.00000000
     atom   16 type  1   force =     0.00000000    0.00000000    0.00000000
     atom   17 type  2   force =     0.00000000    0.00000000    0.00000000
     atom   18 type  2   force =     0.00000000    0.00000000    0.00000000
     atom   19 type  1   force =     0.00000000    0.00000000    0.00000000
     atom   20 type  2   force =     0.00000000    0.00000000    0.00000000
     atom   21 type  1   force =     0.00000000    0.00000000    0.00000000
     atom   22 type  2   force =     0.00000000    0.00000000    0.00000000
     atom   23 type  2   force =     0.00000000    0.00000000    0.00000000
     atom   24 type  1   force =     0.00000000    0.00000000    0.00000000
     atom   25 type  2   force =     0.00000000    0.00000000    0.00000000
     atom   26 type  2   force =     0.00000000    0.00000000    0.00000000
     atom   27 type  1   force =     0.00000000    0.00000000    0.00000000
     atom   28 type  2   force =     0.00000000    0.00000000    0.00000000
     atom   29 type  2   force =     0.00000000    0.00000000    0.00000000
     atom   30 type  1   force =     0.00000000    0.00000000    0.00000000
     atom   31 type  2   force =     0.00000000    0.00000000    0.00000000
     atom   32 type  2   force =     0.00000000    0.00000000    0.00000000
     atom   33 type  1   force =     0.00000000    0.00000000    0.00000000
     atom   34 type  2   force =     0.00000000    0.00000000    0.00000000
     atom   35 type  2   force =     0.00000000    0.00000000    0.00000000
     atom   36 type  3   force =     0.00000000    0.00000000    0.00000000
     The SCF correction term to forces
     atom    1 type  1   force =    -0.00012484    0.00028734    0.00053554
     atom    2 type  2   force =     0.00005238    0.00002535    0.00018768
     atom    3 type  2   force =    -0.00003406    0.00011323    0.00024271
     atom    4 type  1   force =    -0.00009491   -0.00009937    0.00054361
     atom    5 type  2   force =    -0.00003643    0.00000714    0.00008465
     atom    6 type  2   force =    -0.00001829    0.00003490    0.00036606
     atom    7 type  1   force =    -0.00007958   -0.00025733    0.00038771
     atom    8 type  2   force =    -0.00008776   -0.00012691    0.00005520
     atom    9 type  2   force =    -0.00007200   -0.00005750    0.00032763
     atom   10 type  1   force =    -0.00022481    0.00013287    0.00070784
     atom   11 type  2   force =     0.00000640   -0.00001868    0.00007596
     atom   12 type  2   force =    -0.00007510   -0.00007440    0.00025539
     atom   13 type  1   force =     0.00009306    0.00034391    0.00052463
     atom   14 type  2   force =     0.00000674    0.00012740    0.00010346
     atom   15 type  2   force =    -0.00000963    0.00006149    0.00029465
     atom   16 type  1   force =     0.00003315   -0.00013273    0.00055721
     atom   17 type  2   force =     0.00003232   -0.00000849    0.00007200
     atom   18 type  2   force =     0.00000261    0.00001584    0.00038571
     atom   19 type  1   force =     0.00023852   -0.00033497    0.00033046
     atom   20 type  2   force =     0.00006365   -0.00005651    0.00033082
     atom   21 type  1   force =     0.00011583    0.00008659    0.00036474
     atom   22 type  2   force =     0.00009347    0.00002063    0.00015531
     atom   23 type  2   force =     0.00009200   -0.00000320    0.00016802
     atom   24 type  1   force =     0.00002417    0.00036090    0.00063659
     atom   25 type  2   force =    -0.00003533    0.00012813    0.00014167
     atom   26 type  2   force =     0.00004059    0.00012968    0.00025751
     atom   27 type  1   force =     0.00007268   -0.00021287    0.00053753
     atom   28 type  2   force =     0.00000619   -0.00001806    0.00006835
     atom   29 type  2   force =     0.00001140    0.00003273    0.00036408
     atom   30 type  1   force =    -0.00012309   -0.00041987    0.00030422
     atom   31 type  2   force =     0.00001719   -0.00020495    0.00011987
     atom   32 type  2   force =     0.00000528   -0.00011111    0.00026108
     atom   33 type  1   force =     0.00015903    0.00031860    0.00044009
     atom   34 type  2   force =    -0.00019687    0.00025144    0.00064702
     atom   35 type  2   force =    -0.00002047   -0.00005046    0.00011461
     atom   36 type  3   force =     0.00000553   -0.00003142   -0.00021905

     Total force =     0.308250     Total SCF correction =     0.002462
     Energy error            =      4.1E-01 Ry
     Gradient error          =      1.7E-01 Ry/Bohr

     number of scf cycles    =   2
     number of bfgs steps    =   1

     energy             old  =   -2245.9005462785 Ry
     energy             new  =   -2246.3081298248 Ry

     CASE: energy            _new < energy            _old

     new trust radius        =       0.0981746418 bohr
     new conv_thr            =       0.0000001717 Ry


ATOMIC_POSITIONS (angstrom)
Mo            6.5825174577        1.7766738796        2.8227643036
S             8.1652839539        0.8215635312        4.4315161406
S             8.1858796282        0.8187522998        1.2754448677
Mo            8.0995904181        4.4976343194        2.7182197051
S             6.4991832590        3.7181514218        4.3423943451
S             6.5538894492        3.5181102606        1.1219726264
Mo            6.4922495004        7.2120212874        2.6668537322
S             8.0788470414        6.3381751596        4.2539130866
S             8.0889299834        6.3082789310        1.0880682781
Mo            8.1416074160        9.9046674548        2.7907216692
S             6.4998573290        8.9419376914        4.3793016853
S             6.6163806049        9.0501128021        1.1449986121
Mo            3.4240570769        1.7500300397        2.7711336427
S             4.9804441063        0.8162001799        4.3595626058
S             5.0502345823        0.8474352588        1.2207145120
Mo            4.9791671492        4.5212451580        2.6357500382
S             3.4320631086        3.6713229453        4.2798211356
S             3.4357056379        3.5444008097        1.0670878229
Mo            3.4578010525        7.2100544907        2.6287544763
S             4.9848460345        6.3242256971        1.0383078495
Mo            5.0084161537        9.9035644475        2.7406863132
S             3.4704877591        8.9412125496        4.3249131105
S             3.4105325665        9.0644348734        1.1013552187
Mo            0.2888574124        1.7432531421        2.8389294388
S             1.8599485492        0.8025960505        4.4030247712
S             1.8527975492        0.8555439184        1.2056256968
Mo            1.8602422945        4.4961271002        2.6654419231
S             0.2723903835        3.6538286870        4.3347081999
S             0.2332343693        3.5280922480        1.1696611527
Mo            0.2650829584        7.1863937521        2.6910346931
S             1.9076233883        6.3071620961        4.2319861748
S             1.8567181169        6.3140755006        1.0477253373
Mo            1.8704199631        9.9445806722        2.7497317906
S             0.3398341321        9.0003371382        4.2237345800
S             0.2714854951        9.0487789869        1.1542790043
O             9.4125011315        9.8145494075        5.6061842796



     Writing config-only to output data dir ./MoS2-V-O.save/
     NEW-OLD atomic charge density approx. for the potential

     negative rho (up, down):  1.606E-04 0.000E+00

     total cpu time spent up to now is      255.7 secs

     Self-consistent Calculation

     iteration #  1     ecut=    80.00 Ry     beta= 0.70
     Davidson diagonalization with overlap
     ethr =  1.00E-06,  avg # of iterations = 13.0

     negative rho (up, down):  1.598E-04 0.000E+00

     total cpu time spent up to now is      272.5 secs

     total energy              =   -2246.34608747 Ry
     estimated scf accuracy    <       0.00523246 Ry

     iteration #  2     ecut=    80.00 Ry     beta= 0.70
     Davidson diagonalization with overlap
     ethr =  1.68E-06,  avg # of iterations =  3.0

     negative rho (up, down):  1.758E-04 0.000E+00

     total cpu time spent up to now is      283.0 secs

     total energy              =   -2246.34625353 Ry
     estimated scf accuracy    <       0.00164063 Ry

     iteration #  3     ecut=    80.00 Ry     beta= 0.70
     Davidson diagonalization with overlap
     ethr =  5.26E-07,  avg # of iterations =  2.0

     negative rho (up, down):  1.795E-04 0.000E+00

     total cpu time spent up to now is      293.3 secs

     total energy              =   -2246.34631041 Ry
     estimated scf accuracy    <       0.00030680 Ry

     iteration #  4     ecut=    80.00 Ry     beta= 0.70
     Davidson diagonalization with overlap
     ethr =  9.83E-08,  avg # of iterations =  5.0

     negative rho (up, down):  1.772E-04 0.000E+00

     total cpu time spent up to now is      305.7 secs

     total energy              =   -2246.34637056 Ry
     estimated scf accuracy    <       0.00002908 Ry

     iteration #  5     ecut=    80.00 Ry     beta= 0.70
     Davidson diagonalization with overlap
     ethr =  9.32E-09,  avg # of iterations =  5.0

     negative rho (up, down):  1.730E-04 0.000E+00

     total cpu time spent up to now is      316.8 secs

     total energy              =   -2246.34637764 Ry
     estimated scf accuracy    <       0.00001154 Ry

     iteration #  6     ecut=    80.00 Ry     beta= 0.70
     Davidson diagonalization with overlap
     ethr =  3.70E-09,  avg # of iterations =  2.0

     negative rho (up, down):  1.658E-04 0.000E+00

     total cpu time spent up to now is      329.3 secs

     total energy              =   -2246.34637821 Ry
     estimated scf accuracy    <       0.00000338 Ry

     iteration #  7     ecut=    80.00 Ry     beta= 0.70
     Davidson diagonalization with overlap
     ethr =  1.08E-09,  avg # of iterations =  5.0

     negative rho (up, down):  1.620E-04 0.000E+00

     total cpu time spent up to now is      343.4 secs

     total energy              =   -2246.34637865 Ry
     estimated scf accuracy    <       0.00000065 Ry

     iteration #  8     ecut=    80.00 Ry     beta= 0.70
     Davidson diagonalization with overlap
     ethr =  2.09E-10,  avg # of iterations =  3.0

     negative rho (up, down):  1.625E-04 0.000E+00

     total cpu time spent up to now is      355.0 secs

     total energy              =   -2246.34637878 Ry
     estimated scf accuracy    <       0.00000029 Ry

     iteration #  9     ecut=    80.00 Ry     beta= 0.70
     Davidson diagonalization with overlap
     ethr =  9.22E-11,  avg # of iterations =  5.0

     negative rho (up, down):  1.923E-04 0.000E+00

     total cpu time spent up to now is      358.7 secs

     End of self-consistent calculation

          k = 0.0000 0.0000 0.0000 (105382 PWs)   bands (ev):

   -63.0582 -63.0453 -63.0286 -63.0113 -62.9833 -62.9742 -62.9673 -62.9613
   -62.9429 -62.9175 -62.9151 -62.8289 -37.4047 -37.3452 -37.3394 -37.3240
   -37.2848 -37.2592 -37.2482 -37.2346 -37.2322 -37.2140 -37.2048 -37.1985
   -37.1915 -37.1806 -37.1766 -37.1600 -37.1510 -37.1442 -37.1338 -37.1271
   -37.1247 -37.1147 -37.1120 -37.1027 -37.0906 -37.0689 -37.0642 -37.0541
   -37.0389 -37.0268 -37.0005 -36.9815 -36.9592 -36.9266 -36.9169 -36.8929
   -20.7049 -16.0908 -15.3356 -15.2964 -15.1269 -15.0119 -14.8935 -14.6523
   -14.6341 -14.6186 -14.5493 -14.5446 -14.4805 -14.4407 -14.3512 -14.2821
   -14.2586 -14.2393 -14.1721 -14.0860 -14.0803 -14.0275 -13.9864 -13.8967
    -7.9748  -7.7399  -7.7130  -7.6133  -7.4558  -7.3813  -7.3554  -7.2982
    -7.2790  -7.0202  -6.9758  -6.9619  -6.8918  -6.8239  -6.7658  -6.6895
    -6.6471  -6.5393  -6.4327  -6.3938  -6.1976  -6.1299  -6.0625  -5.9818
    -5.9538  -5.9196  -5.9081  -5.8500  -5.8126  -5.7756  -5.7421  -5.6633
    -5.6058  -5.5873  -5.5374  -5.3842  -5.3510  -5.3284  -5.2681  -5.1335
    -5.1047  -5.0596  -5.0109  -4.8094  -4.7916  -4.6391  -4.5172  -4.4942
    -4.4723  -4.3831  -4.2994  -4.2253  -4.1132  -3.9770  -3.9212  -3.8979
    -3.8710  -3.8325  -3.7763  -3.7493  -3.6940  -3.6664  -3.6280  -3.5841
    -3.5296  -3.5047  -3.4471  -3.3350  -3.0782  -3.0698  -3.0262  -2.9806
    -2.9419  -2.8986  -2.8871  -2.8384  -2.8047  -2.7828  -2.6125  -2.4178
    -2.2675  -2.1615  -2.0965  -1.9903  -0.9898  -0.9141  -0.6313  -0.3368
    -0.2991  -0.1957  -0.1666  -0.0447   0.0099   0.1189   0.1417   0.1756
     0.2258   0.2538   0.2773   0.2972   0.4004   0.4095   0.4438   0.4859
     0.5549   0.5947   0.6226   0.6551   0.6951   0.7557   0.7715   0.8408
     0.8668   0.9053   1.2033

     the Fermi energy is    -1.4901 ev

!    total energy              =   -2246.34637875 Ry
     estimated scf accuracy    <       0.00000009 Ry
     smearing contrib. (-TS)   =      -0.00000002 Ry
     internal energy E=F+TS    =   -2246.34637873 Ry

     The total energy is F=E-TS. E is the sum of the following terms:
     one-electron contribution =  -18440.47784559 Ry
     hartree contribution      =    9207.63032266 Ry
     xc contribution           =    -392.07594433 Ry
     ewald contribution        =    7388.44256404 Ry
     one-center paw contrib.   =      -9.86547551 Ry

     convergence has been achieved in   9 iterations

     negative rho (up, down):  1.923E-04 0.000E+00

     Forces acting on atoms (cartesian axes, Ry/au):

     atom    1 type  1   force =     0.00258750   -0.00841388   -0.00221453
     atom    2 type  2   force =    -0.01151126    0.00534518   -0.00960576
     atom    3 type  2   force =    -0.01061798    0.01283986   -0.01519962
     atom    4 type  1   force =     0.00247098    0.00223429    0.00094631
     atom    5 type  2   force =     0.00020949   -0.00632330   -0.00643103
     atom    6 type  2   force =     0.00050963    0.00780155    0.00231090
     atom    7 type  1   force =     0.00393930   -0.00743681   -0.00069875
     atom    8 type  2   force =    -0.00330464   -0.00840083    0.01319091
     atom    9 type  2   force =     0.00797171    0.00108588    0.00068635
     atom   10 type  1   force =    -0.01314188    0.00990950   -0.02899264
     atom   11 type  2   force =     0.00757086    0.00021191   -0.01281435
     atom   12 type  2   force =    -0.00974924   -0.00221222   -0.00520576
     atom   13 type  1   force =     0.00274146    0.00334519   -0.00242619
     atom   14 type  2   force =     0.00603455   -0.00063770    0.00797685
     atom   15 type  2   force =    -0.00842360    0.00219976   -0.00859595
     atom   16 type  1   force =     0.00046723    0.00671688    0.00369225
     atom   17 type  2   force =     0.00571868   -0.00051326    0.00096115
     atom   18 type  2   force =    -0.00206924   -0.00289766    0.01054849
     atom   19 type  1   force =     0.00248036   -0.00641142    0.00152072
     atom   20 type  2   force =     0.00245954   -0.00384234   -0.00288089
     atom   21 type  1   force =    -0.00246246   -0.00081176    0.00304255
     atom   22 type  2   force =    -0.00008359   -0.00259081   -0.00399370
     atom   23 type  2   force =     0.00679373   -0.00351397   -0.00099289
     atom   24 type  1   force =    -0.00570380   -0.00441138   -0.00618393
     atom   25 type  2   force =     0.01106188    0.00991697   -0.00176901
     atom   26 type  2   force =    -0.00729600    0.00424570   -0.00948026
     atom   27 type  1   force =     0.00174329   -0.00094174    0.00589242
     atom   28 type  2   force =     0.00002815   -0.00328256   -0.00439572
     atom   29 type  2   force =     0.00272674    0.00189421   -0.00366002
     atom   30 type  1   force =    -0.00319663   -0.01667421   -0.00030732
     atom   31 type  2   force =     0.00474450   -0.00630857    0.01052957
     atom   32 type  2   force =    -0.00498393    0.00129986    0.00146301
     atom   33 type  1   force =     0.01838509    0.00670097   -0.01081008
     atom   34 type  2   force =    -0.05998743    0.11679580    0.12354971
     atom   35 type  2   force =    -0.00271186    0.00077262    0.00055802
     atom   36 type  3   force =     0.05459887   -0.10769171   -0.05021080
     The non-local contrib.  to forces
     atom    1 type  1   force =     0.00527002    0.02287743   -0.00690808
     atom    2 type  2   force =    -0.00218022    0.01205314   -0.27147312
     atom    3 type  2   force =    -0.00994107   -0.00285643    0.25986826
     atom    4 type  1   force =    -0.00184340    0.00045051    0.00393026
     atom    5 type  2   force =     0.00879370   -0.03158882   -0.25703541
     atom    6 type  2   force =    -0.00156583    0.01154853    0.26446568
     atom    7 type  1   force =    -0.01847581    0.00494260   -0.02219974
     atom    8 type  2   force =     0.00685781   -0.00307610   -0.25954203
     atom    9 type  2   force =     0.00557164   -0.01188914    0.27413571
     atom   10 type  1   force =     0.01086217   -0.00779073    0.02315411
     atom   11 type  2   force =     0.00005054    0.00215961   -0.27127275
     atom   12 type  2   force =    -0.01550195   -0.02186091    0.25513217
     atom   13 type  1   force =     0.00081401    0.02069197   -0.00456109
     atom   14 type  2   force =     0.00808818   -0.01056202   -0.26964344
     atom   15 type  2   force =    -0.01126978   -0.01099206    0.26171950
     atom   16 type  1   force =    -0.00229175    0.02505517   -0.03041846
[...]
     atom   28 type  2   force =     0.00082762   -0.01106832   -0.27745382
     atom   29 type  2   force =    -0.00069307   -0.01034134    0.27035591
     atom   30 type  1   force =    -0.00001237    0.02976716    0.01602234
     atom   31 type  2   force =    -0.00851644    0.00248791   -0.27137143
     atom   32 type  2   force =     0.00581653   -0.01223904    0.26759774
     atom   33 type  1   force =    -0.01081838   -0.00107084    0.02114333
     atom   34 type  2   force =    -0.00024234   -0.00025357    0.29594269
     atom   35 type  2   force =    -0.00047046   -0.01101934    0.27630820
     atom   36 type  3   force =     0.00045585   -0.04116481   -2.31716005
     The ionic contribution  to forces
     atom    1 type  1   force =    -0.53432482    1.25372745    0.65979048
     atom    2 type  2   force =    -0.75076113    1.10875881   38.11744220
     atom    3 type  2   force =     0.06837255    0.14896298  -38.49080642
     atom    4 type  1   force =    -0.35996497   -0.16610134   -0.04858920
     atom    5 type  2   force =    -0.94243921    1.05267129   38.17886650
     atom    6 type  2   force =     0.15996007   -0.22877587  -38.46987559
     atom    7 type  1   force =    -3.25896547   -2.52416257    1.62348089
     atom    8 type  2   force =    -1.80648574   -0.79875549   37.80783550
     atom    9 type  2   force =     0.24401578   -0.11073114  -38.56897573
     atom   10 type  1   force =    -1.40507307    0.17079139   -1.77487844
     atom   11 type  2   force =    -1.41962483   -1.42081992   37.78865353
     atom   12 type  2   force =     0.14441832    0.16693318  -38.82098529
     atom   13 type  1   force =     0.52512400    1.23724997    0.82743731
     atom   14 type  2   force =     0.00926137    0.28280026   38.09100527
     atom   15 type  2   force =    -0.01116718    0.03426242  -38.18405197
     atom   16 type  1   force =     0.01016041    3.33345568    1.58340876
     atom   17 type  2   force =     0.96408597    1.05559750   38.25883970
     atom   18 type  2   force =    -0.17968355   -0.22292762  -38.41469196
     atom   19 type  1   force =     3.28174002   -2.53000333    1.98155712
     atom   20 type  2   force =    -0.02001180   -0.15319519  -38.83504670
     atom   21 type  1   force =     0.01700106    0.00131005   -0.85746103
     atom   22 type  2   force =     1.43844313   -1.40934367   37.81227649
     atom   23 type  2   force =    -0.16342031    0.14035456  -38.75602773
     atom   24 type  1   force =     0.00081098    1.40986308    0.74237887
     atom   25 type  2   force =     0.74190961    1.12253762   38.12671160
     atom   26 type  2   force =    -0.05434503    0.14968425  -38.45021027
     atom   27 type  1   force =     0.35287722   -0.16803909    0.49052739
     atom   28 type  2   force =    -0.01785291    0.41249152   37.92174955
     atom   29 type  2   force =     0.02371367   -0.01015937  -37.89221306
     atom   30 type  1   force =     0.00138924   -1.81736058   -1.17667857
     atom   31 type  2   force =     1.78552323   -0.79868342   37.88884429
     atom   32 type  2   force =    -0.22641997   -0.11202646  -38.47560402
     atom   33 type  1   force =     1.39372147    0.18069121   -1.66453560
     atom   34 type  2   force =    -0.01271070   -0.56818346   28.67733353
     atom   35 type  2   force =     0.01345435    0.01684051  -38.14726659
     atom   36 type  3   force =    -0.01273177   -0.23971522   50.44975919
     The local contribution  to forces
     atom    1 type  1   force =     0.53731443   -1.27619312   -0.65607220
     atom    2 type  2   force =     0.75056988   -1.09855579  -37.86732209
     atom    3 type  2   force =    -0.06534921   -0.13888759   38.24707613
     atom    4 type  1   force =     0.35887701    0.16236970    0.04635039
     atom    5 type  2   force =     0.93814105   -1.03144831  -37.94313000
     atom    6 type  2   force =    -0.15991021    0.23311672   38.22528743
     atom    7 type  1   force =     3.27430804    2.51880990   -1.60129015
     atom    8 type  2   force =     1.79699361    0.79441086  -37.55819920
     atom    9 type  2   force =    -0.23806708    0.12287466   38.32107897
     atom   10 type  1   force =     1.39346939   -0.16847311    1.75451800
     atom   11 type  2   force =     1.41607483    1.41915948  -37.54578473
     atom   12 type  2   force =    -0.13672332   -0.15510974   38.58001296
     atom   13 type  1   force =    -0.52843836   -1.26145339   -0.82324384
     atom   14 type  2   force =    -0.00898056   -0.27261716  -37.83888269
     atom   15 type  2   force =     0.01121279   -0.02248780   37.94035702
     atom   16 type  1   force =    -0.01031195   -3.36711803   -1.54800011
     atom   17 type  2   force =    -0.95933409   -1.03492592  -38.02329147
     atom   18 type  2   force =     0.17925320    0.22754206   38.17013179
     atom   19 type  1   force =    -3.29709746    2.52474718   -1.95912939
     atom   20 type  2   force =     0.01960281    0.16415049   38.59073146
     atom   21 type  1   force =    -0.01724651   -0.03295909    0.84562359
     atom   22 type  2   force =    -1.43440250    1.40795064  -37.56890079
     atom   23 type  2   force =     0.15546011   -0.12877115   38.51438985
     atom   24 type  1   force =    -0.00011225   -1.42296003   -0.74146007
     atom   25 type  2   force =    -0.74178096   -1.11238330  -37.87630611
     atom   26 type  2   force =     0.05140618   -0.13952957   38.20617533
     atom   27 type  1   force =    -0.35199325    0.16499234   -0.49305754
     atom   28 type  2   force =     0.01737465   -0.40216761  -37.66531311
     atom   29 type  2   force =    -0.02319426    0.01977758   37.64226330
     atom   30 type  1   force =    -0.00150384    1.78900391    1.16027346
     atom   31 type  2   force =    -1.77654958    0.79455381  -37.63917779
     atom   32 type  2   force =     0.22073797    0.12419991   38.22730720
     atom   33 type  1   force =    -1.38307120   -0.17918635    1.64384154
     atom   34 type  2   force =     0.01288435    0.56921640  -28.96362346
     atom   35 type  2   force =    -0.01326013   -0.00479810   37.89076814
     atom   36 type  3   force =     0.01221661    0.27880768  -48.15850998
     The core correction contribution to forces
     atom    1 type  1   force =     0.00000000    0.00000000    0.00000000
     atom    2 type  2   force =    -0.00006119    0.00048029    0.02125426
     atom    3 type  2   force =     0.00028593    0.00049383   -0.02085739
     atom    4 type  1   force =     0.00000000    0.00000000    0.00000000
     atom    5 type  2   force =    -0.00039751    0.00086081    0.02050481
     atom    6 type  2   force =     0.00012931   -0.00015893   -0.02089466
     atom    7 type  1   force =     0.00000000    0.00000000    0.00000000
     atom    8 type  2   force =    -0.00051693    0.00012231    0.02126244
     atom    9 type  2   force =     0.00059077    0.00073611   -0.02096045
     atom   10 type  1   force =     0.00000000    0.00000000    0.00000000
     atom   11 type  2   force =     0.00001193   -0.00023061    0.02101424
     atom   12 type  2   force =     0.00063288    0.00075113   -0.02076708
     atom   13 type  1   force =     0.00000000    0.00000000    0.00000000
     atom   14 type  2   force =     0.00000185    0.00020903    0.02113048
     atom   15 type  2   force =    -0.00003883    0.00055429   -0.02074844
     atom   16 type  1   force =     0.00000000    0.00000000    0.00000000
     atom   17 type  2   force =     0.00048337    0.00083781    0.02052020
     atom   18 type  2   force =    -0.00017849   -0.00010616   -0.02088839
     atom   19 type  1   force =     0.00000000    0.00000000    0.00000000
     atom   20 type  2   force =    -0.00005989    0.00055483   -0.02125683
     atom   21 type  1   force =     0.00000000    0.00000000    0.00000000
     atom   22 type  2   force =    -0.00002545   -0.00017261    0.02100324
     atom   23 type  2   force =    -0.00064863    0.00074147   -0.02074642
     atom   24 type  1   force =     0.00000000    0.00000000    0.00000000
     atom   25 type  2   force =     0.00003979    0.00046554    0.02124027
     atom   26 type  2   force =    -0.00027933    0.00049151   -0.02084715
     atom   27 type  1   force =     0.00000000    0.00000000    0.00000000
     atom   28 type  2   force =    -0.00006708    0.00071803    0.02127216
     atom   29 type  2   force =     0.00006194    0.00038199   -0.02088101
     atom   30 type  1   force =     0.00000000    0.00000000    0.00000000
     atom   31 type  2   force =     0.00044456    0.00018226    0.02127961
     atom   32 type  2   force =    -0.00053748    0.00066080   -0.02095861
     atom   33 type  1   force =     0.00000000    0.00000000    0.00000000
     atom   34 type  2   force =     0.00000438   -0.00004496   -0.00971493
     atom   35 type  2   force =     0.00002585    0.00054695   -0.02130789
     atom   36 type  3   force =    -0.00000418    0.00043085    0.02457669
     The Hubbard contrib.    to forces
     atom    1 type  1   force =     0.00000000    0.00000000    0.00000000
     atom    2 type  2   force =     0.00000000    0.00000000    0.00000000
     atom    3 type  2   force =     0.00000000    0.00000000    0.00000000
     atom    4 type  1   force =     0.00000000    0.00000000    0.00000000
     atom    5 type  2   force =     0.00000000    0.00000000    0.00000000
     atom    6 type  2   force =     0.00000000    0.00000000    0.00000000
     atom    7 type  1   force =     0.00000000    0.00000000    0.00000000
     atom    8 type  2   force =     0.00000000    0.00000000    0.00000000
     atom    9 type  2   force =     0.00000000    0.00000000    0.00000000
     atom   10 type  1   force =     0.00000000    0.00000000    0.00000000
     atom   11 type  2   force =     0.00000000    0.00000000    0.00000000
     atom   12 type  2   force =     0.00000000    0.00000000    0.00000000
     atom   13 type  1   force =     0.00000000    0.00000000    0.00000000
     atom   14 type  2   force =     0.00000000    0.00000000    0.00000000
     atom   15 type  2   force =     0.00000000    0.00000000    0.00000000
     atom   16 type  1   force =     0.00000000    0.00000000    0.00000000
     atom   17 type  2   force =     0.00000000    0.00000000    0.00000000
     atom   18 type  2   force =     0.00000000    0.00000000    0.00000000
     atom   19 type  1   force =     0.00000000    0.00000000    0.00000000
     atom   20 type  2   force =     0.00000000    0.00000000    0.00000000
     atom   21 type  1   force =     0.00000000    0.00000000    0.00000000
     atom   22 type  2   force =     0.00000000    0.00000000    0.00000000
     atom   23 type  2   force =     0.00000000    0.00000000    0.00000000
     atom   24 type  1   force =     0.00000000    0.00000000    0.00000000
     atom   25 type  2   force =     0.00000000    0.00000000    0.00000000
     atom   26 type  2   force =     0.00000000    0.00000000    0.00000000
     atom   27 type  1   force =     0.00000000    0.00000000    0.00000000
     atom   28 type  2   force =     0.00000000    0.00000000    0.00000000
     atom   29 type  2   force =     0.00000000    0.00000000    0.00000000
     atom   30 type  1   force =     0.00000000    0.00000000    0.00000000
     atom   31 type  2   force =     0.00000000    0.00000000    0.00000000
     atom   32 type  2   force =     0.00000000    0.00000000    0.00000000
     atom   33 type  1   force =     0.00000000    0.00000000    0.00000000
     atom   34 type  2   force =     0.00000000    0.00000000    0.00000000
     atom   35 type  2   force =     0.00000000    0.00000000    0.00000000
     atom   36 type  3   force =     0.00000000    0.00000000    0.00000000
     The SCF correction term to forces
     atom    1 type  1   force =     0.00001291   -0.00001844   -0.00001958
     atom    2 type  2   force =     0.00001465   -0.00001520    0.00000360
     atom    3 type  2   force =    -0.00000031   -0.00000601   -0.00000668
     atom    4 type  1   force =    -0.00000901   -0.00001949   -0.00001301
     atom    5 type  2   force =    -0.00000264   -0.00000355   -0.00000116
     atom    6 type  2   force =     0.00000360   -0.00000849   -0.00000472
     atom    7 type  1   force =    -0.00001163    0.00002658   -0.00000802
     atom    8 type  2   force =    -0.00000551    0.00000697   -0.00000813
     atom    9 type  2   force =    -0.00001735    0.00000234   -0.00000554
     atom   10 type  1   force =     0.00004326   -0.00000509    0.00000323
     atom   11 type  2   force =     0.00000450    0.00000179   -0.00000976
     atom   12 type  2   force =     0.00000035    0.00000247   -0.00000340
     atom   13 type  1   force =    -0.00001177   -0.00002795   -0.00001876
     atom   14 type  2   force =    -0.00000877   -0.00000692   -0.00000453
     atom   15 type  2   force =    -0.00000750   -0.00000480   -0.00000973
     atom   16 type  1   force =    -0.00000863   -0.00000360    0.00000798
     atom   17 type  2   force =    -0.00000287   -0.00000418    0.00000093
     atom   18 type  2   force =    -0.00000237   -0.00001155    0.00000176
     atom   19 type  1   force =     0.00000643    0.00002049   -0.00000551
     atom   20 type  2   force =     0.00000207    0.00001094    0.00000551
     atom   21 type  1   force =    -0.00000100    0.00000858   -0.00001093
     atom   22 type  2   force =    -0.00000766    0.00000289   -0.00001090
     atom   23 type  2   force =    -0.00000006    0.00000229   -0.00000072
     atom   24 type  1   force =     0.00001634   -0.00003228    0.00000628
     atom   25 type  2   force =    -0.00000847   -0.00001018   -0.00000348
     atom   26 type  2   force =     0.00000208   -0.00000177    0.00000311
     atom   27 type  1   force =     0.00000567   -0.00002191   -0.00000207
     atom   28 type  2   force =     0.00000777   -0.00001172   -0.00000317
     atom   29 type  2   force =     0.00000250   -0.00001039    0.00000126
     atom   30 type  1   force =     0.00000162    0.00007181    0.00002618
     atom   31 type  2   force =     0.00001066    0.00000093   -0.00000880
     atom   32 type  2   force =     0.00001615    0.00000067    0.00000342
     atom   33 type  1   force =    -0.00004319    0.00000206    0.00001460
     atom   34 type  2   force =     0.00000105    0.00003235   -0.00002941
     atom   35 type  2   force =     0.00000091    0.00001680    0.00002171
     atom   36 type  3   force =    -0.00000288    0.00008183   -0.00003904

     Total force =     0.006702     Total SCF correction =     0.000174
     Energy error            =      8.5E-05 Ry
     Gradient error          =      1.7E-03 Ry/Bohr

     bfgs converged in  21 scf cycles and  20 bfgs steps
     (criteria: energy <  1.0E-04 Ry, force <  1.0E-02 Ry/Bohr)

     End of BFGS Geometry Optimization

     Final energy             =   -2246.4496796896 Ry

     File ./MoS2-V-O.bfgs deleted, as requested
Begin final coordinates

ATOMIC_POSITIONS (angstrom)
Mo            6.5583798838        1.7742758787        2.7413039664
S             8.1194073737        0.8686777726        4.3598901543
S             8.1390089828        0.8769994519        1.1492626810
Mo            8.1093680887        4.5178148701        2.7219112605
S             6.5163910941        3.6692129595        4.3101961230
S             6.5451738171        3.5894717760        1.1111153778
Mo            6.5135643538        7.2068316021        2.6775989753
S             8.0730617890        6.3246105393        4.3199177498
S             8.1231487630        6.3356814657        1.1152034348
Mo            8.1094503064        9.9731449613        2.7421648427
S             6.5190705033        8.9829415063        4.3151713057
S             6.5735127118        9.0352387726        1.1086636159
Mo            3.4174604692        1.7776952813        2.7445384064
S             4.9880170397        0.8329334628        4.3268049153
S             4.9849428731        0.8594032838        1.1509103422
Mo            4.9895149371        4.5528812722        2.6679009827
S             3.4666303367        3.6712185367        4.3165053699
S             3.4297200917        3.5924767352        1.1162989829
Mo            3.4633608465        7.2063766065        2.6844802091
S             4.9857698896        6.3334045942        1.0642686460
Mo            4.9882222922        9.9215407741        2.7156653945
S             3.4553999389        8.9877272672        4.3168930470
S             3.4023040303        9.0347033096        1.1148802717
Mo            0.2582042855        1.7622324626        2.7627225957
S             1.8537255442        0.8707064585        4.3608252921
S             1.8372742882        0.8784254895        1.1525677460
Mo            1.8681008297        4.5168311249        2.7316019201
S             0.2559973773        3.6222651778        4.3228472145
S             0.2629657806        3.5918002592        1.1603134999
Mo            0.2602522938        7.2003679350        2.7406122380
S             1.9001498326        6.3272685283        4.3272777556
S             1.8569577137        6.3307478407        1.1230974164
Mo            1.8672359647        9.9751365555        2.7448722406
S             0.2594068070        9.0559069384        4.2623086388
S             0.2621946922        9.0531038710        1.1842560889
O             9.7157611899        9.0854688671        5.7614741183
End final coordinates



     Writing all to output data dir ./MoS2-V-O.save/
 
     init_run     :      4.65s CPU      5.18s WALL (       1 calls)
     electrons    :   1794.33s CPU   2030.76s WALL (      21 calls)
     update_pot   :     61.09s CPU     65.05s WALL (      20 calls)
     forces       :     56.95s CPU     65.79s WALL (      21 calls)

     Called by init_run:
     wfcinit      :      0.48s CPU      0.53s WALL (       1 calls)
     potinit      :      2.44s CPU      2.69s WALL (       1 calls)
     hinit0       :      0.43s CPU      0.46s WALL (       1 calls)

     Called by electrons:
     c_bands      :    272.92s CPU    279.46s WALL (     187 calls)
     sum_band     :    109.42s CPU    140.17s WALL (     187 calls)
     v_of_rho     :    177.20s CPU    216.69s WALL (     201 calls)
     newd         :     61.19s CPU     90.99s WALL (     201 calls)
     PAW_pot      :      8.05s CPU      8.08s WALL (     221 calls)
     mix_rho      :   1186.72s CPU   1318.55s WALL (     187 calls)

     Called by c_bands:
     init_us_2    :      4.32s CPU      4.65s WALL (     395 calls)
     init_us_2:cp :      4.31s CPU      4.65s WALL (     395 calls)
     regterg      :    258.87s CPU    265.06s WALL (     187 calls)

     Called by *egterg:
     rdiaghg      :     18.30s CPU     18.49s WALL (    1020 calls)
     h_psi        :    167.01s CPU    168.51s WALL (    1048 calls)
     s_psi        :     16.03s CPU     16.09s WALL (    1048 calls)
     g_psi        :      0.81s CPU      0.82s WALL (     860 calls)

     Called by h_psi:
     h_psi:calbec :     18.43s CPU     18.53s WALL (    1048 calls)
     vloc_psi     :    130.51s CPU    131.80s WALL (    1048 calls)
     add_vuspsi   :     15.99s CPU     16.09s WALL (    1048 calls)

     General routines
     calbec       :     26.82s CPU     26.96s WALL (    1339 calls)
     fft          :    124.65s CPU    144.26s WALL (   13485 calls)
     ffts         :    531.60s CPU    658.27s WALL (  290551 calls)
     fftw         :     82.99s CPU     83.68s WALL (  115388 calls)
     interpolate  :      2.53s CPU      2.88s WALL (     201 calls)
 
     Parallel routines
 
     PWSCF        :  32m 5.99s CPU  36m20.21s WALL

 
   This run was terminated on:  23: 3: 0   1Nov2023            

=------------------------------------------------------------------------------=
   JOB DONE.
=------------------------------------------------------------------------------=
