
     Program PWSCF v.7.2 starts on  1Nov2023 at 18:13:17 

     This program is part of the open-source Quantum ESPRESSO suite
     for quantum simulation of materials; please cite
         "P. Giannozzi et al., J. Phys.:Condens. Matter 21 395502 (2009);
         "P. Giannozzi et al., J. Phys.:Condens. Matter 29 465901 (2017);
         "P. Giannozzi et al., J. Chem. Phys. 152 154105 (2020);
          URL http://www.quantum-espresso.org", 
     in publications or presentations arising from this work. More details at
     http://www.quantum-espresso.org/quote

     Parallel version (MPI & OpenMP), running on      48 processor cores
     Number of MPI processes:                48
     Threads/MPI process:                     1

     MPI processes distributed on     1 nodes
     44441 MiB available memory on the printing compute node when the environment starts
 
     Waiting for input...
     Reading input from standard input
Warning: card &CELL ignored
Warning: card CELL_DYNAMICS = 'BFGS', ignored
Warning: card CELL_DOFREE = '2DXY' ignored
Warning: card / ignored

     Current dimensions of program PWSCF are:
     Max number of different atomic species (ntypx) = 10
     Max number of k-points (npk) =  40000
     Max angular momentum in pseudopotentials (lmaxx) =  4
     file O.pbe-n-kjpaw_psl.0.1.UPF: wavefunction(s)  2P renormalized

     IMPORTANT: XC functional enforced from input :
     Exchange-correlation= RVV10
                           (   1   4  13   4  26   0   0)
     Any further DFT definition will be discarded
     Please, verify this is what you really want


     gamma-point specific algorithms are used
     signal trapping enabled: kill the code with -SIGUSR1 to stop cleanly the simulation 
 
     R & G space division:  proc/nbgrp/npool/nimage =      48
     Subspace diagonalization in iterative solution of the eigenvalue problem:
     one sub-group per band group will be used
     scalapack distributed-memory algorithm (size of sub-group:  2*  2 procs)

 
     Parallelization info
     --------------------
     sticks:   dense  smooth     PW     G-vecs:    dense   smooth      PW
     Min         396     194     47               101632    35090    4376
     Max         398     196     50               101674    35128    4410
     Sum       19091    9389   2349              4879585  1685513  210763
 
     Using Slab Decomposition
 


     bravais-lattice index     =            0
     lattice parameter (alat)  =      17.8707  a.u.
     unit-cell volume          =   17436.2743 (a.u.)^3
     number of atoms/cell      =           36
     number of atomic types    =            3
     number of electrons       =       312.00
     number of Kohn-Sham states=          187
     kinetic-energy cutoff     =      80.0000  Ry
     charge density cutoff     =     650.0000  Ry
     scf convergence threshold =      1.0E-06
     mixing beta               =       0.7000
     number of iterations used =            8  local-TF  mixing
     energy convergence thresh.=      1.0E-04
     force convergence thresh. =      1.0E-02
     Exchange-correlation= RVV10
                           (   1   4  13   4  26   0   0)
     nstep                     =          200


     celldm(1)=  17.870686  celldm(2)=   0.000000  celldm(3)=   0.000000
     celldm(4)=   0.000000  celldm(5)=   0.000000  celldm(6)=   0.000000

     crystal axes: (cart. coord. in units of alat)
               a(1) = (   1.000000   0.000000   0.000000 )  
               a(2) = (   0.000000   1.155671   0.000000 )  
               a(3) = (   0.000000   0.000000   2.643601 )  

     reciprocal axes: (cart. coord. in units 2 pi/alat)
               b(1) = (  1.000000  0.000000  0.000000 )  
               b(2) = (  0.000000  0.865298  0.000000 )  
               b(3) = (  0.000000  0.000000  0.378272 )  


     PseudoPot. # 1 for Mo read from file:
     ../pseudo/Mo_ONCV_PBE-1.0.oncvpsp.upf
     MD5 check sum: 1b5d28e075c9ccadda658a603575cd1f
     Pseudo is Norm-conserving, Zval = 14.0
     Generated using ONCVPSP code by D. R. Hamann
     Using radial grid of 1526 points,  6 beta functions with: 
                l(1) =   0
                l(2) =   0
                l(3) =   1
                l(4) =   1
                l(5) =   2
                l(6) =   2

     PseudoPot. # 2 for S  read from file:
     ../pseudo/s_pbe_v1.4.uspp.F.UPF
     MD5 check sum: 88d86576ff6df21479756cfb9bdac1df
     Pseudo is Ultrasoft + core correction, Zval =  6.0
     Generated by new atomic code, or converted to UPF format
     Using radial grid of  907 points,  6 beta functions with: 
                l(1) =   0
                l(2) =   0
                l(3) =   1
                l(4) =   1
                l(5) =   2
                l(6) =   2
     Q(r) pseudized with  8 coefficients,  rinner =    1.300   1.300   1.300
                                                       1.300   1.300

     PseudoPot. # 3 for O  read from file:
     ../pseudo/O.pbe-n-kjpaw_psl.0.1.UPF
     MD5 check sum: 0234752ac141de4415c5fc33072bef88
     Pseudo is Projector augmented-wave + core cor, Zval =  6.0
     Generated using "atomic" code by A. Dal Corso  v.5.0.99 svn rev. 10869
     Shape of augmentation charge: BESSEL
     Using radial grid of 1095 points,  4 beta functions with: 
                l(1) =   0
                l(2) =   0
                l(3) =   1
                l(4) =   1
     Q(r) pseudized with 0 coefficients 


     atomic species   valence    mass     pseudopotential
        Mo            14.00    95.94000     Mo( 1.00)
        S              6.00    32.06500     S ( 1.00)
        O              6.00    15.99940     O ( 1.00)

     No symmetry found



   Cartesian axes

     site n.     atom                  positions (alat units)
         1           Mo  tau(   1) = (   0.6952221   0.1890506   0.2985846  )
         2           S   tau(   2) = (   0.8646417   0.0856217   0.4689279  )
         3           S   tau(   3) = (   0.8663890   0.0857843   0.1351291  )
         4           Mo  tau(   4) = (   0.8560186   0.4753274   0.2873942  )
         5           S   tau(   5) = (   0.6873294   0.3936244   0.4596353  )
         6           S   tau(   6) = (   0.6929804   0.3713468   0.1185692  )
         7           Mo  tau(   7) = (   0.6862796   0.7633098   0.2825370  )
         8           S   tau(   8) = (   0.8545980   0.6708292   0.4486168  )
         9           S   tau(   9) = (   0.8545123   0.6666874   0.1146125  )
        10           Mo  tau(  10) = (   0.8629403   1.0471007   0.3006803  )
        11           S   tau(  11) = (   0.6868280   0.9456650   0.4634891  )
        12           S   tau(  12) = (   0.6998113   0.9568511   0.1205389  )
        13           Mo  tau(  13) = (   0.3618216   0.1847309   0.2935964  )
        14           S   tau(  14) = (   0.5260962   0.0863870   0.4600448  )
        15           S   tau(  15) = (   0.5348379   0.0894875   0.1297123  )
        16           Mo  tau(  16) = (   0.5265817   0.4772436   0.2784130  )
        17           S   tau(  17) = (   0.3624753   0.3882513   0.4525556  )
        18           S   tau(  18) = (   0.3635411   0.3752055   0.1119148  )
        19           Mo  tau(  19) = (   0.3652268   0.7630864   0.2781795  )
        20           S   tau(  20) = (   0.5269494   0.6690381   0.1096838  )
        21           Mo  tau(  21) = (   0.5300192   1.0470394   0.2900995  )
        22           S   tau(  22) = (   0.3670346   0.9457522   0.4574073  )
        23           S   tau(  23) = (   0.3604225   0.9585725   0.1159032  )
        24           Mo  tau(  24) = (   0.0313099   0.1847895   0.3013130  )
        25           S   tau(  25) = (   0.1956761   0.0838230   0.4650863  )
        26           S   tau(  26) = (   0.1967693   0.0903508   0.1278874  )
        27           Mo  tau(  27) = (   0.1967578   0.4753919   0.2813011  )
        28           S   tau(  28) = (   0.0287851   0.3864324   0.4586755  )
        29           S   tau(  29) = (   0.0244514   0.3729871   0.1239344  )
        30           Mo  tau(  30) = (   0.0286728   0.7631204   0.2856894  )
        31           S   tau(  31) = (   0.2011512   0.6675435   0.4465001  )
        32           S   tau(  32) = (   0.1969214   0.6672839   0.1104564  )
        33           Mo  tau(  33) = (   0.1950294   1.0511147   0.2932237  )
        34           S   tau(  34) = (   0.0312912   0.9612169   0.4667423  )
        35           S   tau(  35) = (   0.0292670   0.9563028   0.1216485  )
        36           O   tau(  36) = (   0.7777778   0.6420393   0.5656742  )

     number of k points=     1  Gaussian smearing, width (Ry)=  0.0100
                       cart. coord. in units 2pi/alat
        k(    1) = (   0.0000000   0.0000000   0.0000000), wk =   2.0000000

     Dense  grid:  2439793 G-vectors     FFT dimensions: ( 150, 180, 384)

     Smooth grid:   842757 G-vectors     FFT dimensions: ( 108, 120, 270)

     Estimated max dynamical RAM per process >     269.22 MB

     Estimated total dynamical RAM >      12.62 GB

     Initial potential from superposition of free atoms

     starting charge     311.9873, renormalised to     312.0000

     negative rho (up, down):  2.756E-04 0.000E+00


---------------------------------------------------------------------------------
Carrying out rVV10 run using the following parameters:
Nqs =      20    Nr_points =    1024   r_max =   100.000
b_value =  6.30000    beta =  0.00901
     q_mesh =  0.00010000  0.00030000  0.00058939  0.00100810
               0.00161396  0.00249058  0.00375900  0.00559430
               0.00824984  0.01209221  0.01765183  0.02569619
               0.03733578  0.05417739  0.07854596  0.11380545
               0.16482331  0.23864234  0.34545298  0.50000000

Gradients computed in Reciprocal space

---------------------------------------------------------------------------------


     Starting wfcs are  216 randomized atomic wfcs
     Checking if some PAW data can be deallocated... 

     total cpu time spent up to now is        5.3 secs

     Self-consistent Calculation

     iteration #  1     ecut=    80.00 Ry     beta= 0.70
     Davidson diagonalization with overlap
     ethr =  1.00E-02,  avg # of iterations =  2.0

     Threshold (ethr) on eigenvalues was too large:
     Diagonalizing with lowered threshold

     Davidson diagonalization with overlap
     ethr =  4.44E-04,  avg # of iterations =  4.0

     negative rho (up, down):  4.113E-08 0.000E+00

     total cpu time spent up to now is       19.1 secs

     total energy              =   -2246.28783961 Ry
     estimated scf accuracy    <       1.64024718 Ry

     iteration #  2     ecut=    80.00 Ry     beta= 0.70
     Davidson diagonalization with overlap
     ethr =  5.26E-04,  avg # of iterations =  3.0

     total cpu time spent up to now is       24.1 secs

     total energy              =   -2246.27623974 Ry
     estimated scf accuracy    <       0.56248691 Ry

     iteration #  3     ecut=    80.00 Ry     beta= 0.70
     Davidson diagonalization with overlap
     ethr =  1.80E-04,  avg # of iterations =  2.0

     total cpu time spent up to now is       28.4 secs

     total energy              =   -2246.29102599 Ry
     estimated scf accuracy    <       0.11406872 Ry

     iteration #  4     ecut=    80.00 Ry     beta= 0.70
     Davidson diagonalization with overlap
     ethr =  3.66E-05,  avg # of iterations = 16.0

     total cpu time spent up to now is       33.6 secs

     total energy              =   -2246.30901245 Ry
     estimated scf accuracy    <       0.02299141 Ry

     iteration #  5     ecut=    80.00 Ry     beta= 0.70
     Davidson diagonalization with overlap
     ethr =  7.37E-06,  avg # of iterations =  2.0

     total cpu time spent up to now is       37.7 secs

     total energy              =   -2246.30826654 Ry
     estimated scf accuracy    <       0.01452399 Ry

     iteration #  6     ecut=    80.00 Ry     beta= 0.70
     Davidson diagonalization with overlap
     ethr =  4.66E-06,  avg # of iterations =  2.0

     total cpu time spent up to now is       41.8 secs

     total energy              =   -2246.30726026 Ry
     estimated scf accuracy    <       0.00933710 Ry

     iteration #  7     ecut=    80.00 Ry     beta= 0.70
     Davidson diagonalization with overlap
     ethr =  2.99E-06,  avg # of iterations =  2.0

     negative rho (up, down):  2.274E-06 0.000E+00

     total cpu time spent up to now is       48.0 secs

     total energy              =   -2246.30636516 Ry
     estimated scf accuracy    <       0.00528772 Ry

     iteration #  8     ecut=    80.00 Ry     beta= 0.70
     Davidson diagonalization with overlap
     ethr =  1.69E-06,  avg # of iterations = 10.0

     negative rho (up, down):  1.580E-02 0.000E+00

     total cpu time spent up to now is       54.6 secs

     total energy              =   -2246.30577164 Ry
     estimated scf accuracy    <       0.00299016 Ry

     iteration #  9     ecut=    80.00 Ry     beta= 0.70
     Davidson diagonalization with overlap
     ethr =  9.58E-07,  avg # of iterations =  2.0

     negative rho (up, down):  2.701E-02 0.000E+00

     total cpu time spent up to now is       60.6 secs

     total energy              =   -2246.30569780 Ry
     estimated scf accuracy    <       0.00152756 Ry

     iteration # 10     ecut=    80.00 Ry     beta= 0.70
     Davidson diagonalization with overlap
     ethr =  4.90E-07,  avg # of iterations =  2.0

     negative rho (up, down):  2.104E-02 0.000E+00

     total cpu time spent up to now is       67.9 secs

     total energy              =   -2246.30570980 Ry
     estimated scf accuracy    <       0.00055846 Ry

     iteration # 11     ecut=    80.00 Ry     beta= 0.70
     Davidson diagonalization with overlap
     ethr =  1.79E-07,  avg # of iterations =  2.0

     negative rho (up, down):  1.118E-02 0.000E+00

     total cpu time spent up to now is       74.9 secs

     total energy              =   -2246.30570654 Ry
     estimated scf accuracy    <       0.00008486 Ry

     iteration # 12     ecut=    80.00 Ry     beta= 0.70
     Davidson diagonalization with overlap
     ethr =  2.72E-08,  avg # of iterations =  5.0

     negative rho (up, down):  3.668E-03 0.000E+00

     total cpu time spent up to now is       82.4 secs

     total energy              =   -2246.30575637 Ry
     estimated scf accuracy    <       0.00002621 Ry

     iteration # 13     ecut=    80.00 Ry     beta= 0.70
     Davidson diagonalization with overlap
     ethr =  8.40E-09,  avg # of iterations =  2.0

     negative rho (up, down):  6.420E-04 0.000E+00

     total cpu time spent up to now is       92.4 secs

     total energy              =   -2246.30576542 Ry
     estimated scf accuracy    <       0.00000673 Ry

     iteration # 14     ecut=    80.00 Ry     beta= 0.70
     Davidson diagonalization with overlap
     ethr =  2.16E-09,  avg # of iterations =  2.0

     negative rho (up, down):  3.209E-04 0.000E+00

     total cpu time spent up to now is      104.4 secs

     total energy              =   -2246.30576510 Ry
     estimated scf accuracy    <       0.00000110 Ry

     iteration # 15     ecut=    80.00 Ry     beta= 0.70
     Davidson diagonalization with overlap
     ethr =  3.51E-10,  avg # of iterations =  4.0

     negative rho (up, down):  2.141E-04 0.000E+00

     total cpu time spent up to now is      108.7 secs

     End of self-consistent calculation

          k = 0.0000 0.0000 0.0000 (105382 PWs)   bands (ev):

   -62.9659 -62.9306 -62.9165 -62.9075 -62.8968 -62.8823 -62.8726 -62.8603
   -62.8403 -62.8199 -62.7654 -62.7209 -37.2813 -37.2219 -37.2114 -37.1931
   -37.1819 -37.1694 -37.1566 -37.1290 -37.1193 -37.1085 -37.1069 -37.1007
   -37.0937 -37.0882 -37.0849 -37.0764 -37.0617 -37.0564 -37.0537 -37.0371
   -37.0056 -37.0030 -36.9841 -36.9778 -36.9680 -36.9616 -36.9473 -36.9419
   -36.9269 -36.9141 -36.9056 -36.8765 -36.8618 -36.8384 -36.7964 -36.7201
   -24.9289 -15.9923 -15.2314 -15.1515 -14.9925 -14.9327 -14.8044 -14.5515
   -14.5228 -14.4697 -14.4350 -14.3913 -14.3805 -14.3294 -14.2901 -14.1843
   -14.1708 -14.1596 -14.0858 -13.9823 -13.9230 -13.8927 -13.8571 -13.4949
    -8.7196  -8.6149  -8.0581  -7.5965  -7.4566  -7.3105  -7.2458  -7.2409
    -7.1898  -7.1181  -7.0889  -6.8685  -6.8188  -6.7228  -6.6896  -6.6632
    -6.4795  -6.4422  -6.3571  -6.3250  -6.1833  -6.1573  -5.9538  -5.9371
    -5.8588  -5.8195  -5.8096  -5.7959  -5.7385  -5.6898  -5.6488  -5.6214
    -5.5844  -5.5463  -5.5284  -5.3545  -5.2586  -5.2071  -5.1065  -5.0589
    -5.0017  -4.9772  -4.9657  -4.8346  -4.7734  -4.6213  -4.4041  -4.3628
    -4.3405  -4.2930  -4.2504  -4.2052  -4.0728  -4.0478  -3.9700  -3.8158
    -3.8107  -3.7647  -3.7069  -3.6530  -3.5921  -3.5571  -3.5482  -3.4946
    -3.4835  -3.4394  -3.3811  -3.2562  -3.1845  -3.1208  -2.9261  -2.8835
    -2.8563  -2.7861  -2.7705  -2.7515  -2.7183  -2.6392  -2.5728  -2.5264
    -2.2831  -2.0597  -2.0095  -1.7945  -0.8968  -0.7229  -0.4132  -0.2370
    -0.1608  -0.1001  -0.0029   0.0392   0.0964   0.1556   0.1948   0.2208
     0.2577   0.2987   0.3880   0.4574   0.4747   0.5305   0.5426   0.5800
     0.6460   0.6984   0.7174   0.7468   0.7575   0.8173   0.8660   0.9191
     0.9490   1.0563   1.1961

     the Fermi energy is    -1.3456 ev

!    total energy              =   -2246.30576628 Ry
     estimated scf accuracy    <       0.00000045 Ry
     smearing contrib. (-TS)   =      -0.00000021 Ry
     internal energy E=F+TS    =   -2246.30576607 Ry

     The total energy is F=E-TS. E is the sum of the following terms:
     one-electron contribution =  -18451.38928237 Ry
     hartree contribution      =    9213.71432871 Ry
     xc contribution           =    -392.31979082 Ry
     ewald contribution        =    7393.53574116 Ry
     one-center paw contrib.   =      -9.84676275 Ry

     convergence has been achieved in  15 iterations

     negative rho (up, down):  2.141E-04 0.000E+00

     Forces acting on atoms (cartesian axes, Ry/au):

     atom    1 type  1   force =     0.01334657   -0.02476075    0.00591098
     atom    2 type  2   force =    -0.01474663    0.01678362    0.00094960
     atom    3 type  2   force =    -0.01116937    0.00924411   -0.00345794
     atom    4 type  1   force =     0.01308281   -0.00423750   -0.01963903
     atom    5 type  2   force =    -0.00253637   -0.01272160   -0.01176657
     atom    6 type  2   force =    -0.00228146    0.01019186   -0.00173032
     atom    7 type  1   force =     0.01526742    0.00143516   -0.03004548
     atom    8 type  2   force =     0.14413124    0.04786962   -0.40785011
     atom    9 type  2   force =     0.01269853    0.00510448    0.01498443
     atom   10 type  1   force =    -0.01518601    0.00694653   -0.02648493
     atom   11 type  2   force =     0.00741282   -0.00524658   -0.00275106
     atom   12 type  2   force =    -0.00219824    0.00034652    0.00833276
     atom   13 type  1   force =     0.00544419    0.00475504   -0.00648921
     atom   14 type  2   force =     0.00816606    0.00000900    0.01313443
     atom   15 type  2   force =    -0.01303674    0.00328216   -0.00834054
     atom   16 type  1   force =    -0.00101303    0.01506474    0.00677409
     atom   17 type  2   force =     0.00583792    0.00016066    0.00180695
     atom   18 type  2   force =    -0.00405981   -0.00670381    0.01192675
     atom   19 type  1   force =     0.00031193   -0.01617116   -0.00641266
     atom   20 type  2   force =     0.00121371   -0.00741519    0.00131354
     atom   21 type  1   force =    -0.00820383    0.00817013   -0.00564295
     atom   22 type  2   force =    -0.00184064   -0.00066051   -0.00331296
     atom   23 type  2   force =     0.00236044    0.00429606    0.01139465
     atom   24 type  1   force =    -0.00730368   -0.00116199   -0.02178497
     atom   25 type  2   force =     0.01662795    0.01843144    0.00606713
     atom   26 type  2   force =    -0.01172989   -0.00125953   -0.00208748
     atom   27 type  1   force =    -0.00111044   -0.00028676    0.00571445
     atom   28 type  2   force =    -0.00157576   -0.00119967   -0.00195848
     atom   29 type  2   force =     0.00751831   -0.00192209   -0.00372340
     atom   30 type  1   force =     0.01643069    0.01985890    0.02913226
     atom   31 type  2   force =     0.01038989    0.00061644    0.01138303
     atom   32 type  2   force =    -0.00965300    0.00526059    0.00820875
     atom   33 type  1   force =     0.01346666   -0.00926618   -0.00774088
     atom   34 type  2   force =     0.00408811   -0.03717542   -0.01075520
     atom   35 type  2   force =    -0.01198462    0.00676571    0.01198877
     atom   36 type  3   force =    -0.17816574   -0.05440403    0.43295158
     The non-local contrib.  to forces
     atom    1 type  1   force =    -0.00736385    0.03897777   -0.01031959
     atom    2 type  2   force =    -0.00958966    0.00143202   -0.27141884
     atom    3 type  2   force =    -0.01346936   -0.00281801    0.27016343
     atom    4 type  1   force =     0.00090288    0.03664487    0.03085146
     atom    5 type  2   force =    -0.00583015   -0.04783960   -0.25564202
     atom    6 type  2   force =    -0.00434109    0.00997540    0.26453893
     atom    7 type  1   force =     0.01635462   -0.01964981    0.00453679
     atom    8 type  2   force =     0.02633827   -0.00893574   -0.00328843
     atom    9 type  2   force =     0.00909045   -0.00759832    0.28338318
     atom   10 type  1   force =     0.00037660    0.00470350   -0.00371343
     atom   11 type  2   force =     0.01616910    0.00175123   -0.25701511
     atom   12 type  2   force =    -0.01017146   -0.01856479    0.26446892
     atom   13 type  1   force =    -0.00093387    0.02180506   -0.00719638
     atom   14 type  2   force =     0.01327076   -0.01036656   -0.26285977
     atom   15 type  2   force =    -0.01338847   -0.00610215    0.26216832
     atom   16 type  1   force =     0.00278170    0.02141215   -0.03444042
     atom   17 type  2   force =     0.00203746   -0.02782403   -0.25196487
     atom   18 type  2   force =    -0.00311039   -0.00201427    0.27463353
     atom   19 type  1   force =     0.02885406    0.00562332   -0.01346588
     atom   20 type  2   force =    -0.00321345   -0.02415171    0.26262726
     atom   21 type  1   force =     0.00082994    0.02144959    0.00723530
     atom   22 type  2   force =    -0.00579994    0.00427576   -0.26215864
     atom   23 type  2   force =     0.00672418   -0.01395601    0.26849586
     atom   24 type  1   force =     0.00681266    0.01270207   -0.00971512
     atom   25 type  2   force =     0.01025285    0.00217516   -0.26422221
     atom   26 type  2   force =    -0.00313077   -0.01337081    0.26285824
     atom   27 type  1   force =    -0.00155865    0.00895290    0.00812218
     atom   28 type  2   force =    -0.01841808   -0.01647065   -0.27307618
     atom   29 type  2   force =     0.01396710   -0.00011197    0.26051928
     atom   30 type  1   force =    -0.00172217   -0.01333626    0.00356977
     atom   31 type  2   force =    -0.00799719    0.00321534   -0.25312603
     atom   32 type  2   force =    -0.00362360   -0.00958524    0.27294116
     atom   33 type  1   force =     0.00122050    0.01638708    0.00454951
     atom   34 type  2   force =    -0.00052017   -0.04449613   -0.27182554
     atom   35 type  2   force =    -0.00097324   -0.01187459    0.27116239
     atom   36 type  3   force =     1.45801947    0.53982266   -1.79553832
     The ionic contribution  to forces
     atom    1 type  1   force =     0.17802485   -0.59214861    4.37691836
     atom    2 type  2   force =    -0.56200085    0.30971606   39.06545853
     atom    3 type  2   force =    -0.12521706   -0.01367465  -36.63049498
     atom    4 type  1   force =     1.05111790   -1.56971389   -3.50779239
     atom    5 type  2   force =    -1.77194238   -0.76679994   37.67088064
     atom    6 type  2   force =     0.26339208   -0.78745589  -38.85678063
     atom    7 type  1   force =    -3.88651568   -0.99580663   -2.15804033
     atom    8 type  2   force =     4.86527713    2.23665492   28.31411707
     atom    9 type  2   force =     0.47080330    0.01267785  -39.18914527
     atom   10 type  1   force =    -0.82226287    0.83761250    4.15440531
     atom   11 type  2   force =    -1.04823873    0.03949672   38.47116709
     atom   12 type  2   force =     0.37728043    0.96861661  -38.61498034
     atom   13 type  1   force =     0.30458204    0.61693092    1.89671621
     atom   14 type  2   force =    -0.12118722   -0.07386454   38.31710284
     atom   15 type  2   force =     0.08826743   -0.09079707  -37.31199904
     atom   16 type  1   force =    -1.35643862    2.89119244   -1.94509815
     atom   17 type  2   force =     0.51281382    1.06053174   37.62744150
     atom   18 type  2   force =    -0.22854709   -0.79257076  -39.15418344
     atom   19 type  1   force =     2.12685851   -1.98697466   -0.97641249
     atom   20 type  2   force =    -0.00021906   -0.16151968  -39.37281240
     atom   21 type  1   force =    -0.42678758    0.81884666   -0.09036044
     atom   22 type  2   force =     0.20858431   -1.28737161   38.16820470
     atom   23 type  2   force =    -0.14366566    0.81115282  -38.84639068
     atom   24 type  1   force =    -0.16552292    0.57747764    4.73819742
     atom   25 type  2   force =     0.74111771    0.24387116   39.10626147
     atom   26 type  2   force =    -0.25611061    0.04384053  -37.79895445
     atom   27 type  1   force =     0.52261478   -0.15549767   -3.77509460
     atom   28 type  2   force =     0.90156465    0.02663133   37.68856229
     atom   29 type  2   force =    -0.11235414   -0.64834941  -37.97388571
     atom   30 type  1   force =     1.26906495    0.03257537   -2.73837660
     atom   31 type  2   force =     1.73728714    0.01972547   36.88536891
     atom   32 type  2   force =    -0.38264049    0.01679310  -39.32958481
     atom   33 type  1   force =     1.00101748   -0.36476778    1.05316539
     atom   34 type  2   force =     0.80574414   -0.63705990   38.99721102
     atom   35 type  2   force =    -0.17173423    0.68495032  -38.46612212
     atom   36 type  3   force =    -5.84402748   -1.32492145   50.20533013
     The local contribution  to forces
     atom    1 type  1   force =    -0.15730701    0.52871576   -4.36141740
     atom    2 type  2   force =     0.55660911   -0.29426310  -38.81417804
     atom    3 type  2   force =     0.12689764    0.02569844   36.37746664
     atom    4 type  1   force =    -1.03900164    1.52897074    3.45670559
     atom    5 type  2   force =     1.77527732    0.79924865  -37.44801342
     atom    6 type  2   force =    -0.26182704    0.78873546   38.61115884
     atom    7 type  1   force =     3.88562054    1.01675021    2.12293525
     atom    8 type  2   force =    -4.74491061   -2.18001225  -28.72853096
     atom    9 type  2   force =    -0.46693724   -0.00043252   38.94191058
     atom   10 type  1   force =     0.80661133   -0.83554352   -4.17788308
     atom   11 type  2   force =     1.04044255   -0.04636975  -38.23769924
     atom   12 type  2   force =    -0.37031583   -0.95116393   38.37945730
     atom   13 type  1   force =    -0.29808021   -0.63375323   -1.89680326
     atom   14 type  2   force =     0.11680171    0.08421881  -38.06204037
     atom   15 type  2   force =    -0.08862961    0.09983382   37.06178260
     atom   16 type  1   force =     1.35276431   -2.89749097    1.98563825
     atom   17 type  2   force =    -0.50898738   -1.03395617  -37.39430259
     atom   18 type  2   force =     0.22761990    0.78851513   38.91227111
     atom   19 type  1   force =    -2.15544639    1.96503576    0.98273759
     atom   20 type  2   force =     0.00429724    0.17718627   39.13219241
     atom   21 type  1   force =     0.41785649   -0.83222710    0.07672216
     atom   22 type  2   force =    -0.20475600    1.28286407  -37.93039971
     atom   23 type  2   force =     0.13981588   -0.79418277   38.60989618
     atom   24 type  1   force =     0.15130078   -0.59112844   -4.75102317
     atom   25 type  2   force =    -0.73463698   -0.22733369  -38.85715259
     atom   26 type  2   force =     0.24763465   -0.03244674   37.55453459
     atom   27 type  1   force =    -0.52219574    0.14637759    3.77193551
     atom   28 type  2   force =    -0.88579634   -0.01254104  -37.43857686
     atom   29 type  2   force =     0.10687479    0.64707465   37.72976734
     atom   30 type  1   force =    -1.25105585    0.00044493    2.76329512
     atom   31 type  2   force =    -1.71962583   -0.02224169  -36.64164774
     atom   32 type  2   force =     0.37668276   -0.00253657   39.08558471
     atom   33 type  1   force =    -0.98880741    0.33893304   -1.06624421
     atom   34 type  2   force =    -0.80161464    0.64255468  -38.75747280
     atom   35 type  2   force =     0.16084632   -0.66743139   38.22778283
     atom   36 type  3   force =     4.22173271    0.73585815  -47.99287060
     The core correction contribution to forces
     atom    1 type  1   force =     0.00000000    0.00000000    0.00000000
     atom    2 type  2   force =     0.00019078   -0.00007876    0.02080799
     atom    3 type  2   force =     0.00058930    0.00006717   -0.02089284
     atom    4 type  1   force =     0.00000000    0.00000000    0.00000000
     atom    5 type  2   force =    -0.00003175    0.00276158    0.02075263
     atom    6 type  2   force =     0.00048159   -0.00101032   -0.02091995
     atom    7 type  1   force =     0.00000000    0.00000000    0.00000000
     atom    8 type  2   force =    -0.00253520    0.00016010    0.00959998
     atom    9 type  2   force =    -0.00025996    0.00041813   -0.02141606
     atom   10 type  1   force =     0.00000000    0.00000000    0.00000000
     atom   11 type  2   force =    -0.00090480   -0.00024331    0.02055769
     atom   12 type  2   force =     0.00101473    0.00141265   -0.02089251
     atom   13 type  1   force =     0.00000000    0.00000000    0.00000000
     atom   14 type  2   force =    -0.00067082    0.00006014    0.02065197
     atom   15 type  2   force =     0.00073474    0.00038331   -0.02062705
     atom   16 type  1   force =     0.00000000    0.00000000    0.00000000
     atom   17 type  2   force =     0.00004149    0.00147715    0.02035471
     atom   18 type  2   force =     0.00002248   -0.00056936   -0.02110008
     atom   19 type  1   force =     0.00000000    0.00000000    0.00000000
     atom   20 type  2   force =     0.00033758    0.00100198   -0.02102228
     atom   21 type  1   force =     0.00000000    0.00000000    0.00000000
     atom   22 type  2   force =     0.00016569   -0.00051747    0.02074512
     atom   23 type  2   force =    -0.00050899    0.00120991   -0.02091202
     atom   24 type  1   force =     0.00000000    0.00000000    0.00000000
     atom   25 type  2   force =    -0.00012076   -0.00026121    0.02090030
     atom   26 type  2   force =    -0.00012325    0.00073633   -0.02086753
     atom   27 type  1   force =     0.00000000    0.00000000    0.00000000
     atom   28 type  2   force =     0.00099234    0.00127900    0.02083852
     atom   29 type  2   force =    -0.00100347   -0.00048438   -0.02040764
     atom   30 type  1   force =     0.00000000    0.00000000    0.00000000
     atom   31 type  2   force =     0.00069011   -0.00009396    0.02047741
     atom   32 type  2   force =    -0.00006105    0.00057067   -0.02099677
     atom   33 type  1   force =     0.00000000    0.00000000    0.00000000
     atom   34 type  2   force =     0.00040879    0.00171486    0.02104131
     atom   35 type  2   force =    -0.00013633    0.00104787   -0.02111927
     atom   36 type  3   force =    -0.01382257   -0.00514272    0.01563047
     The Hubbard contrib.    to forces
     atom    1 type  1   force =     0.00000000    0.00000000    0.00000000
     atom    2 type  2   force =     0.00000000    0.00000000    0.00000000
     atom    3 type  2   force =     0.00000000    0.00000000    0.00000000
     atom    4 type  1   force =     0.00000000    0.00000000    0.00000000
     atom    5 type  2   force =     0.00000000    0.00000000    0.00000000
     atom    6 type  2   force =     0.00000000    0.00000000    0.00000000
     atom    7 type  1   force =     0.00000000    0.00000000    0.00000000
     atom    8 type  2   force =     0.00000000    0.00000000    0.00000000
     atom    9 type  2   force =     0.00000000    0.00000000    0.00000000
     atom   10 type  1   force =     0.00000000    0.00000000    0.00000000
     atom   11 type  2   force =     0.00000000    0.00000000    0.00000000
     atom   12 type  2   force =     0.00000000    0.00000000    0.00000000
     atom   13 type  1   force =     0.00000000    0.00000000    0.00000000
     atom   14 type  2   force =     0.00000000    0.00000000    0.00000000
     atom   15 type  2   force =     0.00000000    0.00000000    0.00000000
     atom   16 type  1   force =     0.00000000    0.00000000    0.00000000
     atom   17 type  2   force =     0.00000000    0.00000000    0.00000000
     atom   18 type  2   force =     0.00000000    0.00000000    0.00000000
     atom   19 type  1   force =     0.00000000    0.00000000    0.00000000
     atom   20 type  2   force =     0.00000000    0.00000000    0.00000000
     atom   21 type  1   force =     0.00000000    0.00000000    0.00000000
     atom   22 type  2   force =     0.00000000    0.00000000    0.00000000
     atom   23 type  2   force =     0.00000000    0.00000000    0.00000000
     atom   24 type  1   force =     0.00000000    0.00000000    0.00000000
     atom   25 type  2   force =     0.00000000    0.00000000    0.00000000
     atom   26 type  2   force =     0.00000000    0.00000000    0.00000000
     atom   27 type  1   force =     0.00000000    0.00000000    0.00000000
     atom   28 type  2   force =     0.00000000    0.00000000    0.00000000
     atom   29 type  2   force =     0.00000000    0.00000000    0.00000000
     atom   30 type  1   force =     0.00000000    0.00000000    0.00000000
     atom   31 type  2   force =     0.00000000    0.00000000    0.00000000
     atom   32 type  2   force =     0.00000000    0.00000000    0.00000000
     atom   33 type  1   force =     0.00000000    0.00000000    0.00000000
     atom   34 type  2   force =     0.00000000    0.00000000    0.00000000
     atom   35 type  2   force =     0.00000000    0.00000000    0.00000000
     atom   36 type  3   force =     0.00000000    0.00000000    0.00000000
     The SCF correction term to forces
     atom    1 type  1   force =    -0.00000788   -0.00030569    0.00071217
     atom    2 type  2   force =     0.00004353   -0.00002260    0.00026250
     atom    3 type  2   force =     0.00002965   -0.00002884    0.00028237
     atom    4 type  1   force =     0.00006321   -0.00013923    0.00057886
     atom    5 type  2   force =    -0.00000986   -0.00009229    0.00023815
     atom    6 type  2   force =     0.00001254   -0.00005280    0.00025504
     atom    7 type  1   force =    -0.00019251    0.00014138    0.00050535
     atom    8 type  2   force =    -0.00003882    0.00000259    0.00023477
     atom    9 type  2   force =     0.00000153    0.00003933    0.00023455
     atom   10 type  1   force =     0.00008847    0.00017405    0.00068882
     atom   11 type  2   force =    -0.00005576    0.00011852    0.00022106
     atom   12 type  2   force =    -0.00000655    0.00004597    0.00026192
     atom   13 type  1   force =    -0.00012422   -0.00022771    0.00077677
     atom   14 type  2   force =    -0.00004881   -0.00003886    0.00026231
     atom   15 type  2   force =    -0.00002128   -0.00003576    0.00031718
     atom   16 type  1   force =    -0.00012088   -0.00004889    0.00065696
     atom   17 type  2   force =    -0.00006791   -0.00006804    0.00026075
     atom   18 type  2   force =    -0.00004517   -0.00006457    0.00028818
     atom   19 type  1   force =     0.00004529    0.00014440    0.00071067
     atom   20 type  2   force =     0.00001095    0.00006793    0.00031109
     atom   21 type  1   force =    -0.00010314    0.00010097    0.00074257
     atom   22 type  2   force =    -0.00003516    0.00008872    0.00027812
     atom   23 type  2   force =    -0.00000543    0.00007209    0.00028785
     atom   24 type  1   force =     0.00010534   -0.00021327    0.00073844
     atom   25 type  2   force =     0.00001467   -0.00001999    0.00026271
     atom   26 type  2   force =    -0.00000037   -0.00001886    0.00032422
     atom   27 type  1   force =     0.00002872   -0.00011959    0.00073390
     atom   28 type  2   force =     0.00008121   -0.00009833    0.00027629
     atom   29 type  2   force =     0.00003357   -0.00005099    0.00026588
     atom   30 type  1   force =     0.00014331    0.00017484    0.00062652
     atom   31 type  2   force =     0.00003520    0.00001127    0.00029303
     atom   32 type  2   force =    -0.00001108    0.00001863    0.00024700
     atom   33 type  1   force =     0.00003563    0.00018146    0.00077097
     atom   34 type  2   force =     0.00006954    0.00011105    0.00027336
     atom   35 type  2   force =     0.00001241    0.00007348    0.00026749
     atom   36 type  3   force =    -0.00006833   -0.00002070    0.00038245

     Total force =     0.651263     Total SCF correction =     0.002863

     BFGS Geometry Optimization
     Energy error            =      0.0E+00 Ry
     Gradient error          =      4.3E-01 Ry/Bohr

     number of scf cycles    =   1
     number of bfgs steps    =   0

     energy             new  =   -2246.3057662803 Ry

     new trust radius        =       0.4713278053 bohr
     new conv_thr            =       0.0000010000 Ry


ATOMIC_POSITIONS (angstrom)
Mo            6.5816111104        1.7747034028        2.8267709875
S             8.1689057562        0.8185855346        4.4350408598
S             8.1873225078        0.8161335187        1.2760535645
Mo            8.1020856883        4.4928145550        2.7074258677
S             6.4985670671        3.7156795075        4.3404340502
S             6.5521425015        3.5171308579        1.1203645844
Mo            6.4980608670        7.2191967382        2.6559850988
S             8.1579986957        6.3692025072        4.0266365812
S             8.0876374216        6.3074034898        1.0917924194
Mo            8.1525829566        9.9058563609        2.8294465402
S             6.4990902890        8.9401504451        4.3816497362
S             6.6167839425        9.0488945822        1.1443168078
Mo            3.4245406021        1.7494721120        2.7730372230
S             4.9794867856        0.8169459730        4.3574835346
S             5.0509350061        0.8479989527        1.2222448372
Mo            4.9792206073        4.5211499205        2.6364692426
S             3.4309309573        3.6716847014        4.2806657777
S             3.4357722234        3.5446811917        1.0646630448
Mo            3.4540268087        7.2077671290        2.6272834276
S             4.9838764615        6.3230083372        1.0379488242
Mo            5.0079226386        9.9059234962        2.7404148397
S             3.4699840942        8.9434017438        4.3238381718
S             3.4096782560        9.0672633595        1.1020980904
Mo            0.2922255473        1.7468946301        2.8379166003
S             1.8592613425        0.8024475029        4.4014200244
S             1.8545928439        0.8537594033        1.2082962098
Mo            1.8601036910        4.4955150148        2.6632213348
S             0.2713799953        3.6537639878        4.3365477168
S             0.2352097250        3.5262321013        1.1700475443
Mo            0.2798468986        7.2271549693        2.7171125539
S             1.9077363408        6.3131250416        4.2284677589
S             1.8571300664        6.3131275978        1.0489031670
Mo            1.8514729139        9.9352357031        2.7688499557
S             0.2980762363        9.0703254431        4.4081780606
S             0.2704294138        9.0471059730        1.1567449627
O             7.2609765304        6.0428217364        5.5785528191



     Writing config-only to output data dir ./MoS2-V-O.save/
     NEW-OLD atomic charge density approx. for the potential

     negative rho (up, down):  1.818E-04 0.000E+00

     total cpu time spent up to now is      116.7 secs

     Self-consistent Calculation

     iteration #  1     ecut=    80.00 Ry     beta= 0.70
     Davidson diagonalization with overlap
     ethr =  1.00E-06,  avg # of iterations = 18.0

     negative rho (up, down):  4.819E-03 0.000E+00

     total cpu time spent up to now is      131.6 secs

     total energy              =   -2246.26669543 Ry
     estimated scf accuracy    <       0.14693689 Ry

     iteration #  2     ecut=    80.00 Ry     beta= 0.70
     Davidson diagonalization with overlap
     ethr =  4.71E-05,  avg # of iterations =  7.0

     negative rho (up, down):  6.566E-03 0.000E+00

     total cpu time spent up to now is      152.4 secs

     total energy              =   -2246.28637357 Ry
     estimated scf accuracy    <       0.13562376 Ry

     iteration #  3     ecut=    80.00 Ry     beta= 0.70
     Davidson diagonalization with overlap
     ethr =  4.35E-05,  avg # of iterations =  3.0

     negative rho (up, down):  1.244E-02 0.000E+00

     total cpu time spent up to now is      165.1 secs

     total energy              =   -2246.29024768 Ry
     estimated scf accuracy    <       0.01576653 Ry

     iteration #  4     ecut=    80.00 Ry     beta= 0.70
     Davidson diagonalization with overlap
     ethr =  5.05E-06,  avg # of iterations =  5.0

     negative rho (up, down):  1.406E-02 0.000E+00

     total cpu time spent up to now is      180.3 secs

     total energy              =   -2246.29232498 Ry
     estimated scf accuracy    <       0.00960273 Ry

     iteration #  5     ecut=    80.00 Ry     beta= 0.70
     Davidson diagonalization with overlap
     ethr =  3.08E-06,  avg # of iterations =  2.0

     negative rho (up, down):  1.459E-02 0.000E+00

     total cpu time spent up to now is      190.9 secs

     total energy              =   -2246.29177306 Ry
     estimated scf accuracy    <       0.00420224 Ry

     iteration #  6     ecut=    80.00 Ry     beta= 0.70
     Davidson diagonalization with overlap
     ethr =  1.35E-06,  avg # of iterations =  5.0

     negative rho (up, down):  1.338E-02 0.000E+00

     total cpu time spent up to now is      204.5 secs

     total energy              =   -2246.29221051 Ry
     estimated scf accuracy    <       0.00038165 Ry

     iteration #  7     ecut=    80.00 Ry     beta= 0.70
     Davidson diagonalization with overlap
     ethr =  1.22E-07,  avg # of iterations =  5.0

     negative rho (up, down):  1.033E-02 0.000E+00

     total cpu time spent up to now is      215.6 secs

     total energy              =   -2246.29213351 Ry
     estimated scf accuracy    <       0.00025890 Ry

     iteration #  8     ecut=    80.00 Ry     beta= 0.70
     Davidson diagonalization with overlap
     ethr =  8.30E-08,  avg # of iterations =  4.0

     negative rho (up, down):  7.474E-03 0.000E+00

     total cpu time spent up to now is      227.0 secs

     total energy              =   -2246.29213286 Ry
     estimated scf accuracy    <       0.00005972 Ry

     iteration #  9     ecut=    80.00 Ry     beta= 0.70
     Davidson diagonalization with overlap
     ethr =  1.91E-08,  avg # of iterations =  4.0

     negative rho (up, down):  4.022E-03 0.000E+00

     total cpu time spent up to now is      234.7 secs

     total energy              =   -2246.29208919 Ry
     estimated scf accuracy    <       0.00003669 Ry

     iteration # 10     ecut=    80.00 Ry     beta= 0.70
     Davidson diagonalization with overlap
     ethr =  1.18E-08,  avg # of iterations =  3.0

     negative rho (up, down):  2.203E-03 0.000E+00

     total cpu time spent up to now is      243.9 secs

     total energy              =   -2246.29207775 Ry
     estimated scf accuracy    <       0.00000756 Ry

     iteration # 11     ecut=    80.00 Ry     beta= 0.70
     Davidson diagonalization with overlap
     ethr =  2.42E-09,  avg # of iterations =  5.0

     negative rho (up, down):  1.739E-03 0.000E+00

     total cpu time spent up to now is      253.6 secs

     total energy              =   -2246.29207494 Ry
     estimated scf accuracy    <       0.00000348 Ry

     iteration # 12     ecut=    80.00 Ry     beta= 0.70
     Davidson diagonalization with overlap
     ethr =  1.12E-09,  avg # of iterations =  2.0

     negative rho (up, down):  4.924E-04 0.000E+00

     total cpu time spent up to now is      265.3 secs

     total energy              =   -2246.29206714 Ry
     estimated scf accuracy    <       0.00000193 Ry

     iteration # 13     ecut=    80.00 Ry     beta= 0.70
     Davidson diagonalization with overlap
     ethr =  6.20E-10,  avg # of iterations =  2.0

     negative rho (up, down):  1.830E-04 0.000E+00

     total cpu time spent up to now is      269.5 secs

     End of self-consistent calculation

          k = 0.0000 0.0000 0.0000 (105382 PWs)   bands (ev):

   -63.0737 -63.0607 -63.0459 -63.0328 -63.0242 -63.0118 -62.9952 -62.9901
   -62.9779 -62.9680 -62.9616 -62.9345 -37.4389 -37.3862 -37.3524 -37.3447
   -37.3163 -37.3016 -37.2941 -37.2684 -37.2616 -37.2527 -37.2462 -37.2396
   -37.2204 -37.2159 -37.2121 -37.2066 -37.1957 -37.1899 -37.1758 -37.1685
   -37.1554 -37.1515 -37.1407 -37.1319 -37.1259 -37.1117 -37.1011 -37.0958
   -37.0845 -37.0812 -37.0605 -37.0476 -37.0310 -36.9714 -36.9501 -36.9105
   -19.1752 -16.1501 -15.4103 -15.3544 -15.1641 -15.0850 -14.9380 -14.7555
   -14.6538 -14.6427 -14.6013 -14.5566 -14.5093 -14.4810 -14.4362 -14.3529
   -14.3030 -14.2988 -14.2344 -14.2110 -14.0693 -14.0484 -14.0228 -13.9958
    -7.9858  -7.8815  -7.6850  -7.6373  -7.4521  -7.4221  -7.3878  -7.3754
    -7.2446  -7.0541  -7.0149  -6.9958  -6.8868  -6.8196  -6.7767  -6.6229
    -6.5810  -6.5441  -6.4530  -6.3544  -6.2116  -6.1440  -6.0716  -6.0418
    -5.9725  -5.9433  -5.9374  -5.8815  -5.8551  -5.8348  -5.7305  -5.7209
    -5.6938  -5.6664  -5.6223  -5.3718  -5.3358  -5.3165  -5.2400  -5.1474
    -5.1148  -5.1144  -5.0578  -4.8930  -4.7987  -4.6394  -4.5170  -4.4692
    -4.4548  -4.3923  -4.2540  -4.1984  -4.1295  -4.0187  -3.9780  -3.9543
    -3.9110  -3.8559  -3.8094  -3.7393  -3.7187  -3.6874  -3.6734  -3.6230
    -3.6063  -3.5586  -3.4437  -3.3041  -3.1552  -3.0726  -3.0454  -2.9943
    -2.9837  -2.9465  -2.9070  -2.8956  -2.8416  -2.7800  -2.5749  -2.4178
    -2.3292  -2.1817  -2.1385  -1.8314  -1.0360  -0.8336  -0.6525  -0.3961
    -0.3218  -0.2570  -0.1267  -0.0918  -0.0412   0.0309   0.0841   0.1115
     0.1583   0.1715   0.2112   0.3056   0.3173   0.3862   0.4238   0.4283
     0.5028   0.5467   0.5811   0.6087   0.6497   0.6777   0.7386   0.7817
     0.8295   0.9055   1.0103

     the Fermi energy is    -1.4337 ev

!    total energy              =   -2246.29206718 Ry
     estimated scf accuracy    <       0.00000037 Ry
     smearing contrib. (-TS)   =      -0.00000219 Ry
     internal energy E=F+TS    =   -2246.29206499 Ry

     The total energy is F=E-TS. E is the sum of the following terms:
     one-electron contribution =  -18433.71576619 Ry
     hartree contribution      =    9203.92050885 Ry
     xc contribution           =    -391.98701914 Ry
     ewald contribution        =    7385.36196723 Ry
     one-center paw contrib.   =      -9.87175574 Ry

     convergence has been achieved in  13 iterations

     negative rho (up, down):  1.830E-04 0.000E+00

     Forces acting on atoms (cartesian axes, Ry/au):

     atom    1 type  1   force =     0.00065881   -0.01325033   -0.00318009
     atom    2 type  2   force =    -0.00942845    0.01038155   -0.00095152
     atom    3 type  2   force =    -0.01022760    0.00704306   -0.00952513
     atom    4 type  1   force =     0.00947805   -0.03687234   -0.02995435
     atom    5 type  2   force =     0.00591639    0.00040959   -0.00769309
     atom    6 type  2   force =    -0.00207566    0.00578969   -0.00077769
     atom    7 type  1   force =    -0.01284370    0.00748243   -0.01776914
     atom    8 type  2   force =    -0.17542411   -0.06705376    0.23673275
     atom    9 type  2   force =     0.01606559    0.00591368   -0.00723043
     atom   10 type  1   force =    -0.00514081    0.00548329   -0.01012550
     atom   11 type  2   force =     0.00540223   -0.00597941   -0.00721837
     atom   12 type  2   force =    -0.00521745    0.00245601   -0.00160794
     atom   13 type  1   force =     0.00479693    0.00334035   -0.00251556
     atom   14 type  2   force =     0.00658148    0.00024491    0.00983491
     atom   15 type  2   force =    -0.00905950    0.00267716   -0.00727911
     atom   16 type  1   force =    -0.00146931    0.00844909    0.00691415
     atom   17 type  2   force =     0.00539335    0.00083068    0.00308038
     atom   18 type  2   force =    -0.00205227   -0.00397983    0.01043734
     atom   19 type  1   force =     0.00105931   -0.01111071   -0.00516212
     atom   20 type  2   force =     0.00111447   -0.00471733   -0.00271570
     atom   21 type  1   force =    -0.00397861    0.00505816   -0.00001767
     atom   22 type  2   force =     0.00012731   -0.00203650   -0.00271234
     atom   23 type  2   force =     0.00242902    0.00172562    0.00583050
     atom   24 type  1   force =    -0.00414670   -0.00024825   -0.00900400
     atom   25 type  2   force =     0.01181529    0.01376998   -0.00001938
     atom   26 type  2   force =    -0.00730652   -0.00182550   -0.00321337
     atom   27 type  1   force =    -0.00121718   -0.00180265    0.00487195
     atom   28 type  2   force =    -0.00243880   -0.00219512   -0.00243948
     atom   29 type  2   force =     0.00607170   -0.00137154   -0.00654795
     atom   30 type  1   force =     0.06526472    0.03871826   -0.03869839
     atom   31 type  2   force =     0.01270608   -0.00238151    0.01544310
     atom   32 type  2   force =    -0.00707648    0.00380619    0.00703280
     atom   33 type  1   force =     0.00358136   -0.00260629   -0.00144084
     atom   34 type  2   force =     0.00068334   -0.02433854   -0.01018750
     atom   35 type  2   force =    -0.00815631    0.00957221    0.00806932
     atom   36 type  3   force =     0.10811403    0.04861771   -0.12026056
     The non-local contrib.  to forces
     atom    1 type  1   force =    -0.00450026    0.03891533   -0.00815775
     atom    2 type  2   force =    -0.00475068   -0.00421485   -0.27348228
     atom    3 type  2   force =    -0.01020596   -0.00492259    0.26591264
     atom    4 type  1   force =    -0.00185594    0.01524471    0.01874867
     atom    5 type  2   force =     0.00377009   -0.02693675   -0.26234356
     atom    6 type  2   force =    -0.00327430    0.00887117    0.26576576
     atom    7 type  1   force =    -0.00333041   -0.00914819   -0.01579886
     atom    8 type  2   force =    -0.17562157   -0.07789476    0.40340888
     atom    9 type  2   force =     0.00920144   -0.00738309    0.27838433
     atom   10 type  1   force =    -0.00295513    0.00801778   -0.00456722
     atom   11 type  2   force =     0.01355297    0.00802415   -0.26774765
     atom   12 type  2   force =    -0.01097225   -0.01902442    0.26016727
     atom   13 type  1   force =     0.00057734    0.02255145   -0.00646703
     atom   14 type  2   force =     0.01089328   -0.00994218   -0.26695385
     atom   15 type  2   force =    -0.01046766   -0.00614808    0.26213407
     atom   16 type  1   force =     0.00197743    0.02094287   -0.03339118
     atom   17 type  2   force =     0.00194525   -0.02716682   -0.25484230
     atom   18 type  2   force =    -0.00189646    0.00047729    0.27453908
     atom   19 type  1   force =     0.03509133    0.00314236   -0.01338433
     atom   20 type  2   force =     0.00024318   -0.02097712    0.26064647
     atom   21 type  1   force =     0.00150681    0.02408951    0.00622978
     atom   22 type  2   force =    -0.00431920    0.00278738   -0.26528206
     atom   23 type  2   force =     0.00620825   -0.01766584    0.26587485
     atom   24 type  1   force =     0.00440229    0.01292943   -0.00935705
     atom   25 type  2   force =     0.00603604   -0.00116027   -0.27044120
     atom   26 type  2   force =    -0.00014266   -0.01316852    0.26326610
     atom   27 type  1   force =     0.00085293    0.00700310    0.00835571
     atom   28 type  2   force =    -0.01164914   -0.01996171   -0.28190963
     atom   29 type  2   force =     0.00981412    0.00103755    0.26064514
     atom   30 type  1   force =    -0.00585904   -0.00677524    0.00495202
     atom   31 type  2   force =    -0.00615078    0.00180310   -0.25890503
     atom   32 type  2   force =    -0.00005094   -0.01151935    0.27094303
     atom   33 type  1   force =     0.00349915    0.01667972    0.00478497
     atom   34 type  2   force =     0.00001767   -0.03209051   -0.27840225
     atom   35 type  2   force =    -0.00107617   -0.00943409    0.26756732
     atom   36 type  3   force =     0.80647983    0.26674004   -1.18997512
     The ionic contribution  to forces
     atom    1 type  1   force =    -0.06843238   -0.18420297    4.56985472
     atom    2 type  2   force =    -0.36907175    0.19403961   39.15264153
     atom    3 type  2   force =    -0.10862082    0.01397848  -36.72159898
     atom    4 type  1   force =     0.54161679   -2.12977653   -3.38378940
     atom    5 type  2   force =    -1.55158794   -0.45867108   37.50186809
     atom    6 type  2   force =     0.16243567   -0.84740606  -38.72537050
     atom    7 type  1   force =    -4.48879399   -1.01308738   -2.14081317
     atom    8 type  2   force =     1.36245449    0.83904939   30.36323224
     atom    9 type  2   force =     0.52569557   -0.01502607  -39.30210490
     atom   10 type  1   force =    -0.62047845    0.92565497    3.97188779
     atom   11 type  2   force =    -0.98751446   -0.20068626   38.49116561
     atom   12 type  2   force =     0.26689138    0.99549512  -38.61761175
     atom   13 type  1   force =     0.29175178    0.60022105    1.87703442
     atom   14 type  2   force =    -0.17930886   -0.06623285   38.40776293
     atom   15 type  2   force =     0.11086193   -0.01346913  -37.34660009
     atom   16 type  1   force =    -1.07555151    2.78358957   -1.49118217
     atom   17 type  2   force =     0.52336690    1.02402709   37.64379432
     atom   18 type  2   force =    -0.17554630   -0.75486504  -39.06181871
     atom   19 type  1   force =     2.39101942   -1.85945487   -1.01014087
     atom   20 type  2   force =    -0.02836803   -0.17706303  -39.37458457
     atom   21 type  1   force =    -0.39128624    0.66484783    0.04501527
     atom   22 type  2   force =     0.28803876   -1.30811263   38.17705002
     atom   23 type  2   force =    -0.12237793    0.75027926  -38.80722432
     atom   24 type  1   force =     0.00258669    0.43226793    4.53037525
     atom   25 type  2   force =     0.60883350    0.19472257   39.07549691
     atom   26 type  2   force =    -0.20963599    0.02949695  -37.74398243
     atom   27 type  1   force =     0.58122565   -0.26136713   -3.47170663
     atom   28 type  2   force =     0.76262345    0.06145367   37.78640105
     atom   29 type  2   force =    -0.05883703   -0.64265325  -38.02722201
     atom   30 type  1   force =     2.13912685    0.41424207   -2.28322795
     atom   31 type  2   force =     1.76434491   -0.05479455   37.11184871
     atom   32 type  2   force =    -0.38478016   -0.00510607  -39.32301722
     atom   33 type  1   force =     0.84377270   -0.03042394    1.15786693
     atom   34 type  2   force =     0.67112256   -0.36825573   39.06302188
     atom   35 type  2   force =    -0.10503311    0.69099762  -38.43050399
     atom   36 type  3   force =    -2.91254405   -0.22370863   46.33618201
     The local contribution  to forces
     atom    1 type  1   force =     0.07361758    0.13231987   -4.56465762
     atom    2 type  2   force =     0.36429347   -0.17959957  -38.90091563
     atom    3 type  2   force =     0.10817883   -0.00223089   36.46674291
     atom    4 type  1   force =    -0.53034956    2.07781252    3.33515299
     atom    5 type  2   force =     1.55399711    0.48383732  -37.26836513
     atom    6 type  2   force =    -0.16150567    0.84547991   38.47957394
     atom    7 type  1   force =     4.47932774    1.02968187    2.13890925
     atom    8 type  2   force =    -1.37193208   -0.83268554  -30.51691663
     atom    9 type  2   force =    -0.51875433    0.02788791   39.03752494
     atom   10 type  1   force =     0.61829476   -0.92850529   -3.97713449
     atom   11 type  2   force =     0.98008891    0.18751683  -38.25174124
     atom   12 type  2   force =    -0.26209606   -0.97566323   38.37647113
     atom   13 type  1   force =    -0.28748957   -0.61930417   -1.87294015
     atom   14 type  2   force =     0.17566482    0.07634856  -38.15163645
     atom   15 type  2   force =    -0.11006256    0.02187551   37.09757592
     atom   16 type  1   force =     1.07231082   -2.79587160    1.53166630
     atom   17 type  2   force =    -0.51995373   -0.99731963  -37.40623966
     atom   18 type  2   force =     0.17542249    0.75115392   38.81860561
     atom   19 type  1   force =    -2.42507802    1.84511214    1.01854363
     atom   20 type  2   force =     0.02915006    0.19254441   39.13210621
     atom   21 type  1   force =     0.38595765   -0.68424049   -0.05102179
     atom   22 type  2   force =    -0.28373604    1.30364148  -37.93526284
     atom   23 type  2   force =     0.11906611   -0.73232189   38.56781300
     atom   24 type  1   force =    -0.01122527   -0.44530723   -4.52981370
     atom   25 type  2   force =    -0.60311739   -0.17971441  -38.82601112
     atom   26 type  2   force =     0.20265917   -0.01888213   37.49812168
     atom   27 type  1   force =    -0.58343827    0.25286653    3.46842241
     atom   28 type  2   force =    -0.75398467   -0.04506423  -37.52821073
     atom   29 type  2   force =     0.05573321    0.64088552   37.78033656
     atom   30 type  1   force =    -2.06798053   -0.36882927    2.23976007
     atom   31 type  2   force =    -1.74612154    0.05070132  -36.85821480
     atom   32 type  2   force =     0.37805596    0.01980039   39.07990265
     atom   33 type  1   force =    -0.84383879    0.01084543   -1.16390734
     atom   34 type  2   force =    -0.67072973    0.37464031  -38.81612599
     atom   35 type  2   force =     0.09803646   -0.67294295   38.19182880
     atom   36 type  3   force =     2.22326272    0.00859549  -45.27932966
     The core correction contribution to forces
     atom    1 type  1   force =     0.00000000    0.00000000    0.00000000
     atom    2 type  2   force =     0.00008691    0.00011897    0.02100652
     atom    3 type  2   force =     0.00042197    0.00020080   -0.02080758
     atom    4 type  1   force =     0.00000000    0.00000000    0.00000000
     atom    5 type  2   force =    -0.00024932    0.00227139    0.02138807
     atom    6 type  2   force =     0.00029847   -0.00106539   -0.02089129
     atom    7 type  1   force =     0.00000000    0.00000000    0.00000000
     atom    8 type  2   force =     0.00962701    0.00447308   -0.01282483
     atom    9 type  2   force =    -0.00009107    0.00043041   -0.02115341
     atom   10 type  1   force =     0.00000000    0.00000000    0.00000000
     atom   11 type  2   force =    -0.00068867   -0.00091661    0.02133807
     atom   12 type  2   force =     0.00097720    0.00154981   -0.02080170
     atom   13 type  1   force =     0.00000000    0.00000000    0.00000000
     atom   14 type  2   force =    -0.00060294    0.00005719    0.02086392
     atom   15 type  2   force =     0.00064313    0.00042843   -0.02063208
     atom   16 type  1   force =     0.00000000    0.00000000    0.00000000
     atom   17 type  2   force =     0.00006136    0.00142331    0.02055649
     atom   18 type  2   force =    -0.00001264   -0.00066337   -0.02111790
     atom   19 type  1   force =     0.00000000    0.00000000    0.00000000
     atom   20 type  2   force =     0.00011135    0.00080943   -0.02101919
     atom   21 type  1   force =     0.00000000    0.00000000    0.00000000
     atom   22 type  2   force =     0.00015611   -0.00050511    0.02095284
     atom   23 type  2   force =    -0.00046080    0.00132705   -0.02084507
     atom   24 type  1   force =     0.00000000    0.00000000    0.00000000
     atom   25 type  2   force =     0.00001328   -0.00010727    0.02112475
     atom   26 type  2   force =    -0.00022076    0.00070192   -0.02087007
     atom   27 type  1   force =     0.00000000    0.00000000    0.00000000
     atom   28 type  2   force =     0.00053779    0.00149398    0.02147721
     atom   29 type  2   force =    -0.00068916   -0.00054712   -0.02049084
     atom   30 type  1   force =     0.00000000    0.00000000    0.00000000
     atom   31 type  2   force =     0.00062455   -0.00006439    0.02088901
     atom   32 type  2   force =    -0.00031190    0.00064766   -0.02093172
     atom   33 type  1   force =     0.00000000    0.00000000    0.00000000
     atom   34 type  2   force =     0.00023565    0.00128334    0.02150917
     atom   35 type  2   force =    -0.00011440    0.00088906   -0.02099965
     atom   36 type  3   force =    -0.00924869   -0.00308186    0.01326691
     The Hubbard contrib.    to forces
     atom    1 type  1   force =     0.00000000    0.00000000    0.00000000
     atom    2 type  2   force =     0.00000000    0.00000000    0.00000000
     atom    3 type  2   force =     0.00000000    0.00000000    0.00000000
     atom    4 type  1   force =     0.00000000    0.00000000    0.00000000
     atom    5 type  2   force =     0.00000000    0.00000000    0.00000000
     atom    6 type  2   force =     0.00000000    0.00000000    0.00000000
     atom    7 type  1   force =     0.00000000    0.00000000    0.00000000
     atom    8 type  2   force =     0.00000000    0.00000000    0.00000000
     atom    9 type  2   force =     0.00000000    0.00000000    0.00000000
     atom   10 type  1   force =     0.00000000    0.00000000    0.00000000
     atom   11 type  2   force =     0.00000000    0.00000000    0.00000000
     atom   12 type  2   force =     0.00000000    0.00000000    0.00000000
     atom   13 type  1   force =     0.00000000    0.00000000    0.00000000
     atom   14 type  2   force =     0.00000000    0.00000000    0.00000000
     atom   15 type  2   force =     0.00000000    0.00000000    0.00000000
     atom   16 type  1   force =     0.00000000    0.00000000    0.00000000
     atom   17 type  2   force =     0.00000000    0.00000000    0.00000000
     atom   18 type  2   force =     0.00000000    0.00000000    0.00000000
     atom   19 type  1   force =     0.00000000    0.00000000    0.00000000
     atom   20 type  2   force =     0.00000000    0.00000000    0.00000000
     atom   21 type  1   force =     0.00000000    0.00000000    0.00000000
     atom   22 type  2   force =     0.00000000    0.00000000    0.00000000
     atom   23 type  2   force =     0.00000000    0.00000000    0.00000000
     atom   24 type  1   force =     0.00000000    0.00000000    0.00000000
     atom   25 type  2   force =     0.00000000    0.00000000    0.00000000
     atom   26 type  2   force =     0.00000000    0.00000000    0.00000000
     atom   27 type  1   force =     0.00000000    0.00000000    0.00000000
     atom   28 type  2   force =     0.00000000    0.00000000    0.00000000
     atom   29 type  2   force =     0.00000000    0.00000000    0.00000000
     atom   30 type  1   force =     0.00000000    0.00000000    0.00000000
     atom   31 type  2   force =     0.00000000    0.00000000    0.00000000
     atom   32 type  2   force =     0.00000000    0.00000000    0.00000000
     atom   33 type  1   force =     0.00000000    0.00000000    0.00000000
     atom   34 type  2   force =     0.00000000    0.00000000    0.00000000
     atom   35 type  2   force =     0.00000000    0.00000000    0.00000000
     atom   36 type  3   force =     0.00000000    0.00000000    0.00000000
     The SCF correction term to forces
     atom    1 type  1   force =    -0.00002786   -0.00028271   -0.00023060
     atom    2 type  2   force =     0.00001185    0.00003725   -0.00021283
     atom    3 type  2   force =    -0.00000335    0.00001710    0.00021472
     atom    4 type  1   force =     0.00006501   -0.00015319   -0.00007778
     atom    5 type  2   force =    -0.00001529   -0.00009144   -0.00025172
     atom    6 type  2   force =    -0.00003158   -0.00009009    0.00013325
     atom    7 type  1   force =    -0.00004878    0.00003598   -0.00007753
     atom    8 type  2   force =     0.00004631    0.00000393   -0.00017806
     atom    9 type  2   force =     0.00001224    0.00000437    0.00010746
     atom   10 type  1   force =    -0.00000373    0.00031568   -0.00032274
     atom   11 type  2   force =    -0.00003825    0.00008233   -0.00024431
     atom   12 type  2   force =    -0.00001946    0.00009858    0.00015594
     atom   13 type  1   force =    -0.00004435   -0.00012814   -0.00015396
     atom   14 type  2   force =    -0.00006657    0.00001405   -0.00021280
     atom   15 type  2   force =    -0.00003607   -0.00000971    0.00023191
     atom   16 type  1   force =    -0.00020780   -0.00021191   -0.00018996
     atom   17 type  2   force =    -0.00002816   -0.00013342   -0.00019962
     atom   18 type  2   force =    -0.00002111   -0.00008278    0.00021810
     atom   19 type  1   force =     0.00002484    0.00008952   -0.00019171
     atom   20 type  2   force =    -0.00002382   -0.00003117    0.00012422
     atom   21 type  1   force =    -0.00015857    0.00036117   -0.00025210
     atom   22 type  2   force =    -0.00001406    0.00015223   -0.00018146
     atom   23 type  2   force =    -0.00000833    0.00010690    0.00020088
     atom   24 type  1   force =     0.00008786   -0.00013852   -0.00021965
     atom   25 type  2   force =     0.00004812    0.00002922   -0.00019987
     atom   26 type  2   force =     0.00003198    0.00002613    0.00024020
     atom   27 type  1   force =     0.00014077   -0.00030531   -0.00021070
     atom   28 type  2   force =     0.00003204   -0.00011698   -0.00020853
     atom   29 type  2   force =     0.00004882   -0.00009440    0.00017204
     atom   30 type  1   force =    -0.00002430    0.00008054   -0.00019370
     atom   31 type  2   force =     0.00000721   -0.00002714   -0.00018595
     atom   32 type  2   force =     0.00000882   -0.00001659    0.00012490
     atom   33 type  1   force =     0.00014655    0.00029234   -0.00019657
     atom   34 type  2   force =     0.00003544    0.00008389   -0.00020147
     atom   35 type  2   force =     0.00002918    0.00006242    0.00016568
     atom   36 type  3   force =     0.00016248    0.00007251   -0.00041586

     Total force =     0.366549     Total SCF correction =     0.001567
     Energy error            =      1.4E-02 Ry
     Gradient error          =      2.4E-01 Ry/Bohr

     number of scf cycles    =   2
     number of bfgs steps    =   1

     energy             old  =   -2246.3057662803 Ry
     energy             new  =   -2246.2920671839 Ry

     CASE: energy            _new > energy            _old

     new trust radius        =       0.2282905099 bohr
     new conv_thr            =       0.0000010000 Ry


ATOMIC_POSITIONS (angstrom)
Mo            6.5779692714        1.7814597951        2.8251580764
S             8.1729296258        0.8140058383        4.4347817450
S             8.1903702613        0.8136111055        1.2769971215
Mo            8.0985158222        4.4939708294        2.7127847100
S             6.4992591590        3.7191508119        4.3436447575
S             6.5527650367        3.5143498346        1.1208367304
Mo            6.4938948922        7.2188051303        2.6641835197
S             8.1186700385        6.3561404669        4.1379254111
S             8.0841724111        6.3060106463        1.0877036622
Mo            8.1567267181        9.9039608810        2.8366734030
S             6.4970675763        8.9415820630        4.3824004092
S             6.6173837689        9.0488000290        1.1420430735
Mo            3.4230550635        1.7481746173        2.7748079128
S             4.9772585364        0.8169435166        4.3538995818
S             5.0544923033        0.8471033598        1.2245206952
Mo            4.9794970306        4.5170392500        2.6346208174
S             3.4293379810        3.6716408636        4.2801727200
S             3.4368800108        3.5465104415        1.0614086293
Mo            3.4539416920        7.2121797048        2.6290332312
S             4.9835452796        6.3250316972        1.0375904037
Mo            5.0101611938        9.9036941383        2.7419546147
S             3.4704863431        8.9435819743        4.3247421679
S             3.4090341702        9.0660911072        1.0989888654
Mo            0.2942184798        1.7472117001        2.8438609989
S             1.8547241251        0.7974181724        4.3997645056
S             1.8577935436        0.8541030876        1.2088658129
Mo            1.8604066928        4.4955932620        2.6616620510
S             0.2718099670        3.6540913383        4.3370821212
S             0.2331582269        3.5267565756        1.1710635378
Mo            0.2753635053        7.2217361322        2.7091633230
S             1.9049012828        6.3129568352        4.2253617071
S             1.8597640517        6.3116921558        1.0466632699
Mo            1.8477983061        9.9377641373        2.7709621856
S             0.2969607248        9.0804693875        4.4111127988
S             0.2736996201        9.0452598347        1.1534736236
O             7.3095920781        6.0576668011        5.4604146256



     Writing config-only to output data dir ./MoS2-V-O.save/
     NEW-OLD atomic charge density approx. for the potential

     negative rho (up, down):  1.499E-04 0.000E+00

     total cpu time spent up to now is      277.4 secs

     Self-consistent Calculation

     iteration #  1     ecut=    80.00 Ry     beta= 0.70
     Davidson diagonalization with overlap
     ethr =  1.00E-06,  avg # of iterations = 14.0

     negative rho (up, down):  3.490E-05 0.000E+00

     total cpu time spent up to now is      292.6 secs

     total energy              =   -2246.35703492 Ry
     estimated scf accuracy    <       0.03707926 Ry

     iteration #  2     ecut=    80.00 Ry     beta= 0.70
     Davidson diagonalization with overlap
     ethr =  1.19E-05,  avg # of iterations =  5.0

     negative rho (up, down):  3.753E-05 0.000E+00

     total cpu time spent up to now is      307.4 secs

     total energy              =   -2246.36571075 Ry
     estimated scf accuracy    <       0.03003885 Ry

     iteration #  3     ecut=    80.00 Ry     beta= 0.70
     Davidson diagonalization with overlap
     ethr =  9.63E-06,  avg # of iterations =  2.0

     negative rho (up, down):  2.641E-05 0.000E+00

     total cpu time spent up to now is      321.2 secs

     total energy              =   -2246.36591984 Ry
     estimated scf accuracy    <       0.00576622 Ry

     iteration #  4     ecut=    80.00 Ry     beta= 0.70
     Davidson diagonalization with overlap
     ethr =  1.85E-06,  avg # of iterations =  5.0

     negative rho (up, down):  2.670E-05 0.000E+00

     total cpu time spent up to now is      334.4 secs

     total energy              =   -2246.36667234 Ry
     estimated scf accuracy    <       0.00093482 Ry

     iteration #  5     ecut=    80.00 Ry     beta= 0.70
     Davidson diagonalization with overlap
     ethr =  3.00E-07,  avg # of iterations =  3.0

     negative rho (up, down):  2.455E-05 0.000E+00

     total cpu time spent up to now is      346.0 secs

     total energy              =   -2246.36666346 Ry
     estimated scf accuracy    <       0.00026715 Ry

     iteration #  6     ecut=    80.00 Ry     beta= 0.70
     Davidson diagonalization with overlap
     ethr =  8.56E-08,  avg # of iterations =  4.0

     negative rho (up, down):  1.683E-05 0.000E+00

     total cpu time spent up to now is      357.7 secs

     total energy              =   -2246.36670324 Ry
     estimated scf accuracy    <       0.00023661 Ry

     iteration #  7     ecut=    80.00 Ry     beta= 0.70
     Davidson diagonalization with overlap
     ethr =  7.58E-08,  avg # of iterations =  2.0

     negative rho (up, down):  6.180E-06 0.000E+00

     total cpu time spent up to now is      367.9 secs

     total energy              =   -2246.36671843 Ry
     estimated scf accuracy    <       0.00004965 Ry

     iteration #  8     ecut=    80.00 Ry     beta= 0.70
     Davidson diagonalization with overlap
     ethr =  1.59E-08,  avg # of iterations =  5.0

     negative rho (up, down):  2.906E-06 0.000E+00

     total cpu time spent up to now is      378.5 secs

     total energy              =   -2246.36673789 Ry
     estimated scf accuracy    <       0.00001541 Ry

     iteration #  9     ecut=    80.00 Ry     beta= 0.70
     Davidson diagonalization with overlap
     ethr =  4.94E-09,  avg # of iterations =  2.0

     negative rho (up, down):  1.062E-05 0.000E+00

     total cpu time spent up to now is      388.2 secs

     total energy              =   -2246.36674678 Ry
     estimated scf accuracy    <       0.00000388 Ry

     iteration # 10     ecut=    80.00 Ry     beta= 0.70
     Davidson diagonalization with overlap
     ethr =  1.24E-09,  avg # of iterations =  4.0

     negative rho (up, down):  1.895E-04 0.000E+00

     total cpu time spent up to now is      392.5 secs

     End of self-consistent calculation

          k = 0.0000 0.0000 0.0000 (105382 PWs)   bands (ev):

   -63.0295 -63.0095 -62.9911 -62.9797 -62.9721 -62.9578 -62.9408 -62.9298
   -62.9214 -62.8954 -62.8911 -62.8665 -37.3640 -37.3112 -37.2924 -37.2794
   -37.2597 -37.2445 -37.2364 -37.2067 -37.1966 -37.1952 -37.1883 -37.1813
   -37.1679 -37.1638 -37.1604 -37.1524 -37.1395 -37.1367 -37.1249 -37.1091
   -37.0913 -37.0882 -37.0648 -37.0585 -37.0556 -37.0479 -37.0419 -37.0354
   -37.0333 -37.0253 -37.0000 -36.9828 -36.9680 -36.9219 -36.8848 -36.8408
   -21.5669 -16.0770 -15.3054 -15.2580 -15.0809 -15.0196 -14.8761 -14.6343
   -14.5966 -14.5482 -14.5129 -14.4984 -14.4574 -14.4025 -14.3744 -14.2659
   -14.2492 -14.2275 -14.1680 -14.1078 -13.9937 -13.9722 -13.9645 -13.9189
    -8.0232  -7.9157  -7.7309  -7.6100  -7.4382  -7.3830  -7.3262  -7.3171
    -7.2293  -7.0613  -7.0293  -6.9456  -6.8726  -6.7740  -6.7335  -6.6718
    -6.5554  -6.5109  -6.4014  -6.3597  -6.1712  -6.1555  -6.0281  -5.9994
    -5.9160  -5.8993  -5.8832  -5.8460  -5.8059  -5.7728  -5.6915  -5.6721
    -5.6576  -5.6167  -5.5871  -5.3578  -5.3157  -5.2750  -5.1813  -5.1046
    -5.0747  -5.0547  -5.0313  -4.8786  -4.7970  -4.6502  -4.4517  -4.4181
    -4.3955  -4.3571  -4.2174  -4.1786  -4.1326  -4.0738  -3.9549  -3.9105
    -3.8714  -3.8182  -3.7557  -3.7139  -3.6678  -3.6367  -3.6256  -3.5705
    -3.5594  -3.5125  -3.4086  -3.2727  -3.2585  -3.1572  -3.0028  -2.9596
    -2.9289  -2.8899  -2.8627  -2.8395  -2.7994  -2.7236  -2.6297  -2.5722
    -2.3510  -2.1308  -2.1009  -1.8492  -0.9733  -0.7843  -0.4884  -0.3259
    -0.2499  -0.1863  -0.0772  -0.0333   0.0230   0.0818   0.1291   0.1571
     0.1955   0.2224   0.2911   0.3765   0.3861   0.4453   0.4694   0.4887
     0.5648   0.6109   0.6431   0.6675   0.6936   0.7365   0.7944   0.8358
     0.8752   0.9677   1.1036

     the Fermi energy is    -1.4112 ev

!    total energy              =   -2246.36675190 Ry
     estimated scf accuracy    <       0.00000091 Ry
     smearing contrib. (-TS)   =      -0.00000036 Ry
     internal energy E=F+TS    =   -2246.36675154 Ry

     The total energy is F=E-TS. E is the sum of the following terms:
     one-electron contribution =  -18442.18334119 Ry
     hartree contribution      =    9208.64228279 Ry
     xc contribution           =    -392.08881058 Ry
     ewald contribution        =    7389.12565242 Ry
     one-center paw contrib.   =      -9.86253499 Ry

     convergence has been achieved in  10 iterations

     negative rho (up, down):  1.895E-04 0.000E+00

     Forces acting on atoms (cartesian axes, Ry/au):

     atom    1 type  1   force =     0.00718317   -0.01913644    0.00185388
     atom    2 type  2   force =    -0.01217321    0.01360673   -0.00004761
     atom    3 type  2   force =    -0.01074404    0.00819323   -0.00640808
     atom    4 type  1   force =     0.01141895   -0.01849436   -0.02402675
     atom    5 type  2   force =     0.00161142   -0.00649796   -0.01068897
     atom    6 type  2   force =    -0.00197594    0.00800197   -0.00128314
     atom    7 type  1   force =     0.00249485    0.00405700   -0.02345632
     atom    8 type  2   force =    -0.12279990   -0.05025729    0.08115203
     atom    9 type  2   force =     0.01437830    0.00554581    0.00523990
     atom   10 type  1   force =    -0.01017393    0.00610990   -0.01859742
     atom   11 type  2   force =     0.00619408   -0.00535648   -0.00530435
     atom   12 type  2   force =    -0.00371433    0.00105091    0.00368374
     atom   13 type  1   force =     0.00512150    0.00404349   -0.00463500
     atom   14 type  2   force =     0.00744220    0.00008784    0.01144476
     atom   15 type  2   force =    -0.01110686    0.00301277   -0.00785563
     atom   16 type  1   force =    -0.00135512    0.01188673    0.00700704
     atom   17 type  2   force =     0.00566695    0.00049589    0.00244130
     atom   18 type  2   force =    -0.00308281   -0.00544583    0.01124806
     atom   19 type  1   force =     0.00045602   -0.01361526   -0.00600044
     atom   20 type  2   force =     0.00120768   -0.00594153   -0.00055479
     atom   21 type  1   force =    -0.00614019    0.00664982   -0.00289736
     atom   22 type  2   force =    -0.00086033   -0.00141634   -0.00300414
     atom   23 type  2   force =     0.00237258    0.00302158    0.00870985
     atom   24 type  1   force =    -0.00579620   -0.00063357   -0.01554693
     atom   25 type  2   force =     0.01425596    0.01610113    0.00311425
     atom   26 type  2   force =    -0.00960331   -0.00153368   -0.00270221
     atom   27 type  1   force =    -0.00122478   -0.00099004    0.00536971
     atom   28 type  2   force =    -0.00188979   -0.00192102   -0.00241835
     atom   29 type  2   force =     0.00664221   -0.00164291   -0.00501874
     atom   30 type  1   force =     0.03452546    0.02669501    0.00009190
     atom   31 type  2   force =     0.01132499   -0.00088530    0.01349177
     atom   32 type  2   force =    -0.00846661    0.00466784    0.00766660
     atom   33 type  1   force =     0.00871237   -0.00615204   -0.00475966
     atom   34 type  2   force =     0.00236598   -0.03120365   -0.01072684
     atom   35 type  2   force =    -0.01008466    0.00792823    0.01025876
     atom   36 type  3   force =     0.07781735    0.03996783   -0.01684084
     The non-local contrib.  to forces
     atom    1 type  1   force =    -0.00597072    0.03884549   -0.00941549
     atom    2 type  2   force =    -0.00728151   -0.00130800   -0.27242882
     atom    3 type  2   force =    -0.01186802   -0.00380343    0.26823408
     atom    4 type  1   force =    -0.00019286    0.02371504    0.02378835
     atom    5 type  2   force =    -0.00209141   -0.03875929   -0.25823307
     atom    6 type  2   force =    -0.00356249    0.00937663    0.26542299
     atom    7 type  1   force =     0.00531662   -0.01265887   -0.00761100
[...]
     atom   28 type  2   force =     0.00013380   -0.01149344   -0.27880681
     atom   29 type  2   force =    -0.00326605   -0.00647757    0.26664013
     atom   30 type  1   force =    -0.00419404    0.00377548    0.01892090
     atom   31 type  2   force =    -0.00723554   -0.00061207   -0.26867256
     atom   32 type  2   force =     0.00862283   -0.01337455    0.26316310
     atom   33 type  1   force =     0.00019138    0.00740992    0.00350675
     atom   34 type  2   force =     0.00223763   -0.00831753   -0.27660486
     atom   35 type  2   force =    -0.00042220   -0.01437831    0.26358519
     atom   36 type  3   force =     0.08714918    0.05478402   -2.30695253
     The ionic contribution  to forces
     atom    1 type  1   force =    -0.30300481    0.24147736    1.26275098
     atom    2 type  2   force =    -0.20614094    0.06360749   38.54189882
     atom    3 type  2   force =     0.13825980   -0.04602083  -37.79257046
     atom    4 type  1   force =    -0.06526259   -0.89006584   -3.97334092
     atom    5 type  2   force =    -1.46470899    0.07801073   37.51936017
     atom    6 type  2   force =     0.11617715   -0.49496387  -38.85255144
     atom    7 type  1   force =    -3.31675504   -1.48726958   -2.61325894
     atom    8 type  2   force =    -0.97956556    0.25488121   27.91138441
     atom    9 type  2   force =     0.42351443    0.00252715  -38.60966682
     atom   10 type  1   force =    -0.38137816    0.62136570    1.60277347
     atom   11 type  2   force =    -1.06260371   -0.31822278   37.85284523
     atom   12 type  2   force =     0.23581901    0.59024730  -38.87144987
     atom   13 type  1   force =     0.10017168    0.54350482    2.00811910
     atom   14 type  2   force =    -0.08602379   -0.04570094   38.39963027
     atom   15 type  2   force =    -0.07169710   -0.06828410  -38.02168379
     atom   16 type  1   force =    -0.53081544    2.71946626    0.31879454
     atom   17 type  2   force =     0.82472463    0.83251963   38.07541957
     atom   18 type  2   force =    -0.23029428   -0.50766416  -38.38373922
     atom   19 type  1   force =     2.59110775   -1.57753720    1.21675140
     atom   20 type  2   force =    -0.11731454   -0.11080567  -39.64460618
     atom   21 type  1   force =    -0.35839179    0.41541583   -0.27585268
     atom   22 type  2   force =     0.43927494   -1.08967542   38.26968683
     atom   23 type  2   force =    -0.30072360    0.47042244  -38.35871361
     atom   24 type  1   force =     0.15755049   -0.08533626    2.13224502
     atom   25 type  2   force =     0.31540803    0.08685374   38.82046794
     atom   26 type  2   force =    -0.04120229   -0.05574131  -37.77493374
     atom   27 type  1   force =     0.61402271   -0.27670799   -0.30493179
     atom   28 type  2   force =     0.59141189   -0.44894826   37.62001342
     atom   29 type  2   force =     0.12331586   -0.25317563  -38.30661694
     atom   30 type  1   force =     1.00001520   -0.08432535   -1.40026823
     atom   31 type  2   force =     2.00903206    0.05732615   37.72431260
     atom   32 type  2   force =    -0.33204388   -0.06187241  -38.62248134
     atom   33 type  1   force =     0.76091188    0.20519290    2.38671813
     atom   34 type  2   force =     0.52042882    0.58526417   38.38266578
     atom   35 type  2   force =     0.04797555    0.35290835  -38.15798400
     atom   36 type  3   force =    -1.16119537   -0.21867365   49.91881229
     The local contribution  to forces
     atom    1 type  1   force =     0.30766490   -0.26545227   -1.25719794
     atom    2 type  2   force =     0.20632031   -0.05339694  -38.29255572
     atom    3 type  2   force =    -0.13433770    0.05564917   37.54459814
     atom    4 type  1   force =     0.06239139    0.86851222    3.95089768
     atom    5 type  2   force =     1.46264835   -0.05618017  -37.27952980
     atom    6 type  2   force =    -0.11584560    0.49657718   38.60616329
     atom    7 type  1   force =     3.32472514    1.49466199    2.61856236
     atom    8 type  2   force =     0.98322907   -0.22274357  -28.19926184
     atom    9 type  2   force =    -0.41619370    0.00939410   38.34942922
     atom   10 type  1   force =     0.38139685   -0.62543596   -1.60323654
     atom   11 type  2   force =     1.05793457    0.32053802  -37.60947162
     atom   12 type  2   force =    -0.22736670   -0.57525927   38.62969278
     atom   13 type  1   force =    -0.10174559   -0.56879462   -2.00049383
     atom   14 type  2   force =     0.08476300    0.05606954  -38.14914048
     atom   15 type  2   force =     0.07109869    0.07775932   37.77939002
     atom   16 type  1   force =     0.53036516   -2.75019748   -0.28033380
     atom   17 type  2   force =    -0.82176646   -0.81139004  -37.83835521
     atom   18 type  2   force =     0.22950082    0.50918435   38.13589901
     atom   19 type  1   force =    -2.60742250    1.57367856   -1.19064436
     atom   20 type  2   force =     0.11710295    0.12148659   39.40483795
     atom   21 type  1   force =     0.35966466   -0.44168023    0.27150212
     atom   22 type  2   force =    -0.43207697    1.09195439  -38.02664962
     atom   23 type  2   force =     0.29194463   -0.45621617   38.11503045
     atom   24 type  1   force =    -0.16194173    0.07312190   -2.13053828
     atom   25 type  2   force =    -0.31339513   -0.07578706  -38.57237873
     atom   26 type  2   force =     0.03799121    0.06542612   37.52934020
     atom   27 type  1   force =    -0.60793952    0.26954285    0.30253274
     atom   28 type  2   force =    -0.59142817    0.45939255  -37.36328740
     atom   29 type  2   force =    -0.12156195    0.26039531   38.06013255
     atom   30 type  1   force =    -0.99839954    0.07863247    1.38118029
     atom   31 type  2   force =    -2.00043317   -0.05685402  -37.47706347
     atom   32 type  2   force =     0.32358391    0.07477568   38.37945572
     atom   33 type  1   force =    -0.76123868   -0.21280547   -2.39075913
     atom   34 type  2   force =    -0.52152548   -0.57673111  -38.12716872
     atom   35 type  2   force =    -0.04783020   -0.33913253   37.91441331
     atom   36 type  3   force =     1.07676233    0.16461593  -47.63811782
     The core correction contribution to forces
     atom    1 type  1   force =     0.00000000    0.00000000    0.00000000
     atom    2 type  2   force =    -0.00009222    0.00043910    0.02097800
     atom    3 type  2   force =     0.00029833    0.00044505   -0.02090570
     atom    4 type  1   force =     0.00000000    0.00000000    0.00000000
     atom    5 type  2   force =    -0.00030020    0.00105933    0.02083834
     atom    6 type  2   force =     0.00013248   -0.00028724   -0.02099507
     atom    7 type  1   force =     0.00000000    0.00000000    0.00000000
     atom    8 type  2   force =     0.00018958    0.00193639   -0.00990582
     atom    9 type  2   force =     0.00074023    0.00073551   -0.02141663
     atom   10 type  1   force =     0.00000000    0.00000000    0.00000000
     atom   11 type  2   force =    -0.00008223   -0.00015863    0.02103174
     atom   12 type  2   force =     0.00076430    0.00121226   -0.02081296
     atom   13 type  1   force =     0.00000000    0.00000000    0.00000000
     atom   14 type  2   force =     0.00002036    0.00015128    0.02106180
     atom   15 type  2   force =    -0.00003017    0.00042357   -0.02076068
     atom   16 type  1   force =     0.00000000    0.00000000    0.00000000
     atom   17 type  2   force =     0.00039577    0.00095904    0.02054842
     atom   18 type  2   force =    -0.00026339   -0.00038217   -0.02095711
     atom   19 type  1   force =     0.00000000    0.00000000    0.00000000
     atom   20 type  2   force =    -0.00015942    0.00038107   -0.02113165
     atom   21 type  1   force =     0.00000000    0.00000000    0.00000000
     atom   22 type  2   force =     0.00024034   -0.00012201    0.02084726
     atom   23 type  2   force =    -0.00083570    0.00103642   -0.02079161
     atom   24 type  1   force =     0.00000000    0.00000000    0.00000000
     atom   25 type  2   force =     0.00016301    0.00050351    0.02102869
     atom   26 type  2   force =    -0.00021130    0.00045606   -0.02089119
     atom   27 type  1   force =     0.00000000    0.00000000    0.00000000
     atom   28 type  2   force =    -0.00004918    0.00085785    0.02149219
     atom   29 type  2   force =     0.00024255    0.00011281   -0.02079495
     atom   30 type  1   force =     0.00000000    0.00000000    0.00000000
     atom   31 type  2   force =     0.00036331    0.00021839    0.02121064
     atom   32 type  2   force =    -0.00074472    0.00061826   -0.02075048
     atom   33 type  1   force =     0.00000000    0.00000000    0.00000000
     atom   34 type  2   force =    -0.00018046    0.00034209    0.02150666
     atom   35 type  2   force =    -0.00001338    0.00088201   -0.02082893
     atom   36 type  3   force =    -0.00094476   -0.00056470    0.02444678
     The Hubbard contrib.    to forces
     atom    1 type  1   force =     0.00000000    0.00000000    0.00000000
     atom    2 type  2   force =     0.00000000    0.00000000    0.00000000
     atom    3 type  2   force =     0.00000000    0.00000000    0.00000000
     atom    4 type  1   force =     0.00000000    0.00000000    0.00000000
     atom    5 type  2   force =     0.00000000    0.00000000    0.00000000
     atom    6 type  2   force =     0.00000000    0.00000000    0.00000000
     atom    7 type  1   force =     0.00000000    0.00000000    0.00000000
     atom    8 type  2   force =     0.00000000    0.00000000    0.00000000
     atom    9 type  2   force =     0.00000000    0.00000000    0.00000000
     atom   10 type  1   force =     0.00000000    0.00000000    0.00000000
     atom   11 type  2   force =     0.00000000    0.00000000    0.00000000
     atom   12 type  2   force =     0.00000000    0.00000000    0.00000000
     atom   13 type  1   force =     0.00000000    0.00000000    0.00000000
     atom   14 type  2   force =     0.00000000    0.00000000    0.00000000
     atom   15 type  2   force =     0.00000000    0.00000000    0.00000000
     atom   16 type  1   force =     0.00000000    0.00000000    0.00000000
     atom   17 type  2   force =     0.00000000    0.00000000    0.00000000
     atom   18 type  2   force =     0.00000000    0.00000000    0.00000000
     atom   19 type  1   force =     0.00000000    0.00000000    0.00000000
     atom   20 type  2   force =     0.00000000    0.00000000    0.00000000
     atom   21 type  1   force =     0.00000000    0.00000000    0.00000000
     atom   22 type  2   force =     0.00000000    0.00000000    0.00000000
     atom   23 type  2   force =     0.00000000    0.00000000    0.00000000
     atom   24 type  1   force =     0.00000000    0.00000000    0.00000000
     atom   25 type  2   force =     0.00000000    0.00000000    0.00000000
     atom   26 type  2   force =     0.00000000    0.00000000    0.00000000
     atom   27 type  1   force =     0.00000000    0.00000000    0.00000000
     atom   28 type  2   force =     0.00000000    0.00000000    0.00000000
     atom   29 type  2   force =     0.00000000    0.00000000    0.00000000
     atom   30 type  1   force =     0.00000000    0.00000000    0.00000000
     atom   31 type  2   force =     0.00000000    0.00000000    0.00000000
     atom   32 type  2   force =     0.00000000    0.00000000    0.00000000
     atom   33 type  1   force =     0.00000000    0.00000000    0.00000000
     atom   34 type  2   force =     0.00000000    0.00000000    0.00000000
     atom   35 type  2   force =     0.00000000    0.00000000    0.00000000
     atom   36 type  3   force =     0.00000000    0.00000000    0.00000000
     The SCF correction term to forces
     atom    1 type  1   force =     0.00000539    0.00003676   -0.00002535
     atom    2 type  2   force =     0.00000782    0.00000794    0.00000475
     atom    3 type  2   force =    -0.00001392    0.00001081   -0.00000915
     atom    4 type  1   force =    -0.00001469    0.00004473    0.00001629
     atom    5 type  2   force =     0.00000403    0.00001777    0.00000428
     atom    6 type  2   force =    -0.00000023    0.00000374   -0.00000718
     atom    7 type  1   force =     0.00004875   -0.00003883    0.00002056
     atom    8 type  2   force =     0.00000254   -0.00000219   -0.00000515
     atom    9 type  2   force =     0.00000325   -0.00000545    0.00001868
     atom   10 type  1   force =    -0.00000907   -0.00002308    0.00000546
     atom   11 type  2   force =     0.00000714   -0.00001644    0.00000876
     atom   12 type  2   force =    -0.00000103   -0.00000302   -0.00000900
     atom   13 type  1   force =     0.00000163    0.00003913    0.00000420
     atom   14 type  2   force =     0.00000225    0.00000537    0.00000668
     atom   15 type  2   force =     0.00001807    0.00000765   -0.00001351
     atom   16 type  1   force =     0.00001738    0.00000351    0.00000340
     atom   17 type  2   force =    -0.00000424    0.00001820    0.00001117
     atom   18 type  2   force =     0.00001009    0.00001341   -0.00000292
     atom   19 type  1   force =     0.00001093   -0.00002925    0.00001995
     atom   20 type  2   force =     0.00001191   -0.00001484   -0.00000946
     atom   21 type  1   force =     0.00002983   -0.00000825    0.00000105
     atom   22 type  2   force =    -0.00000285   -0.00001718    0.00001590
     atom   23 type  2   force =     0.00001010   -0.00001247   -0.00000426
     atom   24 type  1   force =    -0.00001720    0.00003194    0.00001357
     atom   25 type  2   force =    -0.00000401    0.00000904    0.00001790
     atom   26 type  2   force =    -0.00000418    0.00001360   -0.00000322
     atom   27 type  1   force =    -0.00001780    0.00001350    0.00002195
     atom   28 type  2   force =     0.00000344    0.00001589    0.00000567
     atom   29 type  2   force =    -0.00000329    0.00000806    0.00000084
     atom   30 type  1   force =    -0.00004376   -0.00005729    0.00004757
     atom   31 type  2   force =    -0.00001482   -0.00001002    0.00000831
     atom   32 type  2   force =    -0.00000754   -0.00001491    0.00001048
     atom   33 type  1   force =    -0.00000953   -0.00001607    0.00002554
     atom   34 type  2   force =    -0.00000669   -0.00002433    0.00000959
     atom   35 type  2   force =    -0.00001482   -0.00000898    0.00000625
     atom   36 type  3   force =    -0.00004233    0.00000043   -0.00002340

     Total force =     0.007488     Total SCF correction =     0.000185
     Energy error            =      9.4E-05 Ry
     Gradient error          =      2.6E-03 Ry/Bohr

     bfgs converged in  22 scf cycles and  20 bfgs steps
     (criteria: energy <  1.0E-04 Ry, force <  1.0E-02 Ry/Bohr)

     End of BFGS Geometry Optimization

     Final energy             =   -2246.4505900176 Ry

     File ./MoS2-V-O.bfgs deleted, as requested
Begin final coordinates

ATOMIC_POSITIONS (angstrom)
Mo            6.5382747218        1.7547665555        2.7554116147
S             8.1052374049        0.8408133220        4.3693814590
S             8.1279036305        0.8414939380        1.1867908044
Mo            8.1078628038        4.4615006476        2.6909090436
S             6.5111620082        3.6644329673        4.3062780709
S             6.5198905612        3.5527499479        1.0948756406
Mo            6.4716269740        7.1992720361        2.6323845649
S             8.0625752814        6.3179660940        4.1978047692
S             8.1354604712        6.3212830536        1.1193209518
Mo            8.1106546198        9.9260031370        2.7721193896
S             6.4920101773        8.9269497499        4.3283721841
S             6.5702681232        9.0442937630        1.1077232946
Mo            3.4123222119        1.7472935244        2.7657457715
S             4.9825156829        0.8047290229        4.3441982518
S             4.9725799236        0.8353622661        1.1639071328
Mo            4.9780466488        4.5410892034        2.6554967603
S             3.4573524473        3.6571950208        4.3126474134
S             3.4140385766        3.5541069987        1.1186759954
Mo            3.4558961605        7.1776954847        2.6674914924
S             4.9580293980        6.3017043228        1.0205114280
Mo            4.9753546087        9.9021113590        2.7235879020
S             3.4528084544        8.9500699627        4.3268646603
S             3.3720801929        9.0300984413        1.1322462520
Mo            0.2536201954        1.7411715857        2.7827234608
S             1.8426207772        0.8435380311        4.3810039073
S             1.8294892740        0.8369601503        1.1899931204
Mo            1.8517932550        4.4893963946        2.7235210736
S             0.2400787788        3.6112933530        4.3285965502
S             0.2725584620        3.5373355742        1.1457029087
Mo            0.2797750332        7.2268470105        2.7364597250
S             1.9057077557        6.3079486174        4.3072480719
S             1.8435882768        6.3091374810        1.1143609851
Mo            1.8266522812        9.9328975014        2.7795312208
S             0.2378615313        9.0230218213        4.3740657412
S             0.2459106873        9.0611456126        1.1744167549
O             8.0139973992        6.2788835698        5.6959544521
End final coordinates



     Writing all to output data dir ./MoS2-V-O.save/
 
     init_run     :      4.64s CPU      5.12s WALL (       1 calls)
     electrons    :   1989.43s CPU   2267.65s WALL (      22 calls)
     update_pot   :     67.02s CPU     72.00s WALL (      21 calls)
     forces       :     64.68s CPU     75.18s WALL (      22 calls)

     Called by init_run:
     wfcinit      :      0.50s CPU      0.54s WALL (       1 calls)
     potinit      :      2.39s CPU      2.61s WALL (       1 calls)
     hinit0       :      0.44s CPU      0.46s WALL (       1 calls)

     Called by electrons:
     c_bands      :    292.37s CPU    300.01s WALL (     200 calls)
     sum_band     :    124.65s CPU    171.77s WALL (     200 calls)
     v_of_rho     :    241.95s CPU    294.41s WALL (     215 calls)
     newd         :     77.13s CPU    115.86s WALL (     215 calls)
     PAW_pot      :      8.53s CPU      8.56s WALL (     236 calls)
     mix_rho      :   1270.85s CPU   1406.95s WALL (     200 calls)

     Called by c_bands:
     init_us_2    :      4.63s CPU      4.99s WALL (     422 calls)
     init_us_2:cp :      4.63s CPU      4.98s WALL (     422 calls)
     regterg      :    277.46s CPU    284.71s WALL (     200 calls)

     Called by *egterg:
     rdiaghg      :     18.31s CPU     18.53s WALL (    1019 calls)
     h_psi        :    180.39s CPU    182.08s WALL (    1048 calls)
     s_psi        :     16.70s CPU     16.75s WALL (    1048 calls)
     g_psi        :      0.95s CPU      0.96s WALL (     847 calls)

     Called by h_psi:
     h_psi:calbec :     18.92s CPU     19.04s WALL (    1048 calls)
     vloc_psi     :    142.49s CPU    143.92s WALL (    1048 calls)
     add_vuspsi   :     16.68s CPU     16.79s WALL (    1048 calls)

     General routines
     calbec       :     27.74s CPU     27.91s WALL (    1357 calls)
     fft          :    170.96s CPU    191.94s WALL (   14397 calls)
     ffts         :    566.72s CPU    697.61s WALL (  305906 calls)
     fftw         :     92.17s CPU     92.95s WALL (  123642 calls)
     interpolate  :      2.72s CPU      3.10s WALL (     215 calls)
 
     Parallel routines
 
     PWSCF        :  35m36.34s CPU  40m35.68s WALL

 
   This run was terminated on:  18:53:53   1Nov2023            

=------------------------------------------------------------------------------=
   JOB DONE.
=------------------------------------------------------------------------------=
