
     Program PWSCF v.7.2 starts on  1Nov2023 at 23:29:17 

     This program is part of the open-source Quantum ESPRESSO suite
     for quantum simulation of materials; please cite
         "P. Giannozzi et al., J. Phys.:Condens. Matter 21 395502 (2009);
         "P. Giannozzi et al., J. Phys.:Condens. Matter 29 465901 (2017);
         "P. Giannozzi et al., J. Chem. Phys. 152 154105 (2020);
          URL http://www.quantum-espresso.org", 
     in publications or presentations arising from this work. More details at
     http://www.quantum-espresso.org/quote

     Parallel version (MPI & OpenMP), running on      48 processor cores
     Number of MPI processes:                48
     Threads/MPI process:                     1

     MPI processes distributed on     1 nodes
     42642 MiB available memory on the printing compute node when the environment starts
 
     Waiting for input...
     Reading input from standard input
Warning: card &CELL ignored
Warning: card CELL_DYNAMICS = 'BFGS', ignored
Warning: card CELL_DOFREE = '2DXY' ignored
Warning: card / ignored

     Current dimensions of program PWSCF are:
     Max number of different atomic species (ntypx) = 10
     Max number of k-points (npk) =  40000
     Max angular momentum in pseudopotentials (lmaxx) =  4
     file O.pbe-n-kjpaw_psl.0.1.UPF: wavefunction(s)  2P renormalized

     IMPORTANT: XC functional enforced from input :
     Exchange-correlation= RVV10
                           (   1   4  13   4  26   0   0)
     Any further DFT definition will be discarded
     Please, verify this is what you really want


     gamma-point specific algorithms are used
     signal trapping enabled: kill the code with -SIGUSR1 to stop cleanly the simulation 
 
     R & G space division:  proc/nbgrp/npool/nimage =      48
     Subspace diagonalization in iterative solution of the eigenvalue problem:
     one sub-group per band group will be used
     scalapack distributed-memory algorithm (size of sub-group:  2*  2 procs)

 
     Parallelization info
     --------------------
     sticks:   dense  smooth     PW     G-vecs:    dense   smooth      PW
     Min         396     194     47               101632    35090    4376
     Max         398     196     50               101674    35128    4410
     Sum       19091    9389   2349              4879585  1685513  210763
 
     Using Slab Decomposition
 


     bravais-lattice index     =            0
     lattice parameter (alat)  =      17.8707  a.u.
     unit-cell volume          =   17436.2743 (a.u.)^3
     number of atoms/cell      =           36
     number of atomic types    =            3
     number of electrons       =       312.00
     number of Kohn-Sham states=          187
     kinetic-energy cutoff     =      80.0000  Ry
     charge density cutoff     =     650.0000  Ry
     scf convergence threshold =      1.0E-06
     mixing beta               =       0.7000
     number of iterations used =            8  local-TF  mixing
     energy convergence thresh.=      1.0E-04
     force convergence thresh. =      1.0E-02
     Exchange-correlation= RVV10
                           (   1   4  13   4  26   0   0)
     nstep                     =          200


     celldm(1)=  17.870686  celldm(2)=   0.000000  celldm(3)=   0.000000
     celldm(4)=   0.000000  celldm(5)=   0.000000  celldm(6)=   0.000000

     crystal axes: (cart. coord. in units of alat)
               a(1) = (   1.000000   0.000000   0.000000 )  
               a(2) = (   0.000000   1.155671   0.000000 )  
               a(3) = (   0.000000   0.000000   2.643601 )  

     reciprocal axes: (cart. coord. in units 2 pi/alat)
               b(1) = (  1.000000  0.000000  0.000000 )  
               b(2) = (  0.000000  0.865298  0.000000 )  
               b(3) = (  0.000000  0.000000  0.378272 )  


     PseudoPot. # 1 for Mo read from file:
     ../pseudo/Mo_ONCV_PBE-1.0.oncvpsp.upf
     MD5 check sum: 1b5d28e075c9ccadda658a603575cd1f
     Pseudo is Norm-conserving, Zval = 14.0
     Generated using ONCVPSP code by D. R. Hamann
     Using radial grid of 1526 points,  6 beta functions with: 
                l(1) =   0
                l(2) =   0
                l(3) =   1
                l(4) =   1
                l(5) =   2
                l(6) =   2

     PseudoPot. # 2 for S  read from file:
     ../pseudo/s_pbe_v1.4.uspp.F.UPF
     MD5 check sum: 88d86576ff6df21479756cfb9bdac1df
     Pseudo is Ultrasoft + core correction, Zval =  6.0
     Generated by new atomic code, or converted to UPF format
     Using radial grid of  907 points,  6 beta functions with: 
                l(1) =   0
                l(2) =   0
                l(3) =   1
                l(4) =   1
                l(5) =   2
                l(6) =   2
     Q(r) pseudized with  8 coefficients,  rinner =    1.300   1.300   1.300
                                                       1.300   1.300

     PseudoPot. # 3 for O  read from file:
     ../pseudo/O.pbe-n-kjpaw_psl.0.1.UPF
     MD5 check sum: 0234752ac141de4415c5fc33072bef88
     Pseudo is Projector augmented-wave + core cor, Zval =  6.0
     Generated using "atomic" code by A. Dal Corso  v.5.0.99 svn rev. 10869
     Shape of augmentation charge: BESSEL
     Using radial grid of 1095 points,  4 beta functions with: 
                l(1) =   0
                l(2) =   0
                l(3) =   1
                l(4) =   1
     Q(r) pseudized with 0 coefficients 


     atomic species   valence    mass     pseudopotential
        Mo            14.00    95.94000     Mo( 1.00)
        S              6.00    32.06500     S ( 1.00)
        O              6.00    15.99940     O ( 1.00)

     No symmetry found



   Cartesian axes

     site n.     atom                  positions (alat units)
         1           Mo  tau(   1) = (   0.6952221   0.1890506   0.2985846  )
         2           S   tau(   2) = (   0.8646417   0.0856217   0.4689279  )
         3           S   tau(   3) = (   0.8663890   0.0857843   0.1351291  )
         4           Mo  tau(   4) = (   0.8560186   0.4753274   0.2873942  )
         5           S   tau(   5) = (   0.6873294   0.3936244   0.4596353  )
         6           S   tau(   6) = (   0.6929804   0.3713468   0.1185692  )
         7           Mo  tau(   7) = (   0.6862796   0.7633098   0.2825370  )
         8           S   tau(   8) = (   0.8545980   0.6708292   0.4486168  )
         9           S   tau(   9) = (   0.8545123   0.6666874   0.1146125  )
        10           Mo  tau(  10) = (   0.8629403   1.0471007   0.3006803  )
        11           S   tau(  11) = (   0.6868280   0.9456650   0.4634891  )
        12           S   tau(  12) = (   0.6998113   0.9568511   0.1205389  )
        13           Mo  tau(  13) = (   0.3618216   0.1847309   0.2935964  )
        14           S   tau(  14) = (   0.5260962   0.0863870   0.4600448  )
        15           S   tau(  15) = (   0.5348379   0.0894875   0.1297123  )
        16           Mo  tau(  16) = (   0.5265817   0.4772436   0.2784130  )
        17           S   tau(  17) = (   0.3624753   0.3882513   0.4525556  )
        18           S   tau(  18) = (   0.3635411   0.3752055   0.1119148  )
        19           Mo  tau(  19) = (   0.3652268   0.7630864   0.2781795  )
        20           S   tau(  20) = (   0.5269494   0.6690381   0.1096838  )
        21           Mo  tau(  21) = (   0.5300192   1.0470394   0.2900995  )
        22           S   tau(  22) = (   0.3670346   0.9457522   0.4574073  )
        23           S   tau(  23) = (   0.3604225   0.9585725   0.1159032  )
        24           Mo  tau(  24) = (   0.0313099   0.1847895   0.3013130  )
        25           S   tau(  25) = (   0.1956761   0.0838230   0.4650863  )
        26           S   tau(  26) = (   0.1967693   0.0903508   0.1278874  )
        27           Mo  tau(  27) = (   0.1967578   0.4753919   0.2813011  )
        28           S   tau(  28) = (   0.0287851   0.3864324   0.4586755  )
        29           S   tau(  29) = (   0.0244514   0.3729871   0.1239344  )
        30           Mo  tau(  30) = (   0.0286728   0.7631204   0.2856894  )
        31           S   tau(  31) = (   0.2011512   0.6675435   0.4465001  )
        32           S   tau(  32) = (   0.1969214   0.6672839   0.1104564  )
        33           Mo  tau(  33) = (   0.1950294   1.0511147   0.2932237  )
        34           S   tau(  34) = (   0.0312912   0.9612169   0.4667423  )
        35           S   tau(  35) = (   0.0292670   0.9563028   0.1216485  )
        36           O   tau(  36) = (   0.7777778   1.1556707   0.5656742  )

     number of k points=     1  Gaussian smearing, width (Ry)=  0.0100
                       cart. coord. in units 2pi/alat
        k(    1) = (   0.0000000   0.0000000   0.0000000), wk =   2.0000000

     Dense  grid:  2439793 G-vectors     FFT dimensions: ( 150, 180, 384)

     Smooth grid:   842757 G-vectors     FFT dimensions: ( 108, 120, 270)

     Estimated max dynamical RAM per process >     269.22 MB

     Estimated total dynamical RAM >      12.62 GB

     Initial potential from superposition of free atoms

     starting charge     311.9873, renormalised to     312.0000

     negative rho (up, down):  2.751E-04 0.000E+00


---------------------------------------------------------------------------------
Carrying out rVV10 run using the following parameters:
Nqs =      20    Nr_points =    1024   r_max =   100.000
b_value =  6.30000    beta =  0.00901
     q_mesh =  0.00010000  0.00030000  0.00058939  0.00100810
               0.00161396  0.00249058  0.00375900  0.00559430
               0.00824984  0.01209221  0.01765183  0.02569619
               0.03733578  0.05417739  0.07854596  0.11380545
               0.16482331  0.23864234  0.34545298  0.50000000

Gradients computed in Reciprocal space

---------------------------------------------------------------------------------


     Starting wfcs are  216 randomized atomic wfcs
     Checking if some PAW data can be deallocated... 

     total cpu time spent up to now is        5.3 secs

     Self-consistent Calculation

     iteration #  1     ecut=    80.00 Ry     beta= 0.70
     Davidson diagonalization with overlap
     ethr =  1.00E-02,  avg # of iterations =  2.0

     Threshold (ethr) on eigenvalues was too large:
     Diagonalizing with lowered threshold

     Davidson diagonalization with overlap
     ethr =  4.59E-04,  avg # of iterations =  3.0

     negative rho (up, down):  4.049E-08 0.000E+00

     total cpu time spent up to now is       24.9 secs

     total energy              =   -2246.22999357 Ry
     estimated scf accuracy    <       1.68565306 Ry

     iteration #  2     ecut=    80.00 Ry     beta= 0.70
     Davidson diagonalization with overlap
     ethr =  5.40E-04,  avg # of iterations =  3.0

     total cpu time spent up to now is       29.6 secs

     total energy              =   -2246.23235768 Ry
     estimated scf accuracy    <       0.58686915 Ry

     iteration #  3     ecut=    80.00 Ry     beta= 0.70
     Davidson diagonalization with overlap
     ethr =  1.88E-04,  avg # of iterations =  2.0

     total cpu time spent up to now is       33.5 secs

     total energy              =   -2246.23301963 Ry
     estimated scf accuracy    <       0.14988689 Ry

     iteration #  4     ecut=    80.00 Ry     beta= 0.70
     Davidson diagonalization with overlap
     ethr =  4.80E-05,  avg # of iterations = 17.0

     total cpu time spent up to now is       38.3 secs

     total energy              =   -2246.26013010 Ry
     estimated scf accuracy    <       0.02611105 Ry

     iteration #  5     ecut=    80.00 Ry     beta= 0.70
     Davidson diagonalization with overlap
     ethr =  8.37E-06,  avg # of iterations =  9.0

     total cpu time spent up to now is       42.4 secs

     total energy              =   -2246.26015537 Ry
     estimated scf accuracy    <       0.01577782 Ry

     iteration #  6     ecut=    80.00 Ry     beta= 0.70
     Davidson diagonalization with overlap
     ethr =  5.06E-06,  avg # of iterations =  1.0

     total cpu time spent up to now is       46.2 secs

     total energy              =   -2246.25911429 Ry
     estimated scf accuracy    <       0.01011166 Ry

     iteration #  7     ecut=    80.00 Ry     beta= 0.70
     Davidson diagonalization with overlap
     ethr =  3.24E-06,  avg # of iterations =  2.0

     negative rho (up, down):  1.405E-05 0.000E+00

     total cpu time spent up to now is       52.4 secs

     total energy              =   -2246.25789877 Ry
     estimated scf accuracy    <       0.00606367 Ry

     iteration #  8     ecut=    80.00 Ry     beta= 0.70
     Davidson diagonalization with overlap
     ethr =  1.94E-06,  avg # of iterations =  9.0

     negative rho (up, down):  9.892E-03 0.000E+00

     total cpu time spent up to now is       58.5 secs

     total energy              =   -2246.25742459 Ry
     estimated scf accuracy    <       0.00337445 Ry

     iteration #  9     ecut=    80.00 Ry     beta= 0.70
     Davidson diagonalization with overlap
     ethr =  1.08E-06,  avg # of iterations =  2.0

     negative rho (up, down):  2.399E-02 0.000E+00

     total cpu time spent up to now is       64.0 secs

     total energy              =   -2246.25720885 Ry
     estimated scf accuracy    <       0.00185868 Ry

     iteration # 10     ecut=    80.00 Ry     beta= 0.70
     Davidson diagonalization with overlap
     ethr =  5.96E-07,  avg # of iterations =  2.0

     negative rho (up, down):  2.546E-02 0.000E+00

     total cpu time spent up to now is       70.6 secs

     total energy              =   -2246.25724936 Ry
     estimated scf accuracy    <       0.00082101 Ry

     iteration # 11     ecut=    80.00 Ry     beta= 0.70
     Davidson diagonalization with overlap
     ethr =  2.63E-07,  avg # of iterations =  2.0

     negative rho (up, down):  1.343E-02 0.000E+00

     total cpu time spent up to now is       78.4 secs

     total energy              =   -2246.25722769 Ry
     estimated scf accuracy    <       0.00015581 Ry

     iteration # 12     ecut=    80.00 Ry     beta= 0.70
     Davidson diagonalization with overlap
     ethr =  4.99E-08,  avg # of iterations =  5.0

     negative rho (up, down):  4.248E-03 0.000E+00

     total cpu time spent up to now is       86.5 secs

     total energy              =   -2246.25727275 Ry
     estimated scf accuracy    <       0.00004019 Ry

     iteration # 13     ecut=    80.00 Ry     beta= 0.70
     Davidson diagonalization with overlap
     ethr =  1.29E-08,  avg # of iterations =  5.0

     negative rho (up, down):  8.370E-04 0.000E+00

     total cpu time spent up to now is       95.4 secs

     total energy              =   -2246.25728936 Ry
     estimated scf accuracy    <       0.00000725 Ry

     iteration # 14     ecut=    80.00 Ry     beta= 0.70
     Davidson diagonalization with overlap
     ethr =  2.32E-09,  avg # of iterations =  5.0

     negative rho (up, down):  2.121E-04 0.000E+00

     total cpu time spent up to now is       99.1 secs

     End of self-consistent calculation

          k = 0.0000 0.0000 0.0000 (105382 PWs)   bands (ev):

   -63.1023 -62.9544 -62.9387 -62.9062 -62.8933 -62.8561 -62.8483 -62.8363
   -62.8091 -62.7955 -62.7741 -62.7343 -37.3876 -37.3279 -37.2636 -37.2280
   -37.2140 -37.1898 -37.1845 -37.1328 -37.1288 -37.1223 -37.1118 -37.1003
   -37.0960 -37.0793 -37.0700 -37.0598 -37.0476 -37.0303 -37.0218 -37.0131
   -36.9961 -36.9872 -36.9724 -36.9631 -36.9597 -36.9560 -36.9494 -36.9372
   -36.9231 -36.9183 -36.9071 -36.8723 -36.8553 -36.8165 -36.7895 -36.7489
   -23.1320 -15.9801 -15.2376 -15.1568 -15.0164 -14.9504 -14.8044 -14.5627
   -14.5360 -14.5132 -14.4582 -14.4406 -14.3851 -14.3315 -14.2752 -14.2083
   -14.1831 -14.1523 -14.0503 -13.9984 -13.9026 -13.8907 -13.8618 -13.5784
    -8.3581  -8.0468  -7.8373  -7.5507  -7.4716  -7.3276  -7.3151  -7.2388
    -7.2106  -7.0384  -6.9658  -6.8494  -6.8391  -6.7646  -6.6853  -6.6584
    -6.5036  -6.4928  -6.4164  -6.3638  -6.0998  -6.0799  -5.9601  -5.9290
    -5.8684  -5.8291  -5.7915  -5.7418  -5.6986  -5.6629  -5.6328  -5.5878
    -5.5573  -5.5232  -5.4380  -5.4025  -5.2708  -5.2031  -5.1462  -5.0979
    -5.0037  -4.9656  -4.8680  -4.8215  -4.7295  -4.5717  -4.5145  -4.3578
    -4.3193  -4.2836  -4.2087  -4.1363  -4.0419  -3.9876  -3.8988  -3.8280
    -3.7829  -3.7529  -3.6962  -3.6492  -3.5915  -3.5658  -3.5492  -3.4916
    -3.4524  -3.4259  -3.3117  -3.2164  -3.0875  -3.0264  -2.9976  -2.8528
    -2.8242  -2.7836  -2.7733  -2.7376  -2.6677  -2.6184  -2.5072  -2.3258
    -2.1862  -2.0285  -1.9856  -1.6750  -1.0100  -0.8438  -0.7402  -0.2227
    -0.1734  -0.1182  -0.0770  -0.0261   0.0708   0.1256   0.2097   0.2409
     0.2619   0.3139   0.3847   0.4420   0.4747   0.5073   0.5439   0.5803
     0.6430   0.6813   0.7103   0.7489   0.7622   0.7882   0.8912   0.9361
     0.9508   1.0115   1.2072

     the Fermi energy is    -1.3425 ev

!    total energy              =   -2246.25729022 Ry
     estimated scf accuracy    <       0.00000099 Ry
     smearing contrib. (-TS)   =      -0.00002876 Ry
     internal energy E=F+TS    =   -2246.25726146 Ry

     The total energy is F=E-TS. E is the sum of the following terms:
     one-electron contribution =  -18464.85603952 Ry
     hartree contribution      =    9220.70832382 Ry
     xc contribution           =    -392.20354188 Ry
     ewald contribution        =    7399.94941717 Ry
     one-center paw contrib.   =      -9.85542105 Ry

     convergence has been achieved in  14 iterations

     negative rho (up, down):  2.121E-04 0.000E+00

     Forces acting on atoms (cartesian axes, Ry/au):

     atom    1 type  1   force =     0.01420162   -0.01179799   -0.01200214
     atom    2 type  2   force =    -0.03565862    0.02987751   -0.12173114
     atom    3 type  2   force =    -0.01081342    0.00924088   -0.00174879
     atom    4 type  1   force =     0.00136252    0.00174961    0.00026768
     atom    5 type  2   force =    -0.00112928   -0.00444053   -0.00511750
     atom    6 type  2   force =     0.00114518    0.01507901   -0.00139392
     atom    7 type  1   force =     0.00006800   -0.01985634   -0.01124328
     atom    8 type  2   force =     0.00166414   -0.00425568    0.01830124
     atom    9 type  2   force =     0.01245023    0.00541462    0.01065734
     atom   10 type  1   force =     0.02222140   -0.00230654   -0.09041520
     atom   11 type  2   force =    -0.00719884   -0.02714002   -0.02691279
     atom   12 type  2   force =    -0.00348520   -0.00002725    0.00791075
     atom   13 type  1   force =     0.00595655    0.00365060   -0.00175348
     atom   14 type  2   force =     0.00006181    0.00372975    0.00449931
     atom   15 type  2   force =    -0.01294079    0.00186698   -0.00789850
     atom   16 type  1   force =    -0.00103511    0.01133841    0.00390322
     atom   17 type  2   force =     0.00571241    0.00084108    0.00269068
     atom   18 type  2   force =    -0.00327675   -0.00561815    0.01253707
     atom   19 type  1   force =     0.00247341   -0.01103647   -0.00525688
     atom   20 type  2   force =     0.00287735   -0.00316311    0.00113539
     atom   21 type  1   force =    -0.00216144    0.00722979    0.00438267
     atom   22 type  2   force =    -0.00275922   -0.00181296   -0.00277151
     atom   23 type  2   force =    -0.00245495    0.00114384    0.00763247
     atom   24 type  1   force =     0.01922841    0.00984762   -0.00121517
     atom   25 type  2   force =     0.02324667    0.01949212    0.00260975
     atom   26 type  2   force =    -0.01551627   -0.00219442   -0.00831000
     atom   27 type  1   force =     0.00036313    0.00096990    0.00770234
     atom   28 type  2   force =     0.00404042    0.00582838   -0.00815502
     atom   29 type  2   force =     0.00337092   -0.00392776   -0.00494408
     atom   30 type  1   force =     0.00062701    0.01046798   -0.00436399
     atom   31 type  2   force =     0.00094154    0.00063021    0.01685158
     atom   32 type  2   force =    -0.00933884    0.00678266    0.00846663
     atom   33 type  1   force =     0.00821281   -0.00752289   -0.01152284
     atom   34 type  2   force =     0.00217236   -0.04027302   -0.00477727
     atom   35 type  2   force =    -0.01042246    0.00715467    0.01670934
     atom   36 type  3   force =    -0.01420674   -0.00696252    0.20527606
     The non-local contrib.  to forces
     atom    1 type  1   force =     0.02332506    0.02317352    0.00840034
     atom    2 type  2   force =    -0.16581841   -0.16510935    0.12576951
     atom    3 type  2   force =    -0.01547718    0.00079583    0.27087961
     atom    4 type  1   force =    -0.00047062    0.01071776    0.00449337
     atom    5 type  2   force =     0.00786803   -0.03955165   -0.25330124
     atom    6 type  2   force =     0.00087975    0.01505174    0.26060320
     atom    7 type  1   force =    -0.02098767    0.01598373   -0.01640600
     atom    8 type  2   force =     0.00492774   -0.00608021   -0.25258430
     atom    9 type  2   force =     0.00898393   -0.01033740    0.27858812
     atom   10 type  1   force =     0.00522775    0.02290710    0.01968800
     atom   11 type  2   force =    -0.01651575   -0.01331255   -0.24883039
     atom   12 type  2   force =    -0.01790743   -0.01661762    0.25941382
     atom   13 type  1   force =     0.00530924    0.02263069   -0.00666570
     atom   14 type  2   force =    -0.01702089    0.00254742   -0.26506655
     atom   15 type  2   force =    -0.01582618   -0.00462514    0.25359785
     atom   16 type  1   force =    -0.00068509    0.02584938   -0.02706676
     atom   17 type  2   force =     0.00407184   -0.02969285   -0.25261814
     atom   18 type  2   force =    -0.00409447   -0.00413040    0.27426633
     atom   19 type  1   force =     0.01325788    0.00403513   -0.01598247
     atom   20 type  2   force =     0.00074155   -0.02349732    0.26849079
     atom   21 type  1   force =     0.00062965    0.02011578    0.00697185
     atom   22 type  2   force =    -0.01105877    0.00396826   -0.25748571
     atom   23 type  2   force =     0.00534051   -0.01467107    0.26865225
     atom   24 type  1   force =     0.01078814    0.00355131   -0.01637243
     atom   25 type  2   force =     0.00912892    0.00979118   -0.26251796
     atom   26 type  2   force =    -0.00489159   -0.00731385    0.26377787
     atom   27 type  1   force =    -0.00034790    0.01435076    0.00983666
     atom   28 type  2   force =    -0.00321609   -0.02206200   -0.27134017
     atom   29 type  2   force =     0.00845678   -0.00058260    0.26605023
     atom   30 type  1   force =    -0.00244630    0.01982829    0.01211395
     atom   31 type  2   force =    -0.00662608   -0.00001962   -0.25435517
     atom   32 type  2   force =    -0.00175912   -0.00935771    0.27500558
     atom   33 type  1   force =    -0.00616424    0.00612447    0.00461878
     atom   34 type  2   force =    -0.00267014   -0.03738626   -0.27425307
     atom   35 type  2   force =    -0.00302956   -0.00927303    0.27219973
     atom   36 type  3   force =     1.26392186    1.30050560   -1.13976428
     The ionic contribution  to forces
     atom    1 type  1   force =    -0.58685424    2.57147891    1.80788435
     atom    2 type  2   force =     4.43782897    5.47086057   33.46901650
     atom    3 type  2   force =    -0.00130334    0.19362353  -37.29438910
     atom    4 type  1   force =     0.26654571    1.22400180   -0.60914659
     atom    5 type  2   force =    -1.19442660    2.40839975   38.36007482
     atom    6 type  2   force =     0.28963425   -0.27021170  -38.70138494
     atom    7 type  1   force =    -2.90722507   -3.90574402    0.97332850
     atom    8 type  2   force =    -0.87527789   -0.38214827   37.09377430
     atom    9 type  2   force =     0.37599212   -0.14151233  -38.57215968
     atom   10 type  1   force =     0.40794060   -2.32364396    0.22180052
     atom   11 type  2   force =    -1.78242539   -4.48163386   37.63847949
     atom   12 type  2   force =     0.34365786    0.40938289  -38.82656944
     atom   13 type  1   force =    -0.03870558    1.60868997    1.38305928
     atom   14 type  2   force =    -2.07411114    0.78970415   37.45007859
     atom   15 type  2   force =    -0.09416213    0.06037423  -37.72268608
     atom   16 type  1   force =    -0.35441733    4.38431426   -0.63323964
     atom   17 type  2   force =     0.65896397    1.82721354   37.70690443
     atom   18 type  2   force =    -0.20885994   -0.52048946  -39.09011074
     atom   19 type  1   force =     2.49692605   -2.94610550   -0.42224853
     atom   20 type  2   force =     0.15900885   -0.27982771  -39.00053876
     atom   21 type  1   force =    -1.69166846   -0.84562023   -1.65579657
     atom   22 type  2   force =     0.07100132   -2.15526633   38.10376287
     atom   23 type  2   force =    -0.16737465    0.53113734  -38.92120937
     atom   24 type  1   force =     0.86274705    2.37223534    3.51937789
     atom   25 type  2   force =     1.19312664    0.52078454   38.89638319
     atom   26 type  2   force =    -0.18450708    0.14357238  -38.02259877
     atom   27 type  1   force =     0.17869502    0.70929737   -3.21662025
     atom   28 type  2   force =     0.41576157    1.59193806   37.91284800
     atom   29 type  2   force =    -0.15966994   -0.24601951  -37.86484122
     atom   30 type  1   force =     0.14336576   -1.69174802   -1.33193542
     atom   31 type  2   force =     1.31564903   -0.21537210   37.12563987
     atom   32 type  2   force =    -0.44777539   -0.06750354  -39.11421224
     atom   33 type  1   force =     1.41871986   -1.27267298    0.44980240
     atom   34 type  2   force =     1.50633438   -2.52842697   38.70786967
     atom   35 type  2   force =    -0.11367210    0.27534637  -38.59615264
     atom   36 type  3   force =    -3.65946277   -2.81840852   48.77575530
     The local contribution  to forces
     atom    1 type  1   force =     0.57740615   -2.60663506   -1.82880938
     atom    2 type  2   force =    -4.31692470   -5.28535435  -33.71668026
     atom    3 type  2   force =     0.00521764   -0.18510541   37.04266358
     atom    4 type  1   force =    -0.26483857   -1.23286110    0.60399666
     atom    5 type  2   force =     1.18617782   -2.37563620  -38.13282480
     atom    6 type  2   force =    -0.28959229    0.27159993   38.46002812
     atom    7 type  1   force =     2.92846929    3.87028465   -0.96892323
     atom    8 type  2   force =     0.87214580    0.38347530  -36.84381626
     atom    9 type  2   force =    -0.37233059    0.15670204   38.32518303
     atom   10 type  1   force =    -0.39112339    2.29819024   -0.33234128
     atom   11 type  2   force =     1.79067137    4.46687904  -37.43765811
     atom   12 type  2   force =    -0.33069359   -0.39420154   38.59575439
     atom   13 type  1   force =     0.03962595   -1.62770837   -1.37891534
     atom   14 type  2   force =     2.09020414   -0.78792039  -37.20204598
     atom   15 type  2   force =     0.09614651   -0.05419212   37.48144669
     atom   16 type  1   force =     0.35399137   -4.39909254    0.66327468
     atom   17 type  2   force =    -0.65719085   -1.79834846  -37.47269849
     atom   18 type  2   force =     0.20958801    0.51949823   38.84942034
     atom   19 type  1   force =    -2.50777532    2.93133499    0.43205017
     atom   20 type  2   force =    -0.15702531    0.29923660   38.75431078
     atom   21 type  1   force =     1.68903175    0.83277325    1.65277314
     atom   22 type  2   force =    -0.06301673    2.15009063  -37.87013150
     atom   23 type  2   force =     0.16003658   -0.51664626   38.68107098
     atom   24 type  1   force =    -0.85429072   -2.36614230   -3.50485353
     atom   25 type  2   force =    -1.17912829   -0.51050891  -38.65262558
     atom   26 type  2   force =     0.17397404   -0.13884252   37.77136230
     atom   27 type  1   force =    -0.17783462   -0.72269143    3.21339786
     atom   28 type  2   force =    -0.40882761   -1.56597772  -37.67109454
     atom   29 type  2   force =     0.15532851    0.24320763   37.61446199
     atom   30 type  1   force =    -0.14042387    1.68264001    1.31466283
     atom   31 type  2   force =    -1.30847328    0.21594527  -36.87568156
     atom   32 type  2   force =     0.44046174    0.08303803   38.86866317
     atom   33 type  1   force =    -1.40429615    1.25886610   -0.46653727
     atom   34 type  2   force =    -1.50205751    2.52464071  -38.46012209
     atom   35 type  2   force =     0.10635087   -0.25983214   38.36175851
     atom   36 type  3   force =     2.39457113    1.52477504  -47.44211778
     The core correction contribution to forces
     atom    1 type  1   force =     0.00000000    0.00000000    0.00000000
     atom    2 type  2   force =     0.00920144    0.00936983   -0.00018736
     atom    3 type  2   force =     0.00065937   -0.00017483   -0.02098776
     atom    4 type  1   force =     0.00000000    0.00000000    0.00000000
     atom    5 type  2   force =    -0.00075476    0.00217443    0.02036151
     atom    6 type  2   force =     0.00015587   -0.00133438   -0.02074549
     atom    7 type  1   force =     0.00000000    0.00000000    0.00000000
     atom    8 type  2   force =    -0.00017474    0.00068222    0.02034339
     atom    9 type  2   force =    -0.00023614    0.00061584   -0.02107907
     atom   10 type  1   force =     0.00000000    0.00000000    0.00000000
     atom   11 type  2   force =     0.00111829    0.00108726    0.02059562
     atom   12 type  2   force =     0.00147004    0.00138055   -0.02066718
     atom   13 type  1   force =     0.00000000    0.00000000    0.00000000
     atom   14 type  2   force =     0.00109677   -0.00071769    0.02102509
     atom   15 type  2   force =     0.00089259    0.00030406   -0.02022492
     atom   16 type  1   force =     0.00000000    0.00000000    0.00000000
     atom   17 type  2   force =    -0.00007933    0.00156666    0.02038554
     atom   18 type  2   force =     0.00009992   -0.00045492   -0.02108081
     atom   19 type  1   force =     0.00000000    0.00000000    0.00000000
     atom   20 type  2   force =     0.00013179    0.00096207   -0.02130605
     atom   21 type  1   force =     0.00000000    0.00000000    0.00000000
     atom   22 type  2   force =     0.00039414   -0.00048781    0.02051387
     atom   23 type  2   force =    -0.00043813    0.00125574   -0.02091585
     atom   24 type  1   force =     0.00000000    0.00000000    0.00000000
     atom   25 type  2   force =     0.00014528   -0.00073381    0.02079721
     atom   26 type  2   force =     0.00000856    0.00036638   -0.02088054
     atom   27 type  1   force =     0.00000000    0.00000000    0.00000000
     atom   28 type  2   force =     0.00028914    0.00188743    0.02079879
     atom   29 type  2   force =    -0.00066684   -0.00041421   -0.02070801
     atom   30 type  1   force =     0.00000000    0.00000000    0.00000000
     atom   31 type  2   force =     0.00040130    0.00017556    0.02056756
     atom   32 type  2   force =    -0.00019515    0.00060198   -0.02109457
     atom   33 type  1   force =     0.00000000    0.00000000    0.00000000
     atom   34 type  2   force =     0.00042661    0.00102976    0.02117314
     atom   35 type  2   force =    -0.00010549    0.00088355   -0.02111354
     atom   36 type  3   force =    -0.01328189   -0.01389587    0.01098107
     The Hubbard contrib.    to forces
     atom    1 type  1   force =     0.00000000    0.00000000    0.00000000
     atom    2 type  2   force =     0.00000000    0.00000000    0.00000000
     atom    3 type  2   force =     0.00000000    0.00000000    0.00000000
     atom    4 type  1   force =     0.00000000    0.00000000    0.00000000
     atom    5 type  2   force =     0.00000000    0.00000000    0.00000000
     atom    6 type  2   force =     0.00000000    0.00000000    0.00000000
     atom    7 type  1   force =     0.00000000    0.00000000    0.00000000
     atom    8 type  2   force =     0.00000000    0.00000000    0.00000000
     atom    9 type  2   force =     0.00000000    0.00000000    0.00000000
     atom   10 type  1   force =     0.00000000    0.00000000    0.00000000
     atom   11 type  2   force =     0.00000000    0.00000000    0.00000000
     atom   12 type  2   force =     0.00000000    0.00000000    0.00000000
     atom   13 type  1   force =     0.00000000    0.00000000    0.00000000
     atom   14 type  2   force =     0.00000000    0.00000000    0.00000000
     atom   15 type  2   force =     0.00000000    0.00000000    0.00000000
     atom   16 type  1   force =     0.00000000    0.00000000    0.00000000
     atom   17 type  2   force =     0.00000000    0.00000000    0.00000000
     atom   18 type  2   force =     0.00000000    0.00000000    0.00000000
     atom   19 type  1   force =     0.00000000    0.00000000    0.00000000
     atom   20 type  2   force =     0.00000000    0.00000000    0.00000000
     atom   21 type  1   force =     0.00000000    0.00000000    0.00000000
     atom   22 type  2   force =     0.00000000    0.00000000    0.00000000
     atom   23 type  2   force =     0.00000000    0.00000000    0.00000000
     atom   24 type  1   force =     0.00000000    0.00000000    0.00000000
     atom   25 type  2   force =     0.00000000    0.00000000    0.00000000
     atom   26 type  2   force =     0.00000000    0.00000000    0.00000000
     atom   27 type  1   force =     0.00000000    0.00000000    0.00000000
     atom   28 type  2   force =     0.00000000    0.00000000    0.00000000
     atom   29 type  2   force =     0.00000000    0.00000000    0.00000000
     atom   30 type  1   force =     0.00000000    0.00000000    0.00000000
     atom   31 type  2   force =     0.00000000    0.00000000    0.00000000
     atom   32 type  2   force =     0.00000000    0.00000000    0.00000000
     atom   33 type  1   force =     0.00000000    0.00000000    0.00000000
     atom   34 type  2   force =     0.00000000    0.00000000    0.00000000
     atom   35 type  2   force =     0.00000000    0.00000000    0.00000000
     atom   36 type  3   force =     0.00000000    0.00000000    0.00000000
     The SCF correction term to forces
     atom    1 type  1   force =     0.00032498    0.00018628    0.00050970
     atom    2 type  2   force =     0.00005441    0.00011246    0.00033762
     atom    3 type  2   force =     0.00009042    0.00010340    0.00007202
     atom    4 type  1   force =     0.00012633   -0.00010722    0.00091139
     atom    5 type  2   force =     0.00000656    0.00017477    0.00055936
     atom    6 type  2   force =     0.00006793   -0.00002493    0.00009233
     atom    7 type  1   force =    -0.00018822   -0.00037906    0.00074460
     atom    8 type  2   force =     0.00004356   -0.00018308    0.00057125
     atom    9 type  2   force =     0.00004123   -0.00005189    0.00011210
     atom   10 type  1   force =     0.00017677    0.00024172    0.00042470
     atom   11 type  2   force =    -0.00004703   -0.00015827    0.00048774
     atom   12 type  2   force =    -0.00001174    0.00003012   -0.00003368
     atom   13 type  1   force =    -0.00027273    0.00003995    0.00075542
     atom   14 type  2   force =    -0.00010674    0.00011790    0.00049530
     atom   15 type  2   force =     0.00000875    0.00000760   -0.00004489
     atom   16 type  1   force =     0.00007627    0.00026895    0.00092209
     atom   17 type  2   force =    -0.00005288    0.00010382    0.00070449
     atom   18 type  2   force =    -0.00000993   -0.00003996    0.00002910
     atom   19 type  1   force =     0.00006513   -0.00029944    0.00091110
     atom   20 type  2   force =     0.00002080   -0.00003510    0.00016578
     atom   21 type  1   force =    -0.00015404   -0.00003737    0.00042140
     atom   22 type  2   force =    -0.00007885   -0.00011607    0.00055610
     atom   23 type  2   force =    -0.00001893    0.00006973    0.00002161
     atom   24 type  1   force =    -0.00001574    0.00020490    0.00062005
     atom   25 type  2   force =    -0.00002554    0.00016078    0.00056004
     atom   26 type  2   force =    -0.00009988    0.00002484    0.00001629
     atom   27 type  1   force =    -0.00014904    0.00001483    0.00107522
     atom   28 type  2   force =     0.00003375    0.00004426    0.00062004
     atom   29 type  2   force =    -0.00007726   -0.00011741    0.00008008
     atom   30 type  1   force =     0.00013176   -0.00025066    0.00078180
     atom   31 type  2   force =    -0.00000909   -0.00009725    0.00066802
     atom   32 type  2   force =    -0.00007060    0.00000554    0.00009183
     atom   33 type  1   force =    -0.00004632    0.00016116    0.00058039
     atom   34 type  2   force =     0.00013934   -0.00012861    0.00054223
     atom   35 type  2   force =     0.00003415    0.00003156    0.00000442
     atom   36 type  3   force =     0.00004527    0.00006288    0.00040889

     Total force =     0.278788     Total SCF correction =     0.003416

     BFGS Geometry Optimization
     Energy error            =      0.0E+00 Ry
     Gradient error          =      2.1E-01 Ry/Bohr

     number of scf cycles    =   1
     number of bfgs steps    =   0

     energy             new  =   -2246.2572902215 Ry

     new trust radius        =       0.2058848439 bohr
     new conv_thr            =       0.0000010000 Ry


ATOMIC_POSITIONS (angstrom)
Mo            6.5820635839        1.7815629998        2.8172917752
S             8.1578396119        0.8255145225        4.3701210093
S             8.1875108718        0.8161318071        1.2769580049
Mo            8.0958835786        4.4959827983        2.7179600442
S             6.4993116667        3.7200616588        4.3439525825
S             6.5539558023        3.5197170240        1.1205425979
Mo            6.4900176816        7.2079297624        2.6659347966
S             8.0826083545        6.3416189832        4.2521461607
S             8.0875060253        6.3075676086        1.0895026204
Mo            8.1723781062        9.9009598472        2.7956160955
S             6.4913581330        8.9285649322        4.3688638974
S             6.6161029128        9.0486967952        1.1440934912
Mo            3.4248117355        1.7488876673        2.7755432594
S             4.9751982011        0.8189149101        4.3529140231
S             5.0509857847        0.8472500744        1.2224787556
Mo            4.9792089267        4.5191780326        2.6349500466
S             3.4308645394        3.6720447670        4.2811334241
S             3.4361865991        3.5452557028        1.0649860116
Mo            3.4551706130        7.2104842883        2.6278950417
S             4.9847568235        6.3252584426        1.0378545520
Mo            5.0111201354        9.9054258925        2.7457201723
S             3.4694980027        8.9427918931        4.3241246928
S             3.4071300643        9.0655952770        1.1001072304
Mo            0.3062657209        1.7527206650        2.8488016690
S             1.8627638221        0.8030087946        4.3995904581
S             1.8525891760        0.8532646827        1.2050033904
Mo            1.8608834684        4.4961800088        2.6642732816
S             0.2743519476        3.6574830700        4.3332686473
S             0.2330150233        3.5251707472        1.1694015873
Mo            0.2714839496        7.2221855122        2.6993871035
S             1.9027364912        6.3131323278        4.2313615952
S             1.8572963116        6.3139330428        1.0490396293
Mo            1.8486926961        9.9361582124        2.7668486280
S             0.2970624620        9.0686862604        4.4113414433
S             0.2712560718        9.0473118055        1.1592429794
O             7.3477398950       10.9252155942        5.4580721218



     Writing config-only to output data dir ./MoS2-V-O.save/
     NEW-OLD atomic charge density approx. for the potential

     negative rho (up, down):  1.798E-04 0.000E+00

     total cpu time spent up to now is      106.3 secs

     Self-consistent Calculation

     iteration #  1     ecut=    80.00 Ry     beta= 0.70
     Davidson diagonalization with overlap
     ethr =  1.00E-06,  avg # of iterations =  9.0

     negative rho (up, down):  1.353E-03 0.000E+00

     total cpu time spent up to now is      118.7 secs

     total energy              =   -2246.30357489 Ry
     estimated scf accuracy    <       0.01116899 Ry

     iteration #  2     ecut=    80.00 Ry     beta= 0.70
     Davidson diagonalization with overlap
     ethr =  3.58E-06,  avg # of iterations =  4.0

     negative rho (up, down):  2.333E-03 0.000E+00

     total cpu time spent up to now is      133.6 secs

     total energy              =   -2246.30387835 Ry
     estimated scf accuracy    <       0.00532920 Ry

     iteration #  3     ecut=    80.00 Ry     beta= 0.70
     Davidson diagonalization with overlap
     ethr =  1.71E-06,  avg # of iterations =  3.0

     negative rho (up, down):  3.782E-03 0.000E+00

     total cpu time spent up to now is      146.4 secs

     total energy              =   -2246.30387330 Ry
     estimated scf accuracy    <       0.00100633 Ry

     iteration #  4     ecut=    80.00 Ry     beta= 0.70
     Davidson diagonalization with overlap
     ethr =  3.23E-07,  avg # of iterations =  3.0

     negative rho (up, down):  4.039E-03 0.000E+00

     total cpu time spent up to now is      159.0 secs

     total energy              =   -2246.30396211 Ry
     estimated scf accuracy    <       0.00038148 Ry

     iteration #  5     ecut=    80.00 Ry     beta= 0.70
     Davidson diagonalization with overlap
     ethr =  1.22E-07,  avg # of iterations =  2.0

     negative rho (up, down):  3.847E-03 0.000E+00

     total cpu time spent up to now is      169.5 secs

     total energy              =   -2246.30392869 Ry
     estimated scf accuracy    <       0.00017652 Ry

     iteration #  6     ecut=    80.00 Ry     beta= 0.70
     Davidson diagonalization with overlap
     ethr =  5.66E-08,  avg # of iterations =  5.0

     negative rho (up, down):  3.242E-03 0.000E+00

     total cpu time spent up to now is      179.5 secs

     total energy              =   -2246.30395192 Ry
     estimated scf accuracy    <       0.00008209 Ry

     iteration #  7     ecut=    80.00 Ry     beta= 0.70
     Davidson diagonalization with overlap
     ethr =  2.63E-08,  avg # of iterations =  3.0

     negative rho (up, down):  2.133E-03 0.000E+00

     total cpu time spent up to now is      188.7 secs

     total energy              =   -2246.30395105 Ry
     estimated scf accuracy    <       0.00000756 Ry

     iteration #  8     ecut=    80.00 Ry     beta= 0.70
     Davidson diagonalization with overlap
     ethr =  2.42E-09,  avg # of iterations =  5.0

     negative rho (up, down):  1.674E-03 0.000E+00

     total cpu time spent up to now is      198.4 secs

     total energy              =   -2246.30394982 Ry
     estimated scf accuracy    <       0.00000661 Ry

     iteration #  9     ecut=    80.00 Ry     beta= 0.70
     Davidson diagonalization with overlap
     ethr =  2.12E-09,  avg # of iterations =  2.0

     negative rho (up, down):  7.742E-04 0.000E+00

     total cpu time spent up to now is      208.9 secs

     total energy              =   -2246.30394434 Ry
     estimated scf accuracy    <       0.00000231 Ry

     iteration # 10     ecut=    80.00 Ry     beta= 0.70
     Davidson diagonalization with overlap
     ethr =  7.40E-10,  avg # of iterations =  4.0

     negative rho (up, down):  2.048E-04 0.000E+00

     total cpu time spent up to now is      212.4 secs

     End of self-consistent calculation

          k = 0.0000 0.0000 0.0000 (105382 PWs)   bands (ev):

   -63.1013 -62.9972 -62.9853 -62.9512 -62.9374 -62.9000 -62.8926 -62.8821
   -62.8503 -62.8497 -62.8394 -62.7861 -37.3879 -37.3467 -37.2936 -37.2653
   -37.2566 -37.2306 -37.2280 -37.1766 -37.1735 -37.1653 -37.1566 -37.1471
   -37.1403 -37.1224 -37.1144 -37.1021 -37.0942 -37.0815 -37.0706 -37.0593
   -37.0432 -37.0327 -37.0287 -37.0173 -37.0100 -37.0033 -36.9988 -36.9841
   -36.9802 -36.9638 -36.9533 -36.9254 -36.9183 -36.8654 -36.8458 -36.7964
   -21.5303 -16.0301 -15.2825 -15.2069 -15.0526 -15.0134 -14.8340 -14.6059
   -14.5688 -14.5444 -14.5060 -14.4915 -14.4274 -14.3883 -14.3244 -14.2449
   -14.2205 -14.2094 -14.0920 -14.0220 -13.9556 -13.9371 -13.9112 -13.8323
    -7.9454  -7.8350  -7.6750  -7.5050  -7.4746  -7.3786  -7.3448  -7.2913
    -7.2644  -6.9957  -6.9357  -6.8906  -6.8704  -6.8170  -6.7106  -6.6631
    -6.5451  -6.5320  -6.4365  -6.4083  -6.1123  -6.1035  -6.0034  -5.9679
    -5.9115  -5.8639  -5.8374  -5.7919  -5.7512  -5.7068  -5.6810  -5.6213
    -5.5896  -5.5564  -5.4619  -5.4219  -5.2795  -5.2259  -5.1593  -5.1407
    -5.0497  -5.0184  -4.9281  -4.8340  -4.7676  -4.5956  -4.5228  -4.3886
    -4.3542  -4.3215  -4.2258  -4.1830  -4.0467  -4.0013  -3.9258  -3.8588
    -3.8287  -3.7902  -3.7231  -3.6930  -3.6262  -3.6074  -3.5942  -3.5462
    -3.4977  -3.4623  -3.3196  -3.2569  -3.0926  -3.0417  -3.0199  -2.9080
    -2.8658  -2.8294  -2.8153  -2.7871  -2.7227  -2.6623  -2.5918  -2.3643
    -2.2473  -2.0861  -2.0414  -1.7866  -0.9772  -0.8393  -0.7732  -0.2729
    -0.2311  -0.1614  -0.1211  -0.0470   0.0351   0.1024   0.1878   0.1966
     0.2220   0.2767   0.3530   0.4030   0.4387   0.4807   0.4972   0.5368
     0.5941   0.6406   0.6715   0.7039   0.7161   0.7662   0.8568   0.9051
     0.9264   0.9521   1.1607

     the Fermi energy is    -1.3819 ev

!    total energy              =   -2246.30394285 Ry
     estimated scf accuracy    <       0.00000064 Ry
     smearing contrib. (-TS)   =      -0.00000163 Ry
     internal energy E=F+TS    =   -2246.30394123 Ry

     The total energy is F=E-TS. E is the sum of the following terms:
     one-electron contribution =  -18454.99447463 Ry
     hartree contribution      =    9215.37191618 Ry
     xc contribution           =    -392.10281141 Ry
     ewald contribution        =    7395.28397339 Ry
     one-center paw contrib.   =      -9.86254477 Ry

     convergence has been achieved in  10 iterations

     negative rho (up, down):  2.048E-04 0.000E+00

     Forces acting on atoms (cartesian axes, Ry/au):

     atom    1 type  1   force =    -0.00791898   -0.00544376   -0.01227467
     atom    2 type  2   force =    -0.10843884   -0.07136281    0.01724018
     atom    3 type  2   force =    -0.00347622    0.01359411   -0.01349686
     atom    4 type  1   force =     0.00535896    0.00052597    0.00069231
     atom    5 type  2   force =    -0.00021006   -0.00443310   -0.00498973
     atom    6 type  2   force =     0.00059124    0.01307156   -0.00113280
     atom    7 type  1   force =     0.00080104   -0.01600788   -0.00405792
     atom    8 type  2   force =     0.00100433   -0.00381104    0.01256818
     atom    9 type  2   force =     0.01159030    0.00413907    0.00628385
     atom   10 type  1   force =     0.00177507   -0.00644063   -0.03201265
     atom   11 type  2   force =     0.00474324   -0.00948030   -0.02442948
     atom   12 type  2   force =    -0.00668511   -0.00213793   -0.00175083
     atom   13 type  1   force =     0.00300156    0.00150460   -0.00418177
     atom   14 type  2   force =     0.00552882    0.00301698    0.00270437
     atom   15 type  2   force =    -0.00962544    0.00135231   -0.00719764
     atom   16 type  1   force =     0.00084787    0.00786363    0.00298043
     atom   17 type  2   force =     0.00556788    0.00125580    0.00374672
     atom   18 type  2   force =    -0.00230296   -0.00295501    0.01038655
     atom   19 type  1   force =     0.00198340   -0.00780794    0.00007335
     atom   20 type  2   force =     0.00123475   -0.00388880   -0.00373476
     atom   21 type  1   force =    -0.00343001    0.00415329    0.00215879
     atom   22 type  2   force =    -0.00167962   -0.00215015   -0.00376348
     atom   23 type  2   force =    -0.00029831   -0.00003768    0.00405625
     atom   24 type  1   force =     0.01235709    0.01039333   -0.00616191
     atom   25 type  2   force =     0.01842676    0.01316299    0.00096586
     atom   26 type  2   force =    -0.00860288   -0.00245991   -0.00686490
     atom   27 type  1   force =    -0.00071292    0.00155923    0.00520668
     atom   28 type  2   force =     0.00279805    0.00543174   -0.00388752
     atom   29 type  2   force =     0.00381249    0.00000297   -0.00386416
     atom   30 type  1   force =     0.00115028    0.00421042    0.00395912
     atom   31 type  2   force =     0.00086288    0.00061697    0.01154011
     atom   32 type  2   force =    -0.00740798    0.00521541    0.00642078
     atom   33 type  1   force =     0.00491729   -0.00303663   -0.00003067
     atom   34 type  2   force =    -0.00231307   -0.02843569   -0.01407499
     atom   35 type  2   force =    -0.00012217    0.00381520    0.00054462
     atom   36 type  3   force =     0.07487129    0.07500369    0.05637857
     The non-local contrib.  to forces
     atom    1 type  1   force =     0.01806347    0.02264779    0.00511749
     atom    2 type  2   force =    -0.18596932   -0.21188175    0.24415603
     atom    3 type  2   force =    -0.00906143    0.00010577    0.26673606
     atom    4 type  1   force =     0.00010828    0.01197584    0.00388819
     atom    5 type  2   force =     0.00835935   -0.03804733   -0.25579317
     atom    6 type  2   force =     0.00022607    0.01262707    0.26176743
     atom    7 type  1   force =    -0.02207166    0.01430990   -0.01883175
     atom    8 type  2   force =     0.00526232   -0.00624704   -0.25733828
     atom    9 type  2   force =     0.00806812   -0.01099118    0.27619107
     atom   10 type  1   force =     0.00726274    0.01425467    0.01955386
     atom   11 type  2   force =    -0.00539198    0.00080685   -0.25081518
     atom   12 type  2   force =    -0.01636802   -0.01726836    0.25727188
     atom   13 type  1   force =     0.00621724    0.02314198   -0.00355290
     atom   14 type  2   force =    -0.00958685    0.00146072   -0.27090606
     atom   15 type  2   force =    -0.01158642   -0.00430442    0.25380690
     atom   16 type  1   force =    -0.00127961    0.02779805   -0.02868035
     atom   17 type  2   force =     0.00343525   -0.02888828   -0.25340141
     atom   18 type  2   force =    -0.00277239   -0.00202235    0.27320206
     atom   19 type  1   force =     0.01280061    0.00448574   -0.01701392
     atom   20 type  2   force =    -0.00127460   -0.02299880    0.26497815
     atom   21 type  1   force =     0.00005986    0.02213150    0.00614137
     atom   22 type  2   force =    -0.00897669    0.00358827   -0.26074316
     atom   23 type  2   force =     0.00683011   -0.01602792    0.26746837
     atom   24 type  1   force =     0.00887441    0.00222440   -0.01419077
     atom   25 type  2   force =     0.00616475    0.00581277   -0.26487795
     atom   26 type  2   force =     0.00076673   -0.00860171    0.26375763
     atom   27 type  1   force =    -0.00048748    0.01410717    0.00985068
     atom   28 type  2   force =    -0.00359238   -0.02300610   -0.27177847
     atom   29 type  2   force =     0.00838676    0.00201159    0.26688891
     atom   30 type  1   force =    -0.00155200    0.02121163    0.00937436
     atom   31 type  2   force =    -0.00709933    0.00031324   -0.25815556
     atom   32 type  2   force =     0.00012041   -0.01079381    0.27417656
     atom   33 type  1   force =    -0.00509436    0.00464047    0.00351634
     atom   34 type  2   force =    -0.00137159   -0.03017748   -0.28198602
     atom   35 type  2   force =     0.00307083   -0.01090150    0.26242349
     atom   36 type  3   force =     1.03195641    1.11195967   -1.19953991
     The ionic contribution  to forces
     atom    1 type  1   force =    -0.89196584    2.58318608    1.66636775
     atom    2 type  2   force =     3.44353316    4.16178136   33.31848157
     atom    3 type  2   force =     0.04443625    0.37379218  -37.33343122
     atom    4 type  1   force =     0.27162195    1.15333038   -0.48962341
     atom    5 type  2   force =    -1.18195010    2.31121089   38.32657783
     atom    6 type  2   force =     0.24598282   -0.29969576  -38.65200495
     atom    7 type  1   force =    -2.85537775   -3.60417016    0.91895127
     atom    8 type  2   force =    -0.87618300   -0.30796479   37.22224746
     atom    9 type  2   force =     0.39124134   -0.19038710  -38.53431402
     atom   10 type  1   force =     0.06417726   -2.07126388   -0.84397497
     atom   11 type  2   force =    -1.46027177   -4.11138238   37.40716840
     atom   12 type  2   force =     0.13122171    0.34314032  -38.74144545
     atom   13 type  1   force =     0.04189614    1.51007143    1.40090379
     atom   14 type  2   force =    -1.90353837    0.74238288   37.47224235
     atom   15 type  2   force =    -0.09252646    0.06575563  -37.71714656
     atom   16 type  1   force =    -0.31513537    4.14598755   -0.43601825
     atom   17 type  2   force =     0.68247255    1.79203023   37.75408176
     atom   18 type  2   force =    -0.18888584   -0.49700755  -39.01816789
     atom   19 type  1   force =     2.49791509   -2.78737379   -0.43967613
     atom   20 type  2   force =     0.12031008   -0.26862745  -39.07310504
     atom   21 type  1   force =    -1.48116228   -0.83804010   -1.22134827
     atom   22 type  2   force =     0.09057081   -2.12841362   38.10604124
     atom   23 type  2   force =    -0.09447480    0.50956667  -38.86639495
     atom   24 type  1   force =     0.87592701    2.17242261    3.82710137
     atom   25 type  2   force =     1.02936061    0.35998417   38.94273921
     atom   26 type  2   force =    -0.11343071    0.15142376  -38.02213567
     atom   27 type  1   force =     0.17299907    0.77424300   -2.98961112
     atom   28 type  2   force =     0.35196394    1.53016479   37.94765478
     atom   29 type  2   force =    -0.16479321   -0.20054298  -37.88794630
     atom   30 type  1   force =     0.14014208   -1.86595113   -1.18311346
     atom   31 type  2   force =     1.29865614   -0.17612177   37.23170709
     atom   32 type  2   force =    -0.43104245   -0.11868696  -39.07657188
     atom   33 type  1   force =     1.37023151   -1.04131810    0.60324899
     atom   34 type  2   force =     1.24036235   -2.18706739   38.70575841
     atom   35 type  2   force =     0.08841168    0.18489910  -38.64675008
     atom   36 type  3   force =    -2.54269559   -2.17135810   48.32150635
     The local contribution  to forces
     atom    1 type  1   force =     0.86624602   -2.61120343   -1.68361366
     atom    2 type  2   force =    -3.37676356   -4.03317427  -33.53873113
     atom    3 type  2   force =    -0.03928883   -0.36043040   37.07394079
     atom    4 type  1   force =    -0.26632755   -1.16475644    0.48651892
     atom    5 type  2   force =     1.17419409   -2.27958772  -38.09613297
     atom    6 type  2   force =    -0.24575027    0.30139290   38.40972429
     atom    7 type  1   force =     2.87820076    3.57363549   -0.90433690
     atom    8 type  2   force =     0.87209359    0.30959398  -36.97275683
     atom    9 type  2   force =    -0.38757538    0.20492970   38.28529175
     atom   10 type  1   force =    -0.06943906    2.05059951    0.79200570
     atom   11 type  2   force =     1.46948909    4.10029176  -37.20149020
     atom   12 type  2   force =    -0.12263044   -0.32935176   38.50282893
     atom   13 type  1   force =    -0.04525140   -1.53158930   -1.40144504
     atom   14 type  2   force =     1.91770587   -0.74007654  -37.21999407
     atom   15 type  2   force =     0.09383121   -0.06037839   37.47622149
     atom   16 type  1   force =     0.31722624   -4.16567785    0.46770322
     atom   17 type  2   force =    -0.68032473   -1.76332046  -37.51722301
     atom   18 type  2   force =     0.18930446    0.49666983   38.77625476
     atom   19 type  1   force =    -2.50872032    2.77494895    0.45663900
     atom   20 type  2   force =    -0.11798246    0.28678400   38.82548320
     atom   21 type  1   force =     1.47756904    0.81998474    1.21721724
     atom   22 type  2   force =    -0.08359323    2.12314065  -37.86962791
     atom   23 type  2   force =     0.08775894   -0.49489964   38.62368481
     atom   24 type  1   force =    -0.87261853   -2.16420755   -3.81880311
     atom   25 type  2   force =    -1.01737647   -0.35192903  -38.69765878
     atom   26 type  2   force =     0.10428039   -0.14574072   37.77218677
     atom   27 type  1   force =    -0.17322360   -0.78680739    2.98503222
     atom   28 type  2   force =    -0.34582108   -1.50363197  -37.70050078
     atom   29 type  2   force =     0.16090932    0.19908709   37.63778211
     atom   30 type  1   force =    -0.13740647    1.84900932    1.17754002
     atom   31 type  2   force =    -1.29108109    0.17616779  -36.98256633
     atom   32 type  2   force =     0.42382548    0.13408514   38.82973815
     atom   33 type  1   force =    -1.36032955    1.03352836   -0.60696679
     atom   34 type  2   force =    -1.24135926    2.18784246  -38.45937171
     atom   35 type  2   force =    -0.09144299   -0.17102519   38.40563291
     atom   36 type  3   force =     1.59742131    1.14728259  -47.07835409
     The core correction contribution to forces
     atom    1 type  1   force =     0.00000000    0.00000000    0.00000000
     atom    2 type  2   force =     0.01110706    0.01231822   -0.00696030
     atom    3 type  2   force =     0.00044539    0.00007885   -0.02088139
     atom    4 type  1   force =     0.00000000    0.00000000    0.00000000
     atom    5 type  2   force =    -0.00079027    0.00203660    0.02048901
     atom    6 type  2   force =     0.00015327   -0.00120037   -0.02077640
     atom    7 type  1   force =     0.00000000    0.00000000    0.00000000
     atom    8 type  2   force =    -0.00016785    0.00073246    0.02052931
     atom    9 type  2   force =    -0.00015677    0.00061637   -0.02103707
     atom   10 type  1   force =     0.00000000    0.00000000    0.00000000
     atom   11 type  2   force =     0.00085416    0.00055049    0.02066990
     atom   12 type  2   force =     0.00116812    0.00131806   -0.02061261
     atom   13 type  1   force =     0.00000000    0.00000000    0.00000000
     atom   14 type  2   force =     0.00086790   -0.00064132    0.02139541
     atom   15 type  2   force =     0.00067305    0.00027527   -0.02025037
     atom   16 type  1   force =     0.00000000    0.00000000    0.00000000
     atom   17 type  2   force =    -0.00004304    0.00151043    0.02043399
     atom   18 type  2   force =     0.00002911   -0.00053489   -0.02106401
     atom   19 type  1   force =     0.00000000    0.00000000    0.00000000
     atom   20 type  2   force =     0.00020017    0.00093955   -0.02122846
     atom   21 type  1   force =     0.00000000    0.00000000    0.00000000
     atom   22 type  2   force =     0.00027876   -0.00050393    0.02067460
     atom   23 type  2   force =    -0.00045515    0.00129888   -0.02089035
     atom   24 type  1   force =     0.00000000    0.00000000    0.00000000
     atom   25 type  2   force =     0.00023885   -0.00064349    0.02092063
     atom   26 type  2   force =    -0.00024166    0.00043512   -0.02086567
     atom   27 type  1   force =     0.00000000    0.00000000    0.00000000
     atom   28 type  2   force =     0.00026514    0.00191602    0.02089695
     atom   29 type  2   force =    -0.00066589   -0.00052271   -0.02074603
     atom   30 type  1   force =     0.00000000    0.00000000    0.00000000
     atom   31 type  2   force =     0.00039996    0.00019704    0.02070209
     atom   32 type  2   force =    -0.00030422    0.00062930   -0.02108983
     atom   33 type  1   force =     0.00000000    0.00000000    0.00000000
     atom   34 type  2   force =     0.00013059    0.00092655    0.02158629
     atom   35 type  2   force =    -0.00017592    0.00085071   -0.02090004
     atom   36 type  3   force =    -0.01142189   -0.01246333    0.01257325
     The Hubbard contrib.    to forces
     atom    1 type  1   force =     0.00000000    0.00000000    0.00000000
     atom    2 type  2   force =     0.00000000    0.00000000    0.00000000
     atom    3 type  2   force =     0.00000000    0.00000000    0.00000000
     atom    4 type  1   force =     0.00000000    0.00000000    0.00000000
     atom    5 type  2   force =     0.00000000    0.00000000    0.00000000
     atom    6 type  2   force =     0.00000000    0.00000000    0.00000000
     atom    7 type  1   force =     0.00000000    0.00000000    0.00000000
     atom    8 type  2   force =     0.00000000    0.00000000    0.00000000
     atom    9 type  2   force =     0.00000000    0.00000000    0.00000000
     atom   10 type  1   force =     0.00000000    0.00000000    0.00000000
     atom   11 type  2   force =     0.00000000    0.00000000    0.00000000
     atom   12 type  2   force =     0.00000000    0.00000000    0.00000000
     atom   13 type  1   force =     0.00000000    0.00000000    0.00000000
     atom   14 type  2   force =     0.00000000    0.00000000    0.00000000
     atom   15 type  2   force =     0.00000000    0.00000000    0.00000000
     atom   16 type  1   force =     0.00000000    0.00000000    0.00000000
     atom   17 type  2   force =     0.00000000    0.00000000    0.00000000
     atom   18 type  2   force =     0.00000000    0.00000000    0.00000000
     atom   19 type  1   force =     0.00000000    0.00000000    0.00000000
     atom   20 type  2   force =     0.00000000    0.00000000    0.00000000
     atom   21 type  1   force =     0.00000000    0.00000000    0.00000000
     atom   22 type  2   force =     0.00000000    0.00000000    0.00000000
     atom   23 type  2   force =     0.00000000    0.00000000    0.00000000
     atom   24 type  1   force =     0.00000000    0.00000000    0.00000000
     atom   25 type  2   force =     0.00000000    0.00000000    0.00000000
     atom   26 type  2   force =     0.00000000    0.00000000    0.00000000
     atom   27 type  1   force =     0.00000000    0.00000000    0.00000000
     atom   28 type  2   force =     0.00000000    0.00000000    0.00000000
     atom   29 type  2   force =     0.00000000    0.00000000    0.00000000
     atom   30 type  1   force =     0.00000000    0.00000000    0.00000000
     atom   31 type  2   force =     0.00000000    0.00000000    0.00000000
     atom   32 type  2   force =     0.00000000    0.00000000    0.00000000
     atom   33 type  1   force =     0.00000000    0.00000000    0.00000000
     atom   34 type  2   force =     0.00000000    0.00000000    0.00000000
     atom   35 type  2   force =     0.00000000    0.00000000    0.00000000
     atom   36 type  3   force =     0.00000000    0.00000000    0.00000000
     The SCF correction term to forces
     atom    1 type  1   force =    -0.00025748   -0.00006971   -0.00014745
     atom    2 type  2   force =    -0.00034103   -0.00040188    0.00029279
     atom    3 type  2   force =    -0.00000244    0.00005220    0.00013769
     atom    4 type  1   force =    -0.00003857   -0.00001932   -0.00009260
     atom    5 type  2   force =    -0.00001799   -0.00004106   -0.00013164
     atom    6 type  2   force =    -0.00001550   -0.00004779    0.00015561
     atom    7 type  1   force =     0.00005485    0.00022138    0.00015825
     atom    8 type  2   force =     0.00000442    0.00007883   -0.00011469
     atom    9 type  2   force =     0.00001814   -0.00002422    0.00015091
     atom   10 type  1   force =    -0.00022072   -0.00002644    0.00040155
     atom   11 type  2   force =     0.00006889    0.00025747    0.00003640
     atom   12 type  2   force =    -0.00007132    0.00002830    0.00020523
     atom   13 type  1   force =     0.00014474   -0.00011500   -0.00008883
     atom   14 type  2   force =     0.00008542   -0.00010427   -0.00003447
     atom   15 type  2   force =    -0.00001167    0.00000869    0.00016968
     atom   16 type  1   force =     0.00004176   -0.00023962   -0.00002539
     atom   17 type  2   force =     0.00003301   -0.00007162   -0.00014581
     atom   18 type  2   force =     0.00002686   -0.00005556    0.00016043
     atom   19 type  1   force =    -0.00000682    0.00013565    0.00012319
     atom   20 type  2   force =    -0.00001328    0.00001839    0.00013619
     atom   21 type  1   force =     0.00010852    0.00008163    0.00014725
     atom   22 type  2   force =     0.00004587    0.00004297   -0.00010946
     atom   23 type  2   force =     0.00004773    0.00002882    0.00018718
     atom   24 type  1   force =     0.00017935   -0.00004164   -0.00027061
     atom   25 type  2   force =     0.00004416   -0.00005694   -0.00015845
     atom   26 type  2   force =     0.00002753    0.00002813    0.00019084
     atom   27 type  1   force =     0.00000425    0.00002093   -0.00006631
     atom   28 type  2   force =    -0.00001241   -0.00000649   -0.00016120
     atom   29 type  2   force =    -0.00001934   -0.00002554    0.00015595
     atom   30 type  1   force =    -0.00002818   -0.00005490    0.00015701
     atom   31 type  2   force =    -0.00000765    0.00006517   -0.00014838
     atom   32 type  2   force =    -0.00000205   -0.00001376    0.00016658
     atom   33 type  1   force =     0.00011484    0.00011712    0.00016959
     atom   34 type  2   force =    -0.00007001    0.00004465   -0.00006316
     atom   35 type  2   force =     0.00001938   -0.00000342    0.00013713
     atom   36 type  3   force =    -0.00038379   -0.00041265    0.00019176

     Total force =     0.194755     Total SCF correction =     0.001447
     Energy error            =      4.7E-02 Ry
     Gradient error          =      1.1E-01 Ry/Bohr

     number of scf cycles    =   2
     number of bfgs steps    =   1

     energy             old  =   -2246.2572902215 Ry
     energy             new  =   -2246.3039428520 Ry

     CASE: energy            _new < energy            _old

     new trust radius        =       0.2608923482 bohr
     new conv_thr            =       0.0000001084 Ry


ATOMIC_POSITIONS (angstrom)
Mo            6.5821497652        1.7731206383        2.8040128283
S             8.0682773029        0.7876084325        4.3341247151
S             8.1808266623        0.8292406371        1.2668711014
Mo            8.1001520697        4.4970389018        2.7185476214
S             6.4987201209        3.7152241132        4.3384605412
S             6.5548190147        3.5347640639        1.1192042358
Mo            6.4906022306        7.1889545225        2.6586760712
S             8.0839638168        6.3372874402        4.2681132760
S             8.1004851615        6.3125845249        1.0980801262
Mo            8.1823761639        9.8955659988        2.7376752094
S             6.4918220783        8.9112625526        4.3412425928
S             6.6100740773        9.0471974976        1.1459937570
Mo            3.4292503382        1.7513747384        2.7719402356
S             4.9790720744        0.8224861962        4.3565710961
S             5.0391812715        0.8489278044        1.2143528519
Mo            4.9793911118        4.5291240348        2.6385642890
S             3.4369937060        3.6732507796        4.2848030830
S             3.4332910801        3.5409829458        1.0771612656
Mo            3.4575268732        7.2006961220        2.6258732656
S             4.9867511070        6.3213035729        1.0357018782
Mo            5.0078796738        9.9111684514        2.7489513925
S             3.4672405575        8.9405799551        4.3204114892
S             3.4059543487        9.0660200675        1.1059410121
Mo            0.3224514528        1.7638401600        2.8440322189
S             1.8847600751        0.8198596326        4.4012920037
S             1.8404810861        0.8506866600        1.1969469029
Mo            1.8605302760        4.4976480804        2.6709356090
S             0.2778933043        3.6635631754        4.3273463037
S             0.2369987047        3.5236240548        1.1647616139
Mo            0.2725320794        7.2292447062        2.7004229159
S             1.9037085405        6.3138104022        4.2460412935
S             1.8484560169        6.3202388085        1.0568486542
Mo            1.8553548155        9.9310775643        2.7622836917
S             0.2963085499        9.0330075010        4.3996578505
S             0.2670613166        9.0527893518        1.1662108577
O             7.3942679657       10.9746923220        5.5782689693



     Writing config-only to output data dir ./MoS2-V-O.save/
     NEW-OLD atomic charge density approx. for the potential

     negative rho (up, down):  2.135E-04 0.000E+00

     total cpu time spent up to now is      219.6 secs

     Self-consistent Calculation

     iteration #  1     ecut=    80.00 Ry     beta= 0.70
     Davidson diagonalization with overlap
     ethr =  1.00E-06,  avg # of iterations = 19.0

     negative rho (up, down):  5.787E-04 0.000E+00

     total cpu time spent up to now is      235.1 secs

     total energy              =   -2246.34243664 Ry
     estimated scf accuracy    <       0.02081741 Ry

     iteration #  2     ecut=    80.00 Ry     beta= 0.70
     Davidson diagonalization with overlap
     ethr =  6.67E-06,  avg # of iterations =  6.0

     negative rho (up, down):  9.434E-04 0.000E+00

     total cpu time spent up to now is      247.0 secs

     total energy              =   -2246.34894637 Ry
     estimated scf accuracy    <       0.01970783 Ry

     iteration #  3     ecut=    80.00 Ry     beta= 0.70
     Davidson diagonalization with overlap
     ethr =  6.32E-06,  avg # of iterations =  2.0

     negative rho (up, down):  1.725E-03 0.000E+00

     total cpu time spent up to now is      258.3 secs

     total energy              =   -2246.34870829 Ry
     estimated scf accuracy    <       0.00330865 Ry

     iteration #  4     ecut=    80.00 Ry     beta= 0.70
     Davidson diagonalization with overlap
     ethr =  1.06E-06,  avg # of iterations =  5.0

     negative rho (up, down):  1.892E-03 0.000E+00

     total cpu time spent up to now is      274.6 secs

     total energy              =   -2246.34946545 Ry
     estimated scf accuracy    <       0.00088496 Ry

     iteration #  5     ecut=    80.00 Ry     beta= 0.70
     Davidson diagonalization with overlap
     ethr =  2.84E-07,  avg # of iterations =  2.0

     negative rho (up, down):  1.900E-03 0.000E+00

     total cpu time spent up to now is      285.1 secs

     total energy              =   -2246.34941590 Ry
     estimated scf accuracy    <       0.00035337 Ry

     iteration #  6     ecut=    80.00 Ry     beta= 0.70
     Davidson diagonalization with overlap
     ethr =  1.13E-07,  avg # of iterations =  4.0

     negative rho (up, down):  1.761E-03 0.000E+00

     total cpu time spent up to now is      295.4 secs

     total energy              =   -2246.34946128 Ry
     estimated scf accuracy    <       0.00001766 Ry

     iteration #  7     ecut=    80.00 Ry     beta= 0.70
     Davidson diagonalization with overlap
     ethr =  5.66E-09,  avg # of iterations =  5.0

     negative rho (up, down):  1.327E-03 0.000E+00

     total cpu time spent up to now is      307.3 secs

     total energy              =   -2246.34946053 Ry
     estimated scf accuracy    <       0.00000826 Ry

     iteration #  8     ecut=    80.00 Ry     beta= 0.70
     Davidson diagonalization with overlap
     ethr =  2.65E-09,  avg # of iterations =  4.0

     negative rho (up, down):  1.056E-03 0.000E+00

     total cpu time spent up to now is      317.7 secs

     total energy              =   -2246.34945977 Ry
     estimated scf accuracy    <       0.00000543 Ry

     iteration #  9     ecut=    80.00 Ry     beta= 0.70
     Davidson diagonalization with overlap
     ethr =  1.74E-09,  avg # of iterations =  4.0

     negative rho (up, down):  6.636E-04 0.000E+00

     total cpu time spent up to now is      327.7 secs

     total energy              =   -2246.34945837 Ry
     estimated scf accuracy    <       0.00000092 Ry

     iteration # 10     ecut=    80.00 Ry     beta= 0.70
     Davidson diagonalization with overlap
     ethr =  2.94E-10,  avg # of iterations =  7.0

     negative rho (up, down):  5.158E-04 0.000E+00

     total cpu time spent up to now is      338.2 secs

     total energy              =   -2246.34945806 Ry
     estimated scf accuracy    <       0.00000057 Ry

     iteration # 11     ecut=    80.00 Ry     beta= 0.70
     Davidson diagonalization with overlap
     ethr =  1.81E-10,  avg # of iterations =  2.0

     negative rho (up, down):  1.973E-04 0.000E+00

     total cpu time spent up to now is      341.5 secs

     End of self-consistent calculation

          k = 0.0000 0.0000 0.0000 (105382 PWs)   bands (ev):

   -63.0801 -63.0203 -63.0120 -62.9890 -62.9734 -62.9357 -62.9212 -62.9128
   -62.8886 -62.8835 -62.8747 -62.8044 -37.3751 -37.3311 -37.3017 -37.2923
   -37.2730 -37.2586 -37.2465 -37.2070 -37.1978 -37.1908 -37.1866 -37.1784
   -37.1735 -37.1555 -37.1451 -37.1356 -37.1264 -37.1101 -37.1067 -37.0929
   -37.0842 -37.0697 -37.0608 -37.0544 -37.0435 -37.0361 -37.0311 -37.0234
   -37.0184 -36.9874 -36.9822 -36.9594 -36.9441 -36.8993 -36.8815 -36.8353
   -21.3218 -16.0658 -15.3151 -15.2386 -15.0809 -15.0324 -14.8605 -14.6225
   -14.6014 -14.5577 -14.5343 -14.5120 -14.4447 -14.4283 -14.3525 -14.2669
   -14.2445 -14.2364 -14.1304 -14.0520 -13.9945 -13.9834 -13.9071 -13.8874
    -7.8444  -7.8155  -7.6537  -7.5439  -7.4678  -7.4212  -7.3346  -7.3293
    -7.2859  -7.0157  -6.9577  -6.9107  -6.8924  -6.8360  -6.7357  -6.6840
    -6.5775  -6.5595  -6.4702  -6.4369  -6.1440  -6.1160  -6.0211  -6.0001
    -5.9484  -5.8861  -5.8734  -5.8267  -5.7937  -5.7466  -5.7208  -5.6465
    -5.6154  -5.5553  -5.4888  -5.4301  -5.2705  -5.2648  -5.1763  -5.1648
    -5.0901  -5.0531  -4.9809  -4.8337  -4.7891  -4.6343  -4.5578  -4.4218
    -4.3813  -4.3495  -4.2747  -4.2256  -4.0720  -4.0060  -3.9636  -3.8812
    -3.8756  -3.8080  -3.7527  -3.7386  -3.6752  -3.6234  -3.6050  -3.5811
    -3.5231  -3.4822  -3.3377  -3.2918  -3.1060  -3.0678  -3.0259  -2.9631
    -2.8934  -2.8635  -2.8513  -2.8294  -2.7575  -2.7009  -2.6591  -2.3948
    -2.3742  -2.1247  -2.0857  -1.9149  -0.9433  -0.8652  -0.6393  -0.2967
    -0.2730  -0.1943  -0.1531  -0.0528   0.0152   0.0984   0.1684   0.1735
     0.1952   0.2558   0.3505   0.3778   0.4153   0.4454   0.4748   0.5106
     0.5697   0.6207   0.6412   0.6834   0.6992   0.7617   0.8429   0.8474
     0.9316   0.9373   1.1324

     the Fermi energy is    -1.4292 ev

!    total energy              =   -2246.34945769 Ry
     estimated scf accuracy    <       0.00000011 Ry
     smearing contrib. (-TS)   =      -0.00000003 Ry
     internal energy E=F+TS    =   -2246.34945766 Ry

     The total energy is F=E-TS. E is the sum of the following terms:
     one-electron contribution =  -18441.67143569 Ry
     hartree contribution      =    9208.42915584 Ry
     xc contribution           =    -392.10968982 Ry
     ewald contribution        =    7388.86530833 Ry
     one-center paw contrib.   =      -9.86279632 Ry

     convergence has been achieved in  11 iterations

     negative rho (up, down):  1.973E-04 0.000E+00

     Forces acting on atoms (cartesian axes, Ry/au):

     atom    1 type  1   force =    -0.03241345    0.00480759   -0.01235389
     atom    2 type  2   force =    -0.05720285   -0.07692111    0.05535914
     atom    3 type  2   force =     0.00570695    0.01613370   -0.01898890
     atom    4 type  1   force =     0.00951116   -0.00156748    0.00197880
     atom    5 type  2   force =     0.00123269   -0.00428701   -0.00502066
     atom    6 type  2   force =    -0.00009828    0.01037241   -0.00192622
     atom    7 type  1   force =     0.00240069   -0.00651007    0.00311833
     atom    8 type  2   force =     0.00010420   -0.00365131    0.00469329
     atom    9 type  2   force =     0.00902123    0.00201913    0.00088737
     atom   10 type  1   force =    -0.02214163   -0.00735997    0.02671186
     atom   11 type  2   force =     0.01242029   -0.00008029   -0.01697522
     atom   12 type  2   force =    -0.01148672   -0.00601307   -0.01312144
     atom   13 type  1   force =     0.00151409   -0.00181293   -0.00389850
     atom   14 type  2   force =     0.00613555    0.00237031    0.00043657
     atom   15 type  2   force =    -0.00598210   -0.00087062   -0.00839350
     atom   16 type  1   force =     0.00242601    0.00297643    0.00068737
     atom   17 type  2   force =     0.00431212    0.00191505    0.00389284
     atom   18 type  2   force =    -0.00071028    0.00154276    0.00642097
     atom   19 type  1   force =     0.00145598   -0.00302795    0.00473960
     atom   20 type  2   force =    -0.00122918   -0.00445685   -0.00846410
     atom   21 type  1   force =    -0.00436312    0.00014203   -0.00391200
     atom   22 type  2   force =     0.00036786   -0.00230721   -0.00320877
     atom   23 type  2   force =     0.00270249   -0.00218053    0.00050778
     atom   24 type  1   force =    -0.01851319   -0.00475482    0.00298737
     atom   25 type  2   force =     0.00668823    0.00560149   -0.00183098
     atom   26 type  2   force =     0.00085656   -0.00145129   -0.00287911
     atom   27 type  1   force =    -0.00051266    0.00278152    0.00253433
     atom   28 type  2   force =     0.00075195    0.00110531    0.00200560
     atom   29 type  2   force =     0.00482696    0.00505455   -0.00223994
     atom   30 type  1   force =     0.00150270   -0.00496112    0.00971260
     atom   31 type  2   force =     0.00116629   -0.00005472    0.00477581
     atom   32 type  2   force =    -0.00379986    0.00263677    0.00383561
     atom   33 type  1   force =    -0.00064916    0.00495124    0.01080195
     atom   34 type  2   force =    -0.00596526   -0.00951595   -0.01939920
     atom   35 type  2   force =     0.01546775   -0.00284654   -0.01921034
     atom   36 type  3   force =     0.07449600    0.08022056   -0.00426441
     The non-local contrib.  to forces
     atom    1 type  1   force =     0.01680633    0.01671342    0.00500948
     atom    2 type  2   force =    -0.12469926   -0.18059257    0.29853690
     atom    3 type  2   force =    -0.00179447   -0.00361923    0.26671663
     atom    4 type  1   force =     0.00107980    0.01168083    0.00322982
     atom    5 type  2   force =     0.00900212   -0.03614457   -0.25735725
     atom    6 type  2   force =    -0.00026250    0.01069336    0.26189341
     atom    7 type  1   force =    -0.02327796    0.00940899   -0.02414190
     atom    8 type  2   force =     0.00559519   -0.00578817   -0.26336609
     atom    9 type  2   force =     0.00502773   -0.01223463    0.27251226
     atom   10 type  1   force =     0.01101935    0.01150291    0.02549855
     atom   11 type  2   force =    -0.00058980   -0.00046292   -0.26318914
     atom   12 type  2   force =    -0.01514558   -0.01943446    0.25542363
     atom   13 type  1   force =     0.00468310    0.02478650   -0.00141246
     atom   14 type  2   force =    -0.00452633    0.00037771   -0.27786204
     atom   15 type  2   force =    -0.00731607   -0.00472077    0.25375115
     atom   16 type  1   force =    -0.00138539    0.03144116   -0.03143095
     atom   17 type  2   force =     0.00200220   -0.02760963   -0.25459013
     atom   18 type  2   force =    -0.00089056    0.00069202    0.27104870
     atom   19 type  1   force =     0.01251461    0.00482279   -0.01894962
     atom   20 type  2   force =    -0.00462825   -0.02135054    0.26030214
     atom   21 type  1   force =    -0.00034040    0.02578168    0.00365452
     atom   22 type  2   force =    -0.00550377    0.00316398   -0.26285452
[...]
     atom   28 type  2   force =     0.00006389   -0.01335030   -0.27780003
     atom   29 type  2   force =    -0.00039871   -0.00863148    0.26679058
     atom   30 type  1   force =     0.00482784    0.01784119    0.00410687
     atom   31 type  2   force =    -0.00981984    0.00014332   -0.26794228
     atom   32 type  2   force =     0.00749986   -0.01285461    0.26920357
     atom   33 type  1   force =    -0.00301174    0.00640473    0.00259936
     atom   34 type  2   force =    -0.00167594   -0.00657842   -0.27899248
     atom   35 type  2   force =    -0.00106050   -0.01260130    0.26545985
     atom   36 type  3   force =    -0.00034667    0.00286709   -2.31845938
     The ionic contribution  to forces
     atom    1 type  1   force =    -1.08536679    1.25048756   -1.45736358
     atom    2 type  2   force =    -0.18376730   -0.02742705   28.63317818
     atom    3 type  2   force =     0.06068668   -0.08186858  -38.14232183
     atom    4 type  1   force =    -0.14458392    1.23579764   -0.76342576
     atom    5 type  2   force =    -1.31610237    2.13768202   37.79890151
     atom    6 type  2   force =     0.17533452   -0.16620086  -38.77090106
     atom    7 type  1   force =    -2.78038899   -2.35690588    1.43520027
     atom    8 type  2   force =    -1.18571712    0.16976658   37.91284377
     atom    9 type  2   force =     0.35018425   -0.00989588  -38.30081724
     atom   10 type  1   force =    -0.43656768   -1.56450178   -1.18416497
     atom   11 type  2   force =    -1.00840008   -2.31115088   37.88475049
     atom   12 type  2   force =     0.13374742    0.22274573  -38.75830590
     atom   13 type  1   force =     0.12816026    1.04315584    1.30929563
     atom   14 type  2   force =    -0.99305083   -0.14965813   37.87872031
     atom   15 type  2   force =    -0.06409634   -0.11738686  -38.33314347
     atom   16 type  1   force =    -0.38065116    3.85775827    1.09260478
     atom   17 type  2   force =     0.81374354    1.43690442   38.05586869
     atom   18 type  2   force =    -0.20142405   -0.23199479  -38.36719224
     atom   19 type  1   force =     2.62858378   -2.00507294    1.98320755
     atom   20 type  2   force =    -0.06441166   -0.04463769  -39.12121946
     atom   21 type  1   force =    -0.57022947   -0.82453367   -0.66001922
     atom   22 type  2   force =     0.45304427   -1.68254645   38.21297478
     atom   23 type  2   force =    -0.22241995    0.18899641  -38.36260242
     atom   24 type  1   force =     0.98384419    0.95131636   -1.77898408
     atom   25 type  2   force =     1.15568163   -0.00686070   38.14967979
     atom   26 type  2   force =    -0.01170878   -0.09234122  -38.30770936
     atom   27 type  1   force =     0.54442987    0.85336567   -0.18468661
     atom   28 type  2   force =     0.50022034    1.51202346   37.62712675
     atom   29 type  2   force =     0.01795559    0.07539490  -38.42517463
     atom   30 type  1   force =     0.18646276   -1.16108576    1.24054176
     atom   31 type  2   force =     1.28894420    0.16488786   38.14446074
     atom   32 type  2   force =    -0.28596307   -0.01355230  -38.29121598
     atom   33 type  1   force =     1.00435358   -0.97160901    1.39562807
     atom   34 type  2   force =     0.57750815   -1.42562078   38.27396983
     atom   35 type  2   force =     0.09091633    0.06043788  -38.29460968
     atom   36 type  3   force =    -0.15895181    0.08413059   50.47490458
     The local contribution  to forces
     atom    1 type  1   force =     1.07865481   -1.26258001    1.44568125
     atom    2 type  2   force =     0.17828950    0.02275934  -28.91888204
     atom    3 type  2   force =    -0.05845133    0.09230544   37.88478291
     atom    4 type  1   force =     0.13978894   -1.23913928    0.76068574
     atom    5 type  2   force =     1.31172580   -2.11705128  -37.56146361
     atom    6 type  2   force =    -0.17508900    0.16828448   38.52628955
     atom    7 type  1   force =     2.79956273    2.35658836   -1.40847598
     atom    8 type  2   force =     1.17873684   -0.17041526  -37.66580886
     atom    9 type  2   force =    -0.34364335    0.02265799   38.05055841
     atom   10 type  1   force =     0.43599614    1.54801848    1.16585285
     atom   11 type  2   force =     1.00206759    2.31032734  -37.64262073
     atom   12 type  2   force =    -0.12634919   -0.20979817   38.51517387
     atom   13 type  1   force =    -0.12998227   -1.06778818   -1.31154873
     atom   14 type  2   force =     0.99323747    0.15366636  -37.62581641
     atom   15 type  2   force =     0.06438486    0.12744036   38.09346649
     atom   16 type  1   force =     0.38101680   -3.89218614   -1.05803493
     atom   17 type  2   force =    -0.80944692   -1.41361545  -37.81807875
     atom   18 type  2   force =     0.20152216    0.23771827   38.11973554
     atom   19 type  1   force =    -2.64345985    2.00098687   -1.95745028
     atom   20 type  2   force =     0.06438655    0.05689046   38.87997027
     atom   21 type  1   force =     0.56996143    0.79528461    0.65730720
     atom   22 type  2   force =    -0.44789236    1.68184001  -37.97145236
     atom   23 type  2   force =     0.21444760   -0.17624626   38.11743765
     atom   24 type  1   force =    -0.97529893   -0.95898959    1.75929306
     atom   25 type  2   force =    -1.15645266    0.01341256  -37.89841666
     atom   26 type  2   force =     0.00832359    0.10194693   38.06457912
     atom   27 type  1   force =    -0.54085472   -0.86021880    0.17894475
     atom   28 type  2   force =    -0.50012375   -1.49951006  -37.37113563
     atom   29 type  2   force =    -0.01804345   -0.06788836   38.17929531
     atom   30 type  1   force =    -0.19135323    1.14360002   -1.24457600
     atom   31 type  2   force =    -1.28013144   -0.16582615  -37.89783240
     atom   32 type  2   force =     0.27955854    0.02546828   38.04312562
     atom   33 type  1   force =    -1.00063465    0.96523204   -1.39818122
     atom   34 type  2   force =    -0.57575206    1.43217384  -38.01678099
     atom   35 type  2   force =    -0.09017092   -0.04775282   38.05052937
     atom   36 type  3   force =     0.16014290   -0.08596108  -48.18328097
     The core correction contribution to forces
     atom    1 type  1   force =     0.00000000    0.00000000    0.00000000
     atom    2 type  2   force =    -0.00022374   -0.00016697   -0.00988771
     atom    3 type  2   force =     0.00016741    0.00045666   -0.02134408
     atom    4 type  1   force =     0.00000000    0.00000000    0.00000000
     atom    5 type  2   force =    -0.00037282    0.00094983    0.02069539
     atom    6 type  2   force =     0.00017081   -0.00028288   -0.02082812
     atom    7 type  1   force =     0.00000000    0.00000000    0.00000000
     atom    8 type  2   force =    -0.00041851    0.00027840    0.02095725
     atom    9 type  2   force =     0.00069891    0.00073554   -0.02102733
     atom   10 type  1   force =     0.00000000    0.00000000    0.00000000
     atom   11 type  2   force =    -0.00017259   -0.00023926    0.02092878
     atom   12 type  2   force =     0.00059928    0.00100255   -0.02087021
     atom   13 type  1   force =     0.00000000    0.00000000    0.00000000
     atom   14 type  2   force =     0.00008899   -0.00018234    0.02139753
     atom   15 type  2   force =     0.00009380    0.00045697   -0.02058032
     atom   16 type  1   force =     0.00000000    0.00000000    0.00000000
     atom   17 type  2   force =     0.00040784    0.00104227    0.02058300
     atom   18 type  2   force =    -0.00016242   -0.00020240   -0.02090074
     atom   19 type  1   force =     0.00000000    0.00000000    0.00000000
     atom   20 type  2   force =     0.00001981    0.00054765   -0.02122016
     atom   21 type  1   force =     0.00000000    0.00000000    0.00000000
     atom   22 type  2   force =     0.00008665   -0.00027810    0.02074330
     atom   23 type  2   force =    -0.00069475    0.00091710   -0.02090421
     atom   24 type  1   force =     0.00000000    0.00000000    0.00000000
     atom   25 type  2   force =    -0.00007144    0.00020714    0.02131952
     atom   26 type  2   force =    -0.00017749    0.00037241   -0.02077090
     atom   27 type  1   force =     0.00000000    0.00000000    0.00000000
     atom   28 type  2   force =    -0.00004739    0.00085971    0.02147480
     atom   29 type  2   force =    -0.00002219    0.00031401   -0.02081485
     atom   30 type  1   force =     0.00000000    0.00000000    0.00000000
     atom   31 type  2   force =     0.00048956    0.00026616    0.02100726
     atom   32 type  2   force =    -0.00068291    0.00067912   -0.02100563
     atom   33 type  1   force =     0.00000000    0.00000000    0.00000000
     atom   34 type  2   force =     0.00009551    0.00029457    0.02162014
     atom   35 type  2   force =     0.00008981    0.00074101   -0.02091094
     atom   36 type  3   force =    -0.00000116   -0.00005259    0.02460719
     The Hubbard contrib.    to forces
     atom    1 type  1   force =     0.00000000    0.00000000    0.00000000
     atom    2 type  2   force =     0.00000000    0.00000000    0.00000000
     atom    3 type  2   force =     0.00000000    0.00000000    0.00000000
     atom    4 type  1   force =     0.00000000    0.00000000    0.00000000
     atom    5 type  2   force =     0.00000000    0.00000000    0.00000000
     atom    6 type  2   force =     0.00000000    0.00000000    0.00000000
     atom    7 type  1   force =     0.00000000    0.00000000    0.00000000
     atom    8 type  2   force =     0.00000000    0.00000000    0.00000000
     atom    9 type  2   force =     0.00000000    0.00000000    0.00000000
     atom   10 type  1   force =     0.00000000    0.00000000    0.00000000
     atom   11 type  2   force =     0.00000000    0.00000000    0.00000000
     atom   12 type  2   force =     0.00000000    0.00000000    0.00000000
     atom   13 type  1   force =     0.00000000    0.00000000    0.00000000
     atom   14 type  2   force =     0.00000000    0.00000000    0.00000000
     atom   15 type  2   force =     0.00000000    0.00000000    0.00000000
     atom   16 type  1   force =     0.00000000    0.00000000    0.00000000
     atom   17 type  2   force =     0.00000000    0.00000000    0.00000000
     atom   18 type  2   force =     0.00000000    0.00000000    0.00000000
     atom   19 type  1   force =     0.00000000    0.00000000    0.00000000
     atom   20 type  2   force =     0.00000000    0.00000000    0.00000000
     atom   21 type  1   force =     0.00000000    0.00000000    0.00000000
     atom   22 type  2   force =     0.00000000    0.00000000    0.00000000
     atom   23 type  2   force =     0.00000000    0.00000000    0.00000000
     atom   24 type  1   force =     0.00000000    0.00000000    0.00000000
     atom   25 type  2   force =     0.00000000    0.00000000    0.00000000
     atom   26 type  2   force =     0.00000000    0.00000000    0.00000000
     atom   27 type  1   force =     0.00000000    0.00000000    0.00000000
     atom   28 type  2   force =     0.00000000    0.00000000    0.00000000
     atom   29 type  2   force =     0.00000000    0.00000000    0.00000000
     atom   30 type  1   force =     0.00000000    0.00000000    0.00000000
     atom   31 type  2   force =     0.00000000    0.00000000    0.00000000
     atom   32 type  2   force =     0.00000000    0.00000000    0.00000000
     atom   33 type  1   force =     0.00000000    0.00000000    0.00000000
     atom   34 type  2   force =     0.00000000    0.00000000    0.00000000
     atom   35 type  2   force =     0.00000000    0.00000000    0.00000000
     atom   36 type  3   force =     0.00000000    0.00000000    0.00000000
     The SCF correction term to forces
     atom    1 type  1   force =     0.00000341   -0.00001467    0.00009797
     atom    2 type  2   force =    -0.00001631   -0.00001287    0.00005162
     atom    3 type  2   force =    -0.00000247   -0.00000891    0.00002627
     atom    4 type  1   force =    -0.00000395   -0.00000618    0.00007001
     atom    5 type  2   force =    -0.00000032   -0.00001391    0.00003768
     atom    6 type  2   force =    -0.00000011    0.00000100    0.00001810
     atom    7 type  1   force =     0.00000329    0.00001998    0.00004428
     atom    8 type  2   force =     0.00000738    0.00000109    0.00003593
     atom    9 type  2   force =     0.00000223    0.00000283    0.00000448
     atom   10 type  1   force =    -0.00002180    0.00000467    0.00007847
     atom   11 type  2   force =     0.00000764    0.00002148    0.00004547
     atom   12 type  2   force =     0.00001034    0.00000948    0.00000643
     atom   13 type  1   force =     0.00001266   -0.00001540    0.00009295
     atom   14 type  2   force =     0.00000750    0.00000037    0.00004132
     atom   15 type  2   force =     0.00000054   -0.00000661    0.00002528
     atom   16 type  1   force =    -0.00000061   -0.00000666    0.00007486
     atom   17 type  2   force =     0.00000077   -0.00000733    0.00003625
     atom   18 type  2   force =    -0.00000047    0.00000144    0.00001924
     atom   19 type  1   force =    -0.00002753    0.00001105    0.00005568
     atom   20 type  2   force =    -0.00000259    0.00000543   -0.00000252
     atom   21 type  1   force =     0.00001709    0.00001192    0.00008088
     atom   22 type  2   force =    -0.00000570    0.00001088    0.00003103
     atom   23 type  2   force =    -0.00000296   -0.00000489    0.00001285
     atom   24 type  1   force =    -0.00001288   -0.00002216    0.00009295
     atom   25 type  2   force =    -0.00000668   -0.00000205    0.00003165
     atom   26 type  2   force =     0.00000031   -0.00000394    0.00002765
     atom   27 type  1   force =    -0.00000215   -0.00000299    0.00006740
     atom   28 type  2   force =    -0.00000055   -0.00001301    0.00002970
     atom   29 type  2   force =     0.00000374    0.00000330    0.00002443
     atom   30 type  1   force =    -0.00000266    0.00001453    0.00005969
     atom   31 type  2   force =     0.00000284   -0.00000034    0.00002990
     atom   32 type  2   force =     0.00000638    0.00000581    0.00001287
     atom   33 type  1   force =    -0.00000402    0.00000127    0.00007707
     atom   34 type  2   force =    -0.00000365    0.00001348    0.00003328
     atom   35 type  2   force =    -0.00000549    0.00000274    0.00002189
     atom   36 type  3   force =    -0.00004475   -0.00004288    0.00003720

     Total force =     0.006523     Total SCF correction =     0.000317
     Energy error            =      8.5E-05 Ry
     Gradient error          =      2.6E-03 Ry/Bohr

     bfgs converged in  22 scf cycles and  21 bfgs steps
     (criteria: energy <  1.0E-04 Ry, force <  1.0E-02 Ry/Bohr)

     End of BFGS Geometry Optimization

     Final energy             =   -2246.4498445783 Ry

     File ./MoS2-V-O.bfgs deleted, as requested
Begin final coordinates

ATOMIC_POSITIONS (angstrom)
Mo            6.5191457991        1.7553168196        2.7453887321
S             8.1141986676        0.8269968030        4.2672157921
S             8.1237406946        0.8240333887        1.1848543525
Mo            8.1006718307        4.4717873262        2.7151935978
S             6.4965061635        3.6466078303        4.3160963600
S             6.5282676433        3.5587408729        1.1044758277
Mo            6.4895881511        7.1627852246        2.6647473365
S             8.0576617959        6.2834141744        4.3012886244
S             8.1211874720        6.3059564922        1.1162057002
Mo            8.1163480827        9.8833769581        2.7522253213
S             6.4982337693        8.9223134737        4.3195940004
S             6.5564630706        8.9990427096        1.1099064383
Mo            3.4075204862        1.7215242700        2.7596501564
S             4.9817636819        0.7917315206        4.3430868386
S             4.9690608037        0.8121984348        1.1579372456
Mo            4.9723305101        4.5205937455        2.6605123984
S             3.4444542728        3.6365087267        4.3121599459
S             3.4127163480        3.5368049122        1.1196822848
Mo            3.4537636808        7.1581234751        2.6709481731
S             4.9710667421        6.2899433197        1.0424985129
Mo            4.9746236554        9.8847499076        2.7228095730
S             3.4468952134        8.9280830368        4.3207463658
S             3.3759874248        9.0034376850        1.1258912978
Mo            0.2705459898        1.7455556794        2.7518395514
S             1.8309102675        0.8273806672        4.3652643089
S             1.8396258125        0.8120011110        1.1651486910
Mo            1.8440326891        4.4755939087        2.7177199647
S             0.2452128415        3.5899661151        4.3253940302
S             0.2496509880        3.5603750145        1.1372060352
Mo            0.2510671995        7.1955156230        2.7418162528
S             1.8911454104        6.2837820493        4.3094594403
S             1.8310824393        6.3032732175        1.1187554042
Mo            1.8267833030        9.9133687079        2.7667214813
S             0.2416149013        9.0029683482        4.3660466092
S             0.2578263027        9.0141269771        1.1603283027
O             8.1159106859       11.7618678843        5.7675078724
End final coordinates



     Writing all to output data dir ./MoS2-V-O.save/
 
     init_run     :      4.63s CPU      5.13s WALL (       1 calls)
     electrons    :   2035.32s CPU   2301.40s WALL (      22 calls)
     update_pot   :     63.85s CPU     68.04s WALL (      21 calls)
     forces       :     60.17s CPU     68.25s WALL (      22 calls)

     Called by init_run:
     wfcinit      :      0.47s CPU      0.53s WALL (       1 calls)
     potinit      :      2.41s CPU      2.65s WALL (       1 calls)
     hinit0       :      0.43s CPU      0.46s WALL (       1 calls)

     Called by electrons:
     c_bands      :    295.49s CPU    302.62s WALL (     207 calls)
     sum_band     :    116.01s CPU    148.62s WALL (     207 calls)
     v_of_rho     :    193.12s CPU    234.29s WALL (     222 calls)
     newd         :     66.03s CPU     97.27s WALL (     222 calls)
     PAW_pot      :      8.80s CPU      8.83s WALL (     243 calls)
     mix_rho      :   1377.42s CPU   1533.08s WALL (     207 calls)

     Called by c_bands:
     init_us_2    :      4.76s CPU      5.11s WALL (     436 calls)
     init_us_2:cp :      4.75s CPU      5.11s WALL (     436 calls)
     regterg      :    279.94s CPU    286.71s WALL (     207 calls)

     Called by *egterg:
     rdiaghg      :     19.42s CPU     19.65s WALL (    1094 calls)
     h_psi        :    182.02s CPU    183.72s WALL (    1123 calls)
     s_psi        :     17.30s CPU     17.35s WALL (    1123 calls)
     g_psi        :      0.90s CPU      0.91s WALL (     915 calls)

     Called by h_psi:
     h_psi:calbec :     19.27s CPU     19.40s WALL (    1123 calls)
     vloc_psi     :    143.44s CPU    144.90s WALL (    1123 calls)
     add_vuspsi   :     17.00s CPU     17.09s WALL (    1123 calls)

     General routines
     calbec       :     27.97s CPU     28.15s WALL (    1439 calls)
     fft          :    131.60s CPU    152.43s WALL (   14824 calls)
     ffts         :    615.52s CPU    765.87s WALL (  337465 calls)
     fftw         :     90.90s CPU     91.74s WALL (  126780 calls)
     interpolate  :      2.73s CPU      3.15s WALL (     222 calls)
 
     Parallel routines
 
     PWSCF        :  36m13.20s CPU  40m56.49s WALL

 
   This run was terminated on:   0:10:13   2Nov2023            

=------------------------------------------------------------------------------=
   JOB DONE.
=------------------------------------------------------------------------------=
