
     Program PWSCF v.7.2 starts on  1Nov2023 at 17:54:57 

     This program is part of the open-source Quantum ESPRESSO suite
     for quantum simulation of materials; please cite
         "P. Giannozzi et al., J. Phys.:Condens. Matter 21 395502 (2009);
         "P. Giannozzi et al., J. Phys.:Condens. Matter 29 465901 (2017);
         "P. Giannozzi et al., J. Chem. Phys. 152 154105 (2020);
          URL http://www.quantum-espresso.org", 
     in publications or presentations arising from this work. More details at
     http://www.quantum-espresso.org/quote

     Parallel version (MPI & OpenMP), running on      48 processor cores
     Number of MPI processes:                48
     Threads/MPI process:                     1

     MPI processes distributed on     1 nodes
     76657 MiB available memory on the printing compute node when the environment starts
 
     Waiting for input...
     Reading input from standard input
Warning: card &CELL ignored
Warning: card CELL_DYNAMICS = 'BFGS', ignored
Warning: card CELL_DOFREE = '2DXY' ignored
Warning: card / ignored

     Current dimensions of program PWSCF are:
     Max number of different atomic species (ntypx) = 10
     Max number of k-points (npk) =  40000
     Max angular momentum in pseudopotentials (lmaxx) =  4
     file O.pbe-n-kjpaw_psl.0.1.UPF: wavefunction(s)  2P renormalized

     IMPORTANT: XC functional enforced from input :
     Exchange-correlation= RVV10
                           (   1   4  13   4  26   0   0)
     Any further DFT definition will be discarded
     Please, verify this is what you really want


     gamma-point specific algorithms are used
     signal trapping enabled: kill the code with -SIGUSR1 to stop cleanly the simulation 
 
     R & G space division:  proc/nbgrp/npool/nimage =      48
     Subspace diagonalization in iterative solution of the eigenvalue problem:
     one sub-group per band group will be used
     scalapack distributed-memory algorithm (size of sub-group:  2*  2 procs)

 
     Parallelization info
     --------------------
     sticks:   dense  smooth     PW     G-vecs:    dense   smooth      PW
     Min         396     194     47               101632    35090    4376
     Max         398     196     50               101674    35128    4410
     Sum       19091    9389   2349              4879585  1685513  210763
 
     Using Slab Decomposition
 


     bravais-lattice index     =            0
     lattice parameter (alat)  =      17.8707  a.u.
     unit-cell volume          =   17436.2743 (a.u.)^3
     number of atoms/cell      =           36
     number of atomic types    =            3
     number of electrons       =       312.00
     number of Kohn-Sham states=          187
     kinetic-energy cutoff     =      80.0000  Ry
     charge density cutoff     =     650.0000  Ry
     scf convergence threshold =      1.0E-06
     mixing beta               =       0.7000
     number of iterations used =            8  local-TF  mixing
     energy convergence thresh.=      1.0E-04
     force convergence thresh. =      1.0E-02
     Exchange-correlation= RVV10
                           (   1   4  13   4  26   0   0)
     nstep                     =          200


     celldm(1)=  17.870686  celldm(2)=   0.000000  celldm(3)=   0.000000
     celldm(4)=   0.000000  celldm(5)=   0.000000  celldm(6)=   0.000000

     crystal axes: (cart. coord. in units of alat)
               a(1) = (   1.000000   0.000000   0.000000 )  
               a(2) = (   0.000000   1.155671   0.000000 )  
               a(3) = (   0.000000   0.000000   2.643601 )  

     reciprocal axes: (cart. coord. in units 2 pi/alat)
               b(1) = (  1.000000  0.000000  0.000000 )  
               b(2) = (  0.000000  0.865298  0.000000 )  
               b(3) = (  0.000000  0.000000  0.378272 )  


     PseudoPot. # 1 for Mo read from file:
     ../pseudo/Mo_ONCV_PBE-1.0.oncvpsp.upf
     MD5 check sum: 1b5d28e075c9ccadda658a603575cd1f
     Pseudo is Norm-conserving, Zval = 14.0
     Generated using ONCVPSP code by D. R. Hamann
     Using radial grid of 1526 points,  6 beta functions with: 
                l(1) =   0
                l(2) =   0
                l(3) =   1
                l(4) =   1
                l(5) =   2
                l(6) =   2

     PseudoPot. # 2 for S  read from file:
     ../pseudo/s_pbe_v1.4.uspp.F.UPF
     MD5 check sum: 88d86576ff6df21479756cfb9bdac1df
     Pseudo is Ultrasoft + core correction, Zval =  6.0
     Generated by new atomic code, or converted to UPF format
     Using radial grid of  907 points,  6 beta functions with: 
                l(1) =   0
                l(2) =   0
                l(3) =   1
                l(4) =   1
                l(5) =   2
                l(6) =   2
     Q(r) pseudized with  8 coefficients,  rinner =    1.300   1.300   1.300
                                                       1.300   1.300

     PseudoPot. # 3 for O  read from file:
     ../pseudo/O.pbe-n-kjpaw_psl.0.1.UPF
     MD5 check sum: 0234752ac141de4415c5fc33072bef88
     Pseudo is Projector augmented-wave + core cor, Zval =  6.0
     Generated using "atomic" code by A. Dal Corso  v.5.0.99 svn rev. 10869
     Shape of augmentation charge: BESSEL
     Using radial grid of 1095 points,  4 beta functions with: 
                l(1) =   0
                l(2) =   0
                l(3) =   1
                l(4) =   1
     Q(r) pseudized with 0 coefficients 


     atomic species   valence    mass     pseudopotential
        Mo            14.00    95.94000     Mo( 1.00)
        S              6.00    32.06500     S ( 1.00)
        O              6.00    15.99940     O ( 1.00)

     No symmetry found



   Cartesian axes

     site n.     atom                  positions (alat units)
         1           Mo  tau(   1) = (   0.6952221   0.1890506   0.2985846  )
         2           S   tau(   2) = (   0.8646417   0.0856217   0.4689279  )
         3           S   tau(   3) = (   0.8663890   0.0857843   0.1351291  )
         4           Mo  tau(   4) = (   0.8560186   0.4753274   0.2873942  )
         5           S   tau(   5) = (   0.6873294   0.3936244   0.4596353  )
         6           S   tau(   6) = (   0.6929804   0.3713468   0.1185692  )
         7           Mo  tau(   7) = (   0.6862796   0.7633098   0.2825370  )
         8           S   tau(   8) = (   0.8545980   0.6708292   0.4486168  )
         9           S   tau(   9) = (   0.8545123   0.6666874   0.1146125  )
        10           Mo  tau(  10) = (   0.8629403   1.0471007   0.3006803  )
        11           S   tau(  11) = (   0.6868280   0.9456650   0.4634891  )
        12           S   tau(  12) = (   0.6998113   0.9568511   0.1205389  )
        13           Mo  tau(  13) = (   0.3618216   0.1847309   0.2935964  )
        14           S   tau(  14) = (   0.5260962   0.0863870   0.4600448  )
        15           S   tau(  15) = (   0.5348379   0.0894875   0.1297123  )
        16           Mo  tau(  16) = (   0.5265817   0.4772436   0.2784130  )
        17           S   tau(  17) = (   0.3624753   0.3882513   0.4525556  )
        18           S   tau(  18) = (   0.3635411   0.3752055   0.1119148  )
        19           Mo  tau(  19) = (   0.3652268   0.7630864   0.2781795  )
        20           S   tau(  20) = (   0.5269494   0.6690381   0.1096838  )
        21           Mo  tau(  21) = (   0.5300192   1.0470394   0.2900995  )
        22           S   tau(  22) = (   0.3670346   0.9457522   0.4574073  )
        23           S   tau(  23) = (   0.3604225   0.9585725   0.1159032  )
        24           Mo  tau(  24) = (   0.0313099   0.1847895   0.3013130  )
        25           S   tau(  25) = (   0.1956761   0.0838230   0.4650863  )
        26           S   tau(  26) = (   0.1967693   0.0903508   0.1278874  )
        27           Mo  tau(  27) = (   0.1967578   0.4753919   0.2813011  )
        28           S   tau(  28) = (   0.0287851   0.3864324   0.4586755  )
        29           S   tau(  29) = (   0.0244514   0.3729871   0.1239344  )
        30           Mo  tau(  30) = (   0.0286728   0.7631204   0.2856894  )
        31           S   tau(  31) = (   0.2011512   0.6675435   0.4465001  )
        32           S   tau(  32) = (   0.1969214   0.6672839   0.1104564  )
        33           Mo  tau(  33) = (   0.1950294   1.0511147   0.2932237  )
        34           S   tau(  34) = (   0.0312912   0.9612169   0.4667423  )
        35           S   tau(  35) = (   0.0292670   0.9563028   0.1216485  )
        36           O   tau(  36) = (   0.4444444   0.6420393   0.5792558  )

     number of k points=     1  Gaussian smearing, width (Ry)=  0.0100
                       cart. coord. in units 2pi/alat
        k(    1) = (   0.0000000   0.0000000   0.0000000), wk =   2.0000000

     Dense  grid:  2439793 G-vectors     FFT dimensions: ( 150, 180, 384)

     Smooth grid:   842757 G-vectors     FFT dimensions: ( 108, 120, 270)

     Estimated max dynamical RAM per process >     269.22 MB

     Estimated total dynamical RAM >      12.62 GB

     Initial potential from superposition of free atoms

     starting charge     311.9873, renormalised to     312.0000

     negative rho (up, down):  2.746E-04 0.000E+00


---------------------------------------------------------------------------------
Carrying out rVV10 run using the following parameters:
Nqs =      20    Nr_points =    1024   r_max =   100.000
b_value =  6.30000    beta =  0.00901
     q_mesh =  0.00010000  0.00030000  0.00058939  0.00100810
               0.00161396  0.00249058  0.00375900  0.00559430
               0.00824984  0.01209221  0.01765183  0.02569619
               0.03733578  0.05417739  0.07854596  0.11380545
               0.16482331  0.23864234  0.34545298  0.50000000

Gradients computed in Reciprocal space

---------------------------------------------------------------------------------


     Starting wfcs are  216 randomized atomic wfcs
     Checking if some PAW data can be deallocated... 

     total cpu time spent up to now is        5.4 secs

     Self-consistent Calculation

     iteration #  1     ecut=    80.00 Ry     beta= 0.70
     Davidson diagonalization with overlap
     ethr =  1.00E-02,  avg # of iterations =  2.0

     Threshold (ethr) on eigenvalues was too large:
     Diagonalizing with lowered threshold

     Davidson diagonalization with overlap
     ethr =  7.47E-04,  avg # of iterations =  2.0

     negative rho (up, down):  4.355E-04 0.000E+00

     total cpu time spent up to now is       19.7 secs

     total energy              =   -2245.92249880 Ry
     estimated scf accuracy    <       2.49277088 Ry

     iteration #  2     ecut=    80.00 Ry     beta= 0.70
     Davidson diagonalization with overlap
     ethr =  7.99E-04,  avg # of iterations =  2.0

     negative rho (up, down):  6.650E-06 0.000E+00

     total cpu time spent up to now is       29.7 secs

     total energy              =   -2245.76715409 Ry
     estimated scf accuracy    <      12.38746614 Ry

     iteration #  3     ecut=    80.00 Ry     beta= 0.70
     Davidson diagonalization with overlap
     ethr =  7.99E-04,  avg # of iterations =  2.0

     total cpu time spent up to now is       34.1 secs

     total energy              =   -2246.14886668 Ry
     estimated scf accuracy    <       0.68681279 Ry

     iteration #  4     ecut=    80.00 Ry     beta= 0.70
     Davidson diagonalization with overlap
     ethr =  2.20E-04,  avg # of iterations =  2.0

     total cpu time spent up to now is       38.0 secs

     total energy              =   -2246.19746741 Ry
     estimated scf accuracy    <       0.07383874 Ry

     iteration #  5     ecut=    80.00 Ry     beta= 0.70
     Davidson diagonalization with overlap
     ethr =  2.37E-05,  avg # of iterations = 18.0

     total cpu time spent up to now is       43.0 secs

     total energy              =   -2246.20536837 Ry
     estimated scf accuracy    <       0.03109661 Ry

     iteration #  6     ecut=    80.00 Ry     beta= 0.70
     Davidson diagonalization with overlap
     ethr =  9.97E-06,  avg # of iterations =  2.0

     total cpu time spent up to now is       46.7 secs

     total energy              =   -2246.20576597 Ry
     estimated scf accuracy    <       0.02831384 Ry

     iteration #  7     ecut=    80.00 Ry     beta= 0.70
     Davidson diagonalization with overlap
     ethr =  9.07E-06,  avg # of iterations =  1.0

     total cpu time spent up to now is       50.3 secs

     total energy              =   -2246.20563095 Ry
     estimated scf accuracy    <       0.00910199 Ry

     iteration #  8     ecut=    80.00 Ry     beta= 0.70
     Davidson diagonalization with overlap
     ethr =  2.92E-06,  avg # of iterations =  2.0

     total cpu time spent up to now is       54.0 secs

     total energy              =   -2246.20488834 Ry
     estimated scf accuracy    <       0.00719641 Ry

     iteration #  9     ecut=    80.00 Ry     beta= 0.70
     Davidson diagonalization with overlap
     ethr =  2.31E-06,  avg # of iterations =  2.0

     negative rho (up, down):  2.729E-03 0.000E+00

     total cpu time spent up to now is       60.6 secs

     total energy              =   -2246.20380696 Ry
     estimated scf accuracy    <       0.00659926 Ry

     iteration # 10     ecut=    80.00 Ry     beta= 0.70
     Davidson diagonalization with overlap
     ethr =  2.12E-06,  avg # of iterations =  2.0

     negative rho (up, down):  1.352E-02 0.000E+00

     total cpu time spent up to now is       67.3 secs

     total energy              =   -2246.20369163 Ry
     estimated scf accuracy    <       0.00225343 Ry

     iteration # 11     ecut=    80.00 Ry     beta= 0.70
     Davidson diagonalization with overlap
     ethr =  7.22E-07,  avg # of iterations =  2.0

     negative rho (up, down):  1.215E-02 0.000E+00

     total cpu time spent up to now is       73.8 secs

     total energy              =   -2246.20359404 Ry
     estimated scf accuracy    <       0.00188123 Ry

     iteration # 12     ecut=    80.00 Ry     beta= 0.70
     Davidson diagonalization with overlap
     ethr =  6.03E-07,  avg # of iterations =  1.0

     negative rho (up, down):  1.026E-02 0.000E+00

     total cpu time spent up to now is       81.1 secs

     total energy              =   -2246.20364135 Ry
     estimated scf accuracy    <       0.00063561 Ry

     iteration # 13     ecut=    80.00 Ry     beta= 0.70
     Davidson diagonalization with overlap
     ethr =  2.04E-07,  avg # of iterations =  2.0

     negative rho (up, down):  7.716E-03 0.000E+00

     total cpu time spent up to now is       90.8 secs

     total energy              =   -2246.20365102 Ry
     estimated scf accuracy    <       0.00020380 Ry

     iteration # 14     ecut=    80.00 Ry     beta= 0.70
     Davidson diagonalization with overlap
     ethr =  6.53E-08,  avg # of iterations =  4.0

     negative rho (up, down):  4.035E-03 0.000E+00

     total cpu time spent up to now is       99.3 secs

     total energy              =   -2246.20373845 Ry
     estimated scf accuracy    <       0.00007301 Ry

     iteration # 15     ecut=    80.00 Ry     beta= 0.70
     Davidson diagonalization with overlap
     ethr =  2.34E-08,  avg # of iterations =  2.0

     negative rho (up, down):  1.423E-03 0.000E+00

     total cpu time spent up to now is      107.9 secs

     total energy              =   -2246.20374261 Ry
     estimated scf accuracy    <       0.00002352 Ry

     iteration # 16     ecut=    80.00 Ry     beta= 0.70
     Davidson diagonalization with overlap
     ethr =  7.54E-09,  avg # of iterations =  5.0

     negative rho (up, down):  1.362E-03 0.000E+00

     total cpu time spent up to now is      117.7 secs

     total energy              =   -2246.20375505 Ry
     estimated scf accuracy    <       0.00001026 Ry

     iteration # 17     ecut=    80.00 Ry     beta= 0.70
     Davidson diagonalization with overlap
     ethr =  3.29E-09,  avg # of iterations =  2.0

     negative rho (up, down):  7.887E-04 0.000E+00

     total cpu time spent up to now is      127.7 secs

     total energy              =   -2246.20376099 Ry
     estimated scf accuracy    <       0.00000499 Ry

     iteration # 18     ecut=    80.00 Ry     beta= 0.70
     Davidson diagonalization with overlap
     ethr =  1.60E-09,  avg # of iterations =  3.0

     negative rho (up, down):  1.519E-04 0.000E+00

     total cpu time spent up to now is      131.1 secs

     End of self-consistent calculation

          k = 0.0000 0.0000 0.0000 (105382 PWs)   bands (ev):

   -63.1159 -63.0961 -63.0860 -63.0751 -63.0622 -63.0515 -63.0450 -63.0407
   -63.0379 -63.0219 -63.0131 -62.9678 -37.4656 -37.4161 -37.3696 -37.3529
   -37.3389 -37.3364 -37.3192 -37.2989 -37.2854 -37.2788 -37.2724 -37.2655
   -37.2578 -37.2499 -37.2404 -37.2355 -37.2334 -37.2290 -37.2246 -37.2189
   -37.2153 -37.2121 -37.2039 -37.1837 -37.1685 -37.1562 -37.1293 -37.1228
   -37.1104 -37.1044 -37.0938 -37.0761 -37.0515 -37.0267 -37.0118 -36.9863
   -16.8457 -16.1419 -15.3665 -15.3210 -15.1455 -15.0989 -14.9686 -14.6673
   -14.6505 -14.6382 -14.6008 -14.5692 -14.5273 -14.5251 -14.4463 -14.3187
   -14.3116 -14.2940 -14.2592 -14.2005 -14.0665 -14.0518 -14.0269 -13.9565
    -7.8428  -7.6719  -7.4772  -7.4693  -7.4439  -7.3992  -7.3759  -7.3125
    -7.0148  -7.0103  -6.9378  -6.9262  -6.8553  -6.7022  -6.6676  -6.6232
    -6.5857  -6.4640  -6.4212  -6.1641  -6.0938  -6.0718  -6.0178  -5.9954
    -5.9524  -5.9232  -5.9062  -5.8492  -5.8436  -5.7995  -5.7109  -5.6974
    -5.6297  -5.5957  -5.5621  -5.3588  -5.3087  -5.2408  -5.2085  -5.1774
    -5.1090  -5.0945  -5.0208  -4.8418  -4.7245  -4.5275  -4.4938  -4.4401
    -4.4290  -4.3386  -4.2368  -4.1641  -4.0017  -3.9789  -3.9483  -3.9207
    -3.8678  -3.8216  -3.7466  -3.7132  -3.6909  -3.6673  -3.6559  -3.6206
    -3.5803  -3.5537  -3.3946  -3.2936  -3.1509  -3.0687  -3.0260  -2.9562
    -2.9461  -2.9008  -2.8791  -2.8642  -2.8242  -2.7779  -2.7365  -2.4134
    -2.2029  -2.1860  -1.8089  -1.7722  -1.5621  -1.0205  -0.8781  -0.3838
    -0.3338  -0.2910  -0.1983  -0.1364  -0.0534  -0.0340   0.0297   0.0563
     0.0872   0.1721   0.2091   0.2601   0.3225   0.3421   0.3637   0.3874
     0.4801   0.5305   0.5619   0.5964   0.6068   0.6294   0.6881   0.7113
     0.7708   0.8613   0.8869

     the Fermi energy is    -1.6551 ev

!    total energy              =   -2246.20375798 Ry
     estimated scf accuracy    <       0.00000095 Ry
     smearing contrib. (-TS)   =      -0.00780126 Ry
     internal energy E=F+TS    =   -2246.19595672 Ry

     The total energy is F=E-TS. E is the sum of the following terms:
     one-electron contribution =  -18404.77478257 Ry
     hartree contribution      =    9189.63044258 Ry
     xc contribution           =    -391.64110333 Ry
     ewald contribution        =    7370.46611240 Ry
     one-center paw contrib.   =      -9.87662581 Ry

     convergence has been achieved in  18 iterations

     negative rho (up, down):  1.519E-04 0.000E+00

     Forces acting on atoms (cartesian axes, Ry/au):

     atom    1 type  1   force =     0.01486624   -0.02385859    0.00735923
     atom    2 type  2   force =    -0.01536397    0.01762049   -0.00270921
     atom    3 type  2   force =    -0.01147723    0.00971709   -0.00119484
     atom    4 type  1   force =     0.00478616    0.00437960   -0.00218450
     atom    5 type  2   force =    -0.00516453   -0.00997537   -0.00821526
     atom    6 type  2   force =     0.00043062    0.01081827   -0.00004958
     atom    7 type  1   force =     0.01988419   -0.00896765    0.00467857
     atom    8 type  2   force =     0.00159738    0.00131272    0.01191718
     atom    9 type  2   force =     0.01136113    0.00637880    0.01233080
     atom   10 type  1   force =    -0.01149649    0.00586693   -0.02642059
     atom   11 type  2   force =     0.00634462    0.00016557   -0.00937688
     atom   12 type  2   force =    -0.00243234    0.00091917    0.00637351
     atom   13 type  1   force =    -0.00008593    0.00485010   -0.01212965
     atom   14 type  2   force =     0.00746007    0.00140450    0.01324505
     atom   15 type  2   force =    -0.01163314    0.00291669   -0.01074672
     atom   16 type  1   force =    -0.00567749    0.00405706    0.03327091
     atom   17 type  2   force =     0.00884656   -0.00029179    0.00266635
     atom   18 type  2   force =    -0.00200392   -0.00716416    0.01218532
     atom   19 type  1   force =    -0.00832804   -0.01325952    0.03856993
     atom   20 type  2   force =     0.00426154   -0.00432354    0.00163644
     atom   21 type  1   force =    -0.00537361    0.00499195    0.00244933
     atom   22 type  2   force =    -0.00842764    0.00064713   -0.00628936
     atom   23 type  2   force =    -0.00000684    0.00131925    0.00911987
     atom   24 type  1   force =    -0.00915683   -0.00185119   -0.02253416
     atom   25 type  2   force =     0.01749205    0.01940062    0.00547834
     atom   26 type  2   force =    -0.01129176   -0.00098288   -0.00096985
     atom   27 type  1   force =     0.00001641   -0.00045388    0.01032284
     atom   28 type  2   force =     0.00001210   -0.00126239   -0.00314872
     atom   29 type  2   force =     0.00220865   -0.00056317   -0.00364184
     atom   30 type  1   force =    -0.00938370   -0.00432977    0.00111068
     atom   31 type  2   force =     0.00596075    0.00483097    0.01487699
     atom   32 type  2   force =    -0.00841337    0.00660989    0.00760743
     atom   33 type  1   force =     0.01519154   -0.00719997   -0.00939193
     atom   34 type  2   force =     0.00395291   -0.04240588   -0.01142937
     atom   35 type  2   force =    -0.00754470    0.01290929    0.01301546
     atom   36 type  3   force =     0.00858863    0.00577365   -0.07778176
     The non-local contrib.  to forces
     atom    1 type  1   force =     0.00302920    0.03006260   -0.01042932
     atom    2 type  2   force =    -0.01074709   -0.00019611   -0.27564876
     atom    3 type  2   force =    -0.01458661   -0.00273903    0.26749432
     atom    4 type  1   force =     0.00081726    0.00400635    0.00422113
     atom    5 type  2   force =     0.00628295   -0.03618077   -0.26711277
     atom    6 type  2   force =    -0.00697581    0.01057635    0.26528832
     atom    7 type  1   force =    -0.00534095   -0.00382268   -0.02926232
     atom    8 type  2   force =     0.00402312   -0.00717356   -0.25791980
     atom    9 type  2   force =     0.00718260   -0.00080300    0.27846652
     atom   10 type  1   force =     0.00485870    0.01014638   -0.00177466
     atom   11 type  2   force =     0.01546603    0.00758224   -0.26612100
     atom   12 type  2   force =    -0.01121490   -0.02000766    0.26517963
     atom   13 type  1   force =    -0.00620700    0.02845498   -0.00223377
     atom   14 type  2   force =     0.01192493   -0.01270795   -0.26757039
     atom   15 type  2   force =    -0.01237476   -0.00772015    0.25932450
     atom   16 type  1   force =    -0.00350965    0.00739422   -0.03766071
     atom   17 type  2   force =     0.00015902   -0.00640955   -0.27856963
     atom   18 type  2   force =     0.00268085   -0.00265120    0.27636136
     atom   19 type  1   force =    -0.00206581   -0.00681582   -0.01836505
     atom   20 type  2   force =     0.00037417   -0.02182269    0.26398207
     atom   21 type  1   force =     0.00103782    0.02565846    0.00749715
     atom   22 type  2   force =    -0.00775251    0.00961410   -0.27264254
     atom   23 type  2   force =     0.00493579   -0.01798918    0.27053465
     atom   24 type  1   force =     0.00713059    0.00887287   -0.01156443
     atom   25 type  2   force =     0.00918730    0.00267499   -0.26626530
     atom   26 type  2   force =    -0.00426921   -0.01275171    0.25962979
     atom   27 type  1   force =     0.00228718    0.01492431    0.01205604
     atom   28 type  2   force =    -0.00392499   -0.01982823   -0.27401332
     atom   29 type  2   force =     0.00612262    0.00381348    0.26171929
     atom   30 type  1   force =     0.00998731    0.00984737    0.00431805
     atom   31 type  2   force =     0.02977864   -0.01726331   -0.26335275
     atom   32 type  2   force =    -0.00247204   -0.00165222    0.27580156
     atom   33 type  1   force =    -0.00229891    0.02002198    0.00526931
     atom   34 type  2   force =    -0.00286369   -0.03535708   -0.27429691
     atom   35 type  2   force =    -0.00145026   -0.01149074    0.27043887
     atom   36 type  3   force =    -0.01724424   -0.01511190   -0.40703325
     The ionic contribution  to forces
     atom    1 type  1   force =     0.75895440   -0.32339590    4.54545149
     atom    2 type  2   force =    -0.58213866    0.36366948   39.09892869
     atom    3 type  2   force =    -0.13297153   -0.00103510  -36.55226345
     atom    4 type  1   force =     0.61502084    0.02448636   -0.88660217
     atom    5 type  2   force =    -0.08733730    0.48805393   38.13752437
     atom    6 type  2   force =     0.48142221   -0.69904012  -38.71507659
     atom    7 type  1   force =    -1.14637369   -1.89557330   -0.16861238
     atom    8 type  2   force =    -0.39958653    0.11555324   36.88799505
     atom    9 type  2   force =     0.44400836   -0.01439916  -38.69788500
     atom   10 type  1   force =    -0.89492779    0.17342453    4.62904080
     atom   11 type  2   force =     0.05603693   -0.74011772   38.68101764
     atom   12 type  2   force =     0.56062979    0.88317017  -38.49398307
     atom   13 type  1   force =     0.28884473    0.25264289    1.50887098
     atom   14 type  2   force =     0.15274028   -0.10224897   38.25031544
     atom   15 type  2   force =     0.19387340   -0.09512615  -37.34956119
     atom   16 type  1   force =     0.81065706    2.17465557   -3.38320623
     atom   17 type  2   force =     0.16230490   -0.55895202   36.76680148
     atom   18 type  2   force =    -0.23086155   -0.90065741  -39.37329806
     atom   19 type  1   force =     1.75266368   -0.87505078   -3.84790445
     atom   20 type  2   force =     0.34731025   -0.15103429  -39.58208058
     atom   21 type  1   force =     0.29071173    1.08583715   -0.38110306
     atom   22 type  2   force =     0.05753813   -0.12308179   37.65014918
     atom   23 type  2   force =    -0.14847568    0.91147600  -39.02574050
     atom   24 type  1   force =    -0.72939780    0.77413867    4.86380857
     atom   25 type  2   force =     0.47831773    0.22314687   39.04804160
     atom   26 type  2   force =    -0.35391410    0.03879424  -37.83991908
     atom   27 type  1   force =    -1.22356781   -0.61035706   -4.67710012
     atom   28 type  2   force =    -0.23944764    0.57312841   37.88133167
     atom   29 type  2   force =    -0.32813694   -0.57246689  -37.85098529
     atom   30 type  1   force =    -0.89506496   -0.45776454   -1.66573645
     atom   31 type  2   force =    -1.04417324    0.20390666   35.86847907
     atom   32 type  2   force =    -0.69092618    0.02537736  -39.51032174
     atom   33 type  1   force =     0.35354273   -0.13589648    0.80155524
     atom   34 type  2   force =     0.01569597   -1.03091877   39.08879764
     atom   35 type  2   force =    -0.35728744    0.61937691  -38.37246906
     atom   36 type  3   force =     1.66431574    0.35627801   42.66573954
     The local contribution  to forces
     atom    1 type  1   force =    -0.74719285    0.26966772   -4.52846109
     atom    2 type  2   force =     0.57720987   -0.34583959  -38.84757107
     atom    3 type  2   force =     0.13536257    0.01346570   36.30415780
     atom    4 type  1   force =    -0.61108879   -0.02413323    0.87940185
     atom    5 type  2   force =     0.07679134   -0.46418587  -37.90063340
     atom    6 type  2   force =    -0.47467625    0.70041707   38.47063253
     atom    7 type  1   force =     1.17183807    1.89034041    0.20143425
     atom    8 type  2   force =     0.39750669   -0.10769571  -36.63949648
     atom    9 type  2   force =    -0.43973213    0.02144622   38.45268378
     atom   10 type  1   force =     0.87843741   -0.17776271   -4.65443695
     atom   11 type  2   force =    -0.06422368    0.73355071  -38.44599762
     atom   12 type  2   force =    -0.55293816   -0.86382681   38.25592916
     atom   13 type  1   force =    -0.28262570   -0.27614387   -1.51957269
     atom   14 type  2   force =    -0.15657464    0.11619608  -37.99097295
     atom   15 type  2   force =    -0.19379514    0.10534807   37.09982209
     atom   16 type  1   force =    -0.81261881   -2.17822101    3.45287592
     atom   17 type  2   force =    -0.15401299    0.56355302  -36.50841238
     atom   18 type  2   force =     0.22657968    0.89671314   39.13014149
     atom   19 type  1   force =    -1.75889134    0.86858065    3.90355301
     atom   20 type  2   force =    -0.34345391    0.16754702   39.34077215
     atom   21 type  1   force =    -0.29705197   -1.10629808    0.37515772
     atom   22 type  2   force =    -0.05861439    0.11552481  -37.40596541
     atom   23 type  2   force =     0.14401592   -0.89357841   38.78507185
     atom   24 type  1   force =     0.71308691   -0.78468802   -4.87553638
     atom   25 type  2   force =    -0.46991235   -0.20609507  -38.79787500
     atom   26 type  2   force =     0.34700977   -0.02767476   37.59986166
     atom   27 type  1   force =     1.22117827    0.59484161    4.67442236
     atom   28 type  2   force =     0.24301202   -0.55614200  -37.63199110
     atom   29 type  2   force =     0.32471184    0.56883180   37.60593232
     atom   30 type  1   force =     0.87542080    0.44344923    1.66171656
     atom   31 type  2   force =     1.02032361   -0.18259650  -35.61259553
     atom   32 type  2   force =     0.68509290   -0.01732371   39.26302134
     atom   33 type  1   force =    -0.33602737    0.10881706   -0.81701493
     atom   34 type  2   force =    -0.00944025    1.02273834  -38.84768063
     atom   35 type  2   force =     0.35129850   -0.59600750   38.13593121
     atom   36 type  3   force =    -1.63853635   -0.33553305  -42.34155890
     The core correction contribution to forces
     atom    1 type  1   force =     0.00000000    0.00000000    0.00000000
     atom    2 type  2   force =     0.00027968    0.00000602    0.02107126
     atom    3 type  2   force =     0.00066932    0.00004960   -0.02077804
     atom    4 type  1   force =     0.00000000    0.00000000    0.00000000
     atom    5 type  2   force =    -0.00081664    0.00224177    0.02139262
     atom    6 type  2   force =     0.00058918   -0.00108948   -0.02099361
     atom    7 type  1   force =     0.00000000    0.00000000    0.00000000
     atom    8 type  2   force =    -0.00023104    0.00060334    0.02082652
     atom    9 type  2   force =    -0.00009790    0.00011686   -0.02108143
     atom   10 type  1   force =     0.00000000    0.00000000    0.00000000
     atom   11 type  2   force =    -0.00083560   -0.00074871    0.02121810
     atom   12 type  2   force =     0.00108294    0.00157452   -0.02095256
     atom   13 type  1   force =     0.00000000    0.00000000    0.00000000
     atom   14 type  2   force =    -0.00062947    0.00018797    0.02093010
     atom   15 type  2   force =     0.00064988    0.00043986   -0.02049186
     atom   16 type  1   force =     0.00000000    0.00000000    0.00000000
     atom   17 type  2   force =     0.00037074    0.00131205    0.02224601
     atom   18 type  2   force =    -0.00031398   -0.00056678   -0.02114628
     atom   19 type  1   force =     0.00000000    0.00000000    0.00000000
     atom   20 type  2   force =     0.00010343    0.00086945   -0.02123782
     atom   21 type  1   force =     0.00000000    0.00000000    0.00000000
     atom   22 type  2   force =     0.00037896   -0.00119760    0.02167967
     atom   23 type  2   force =    -0.00044966    0.00147697   -0.02100461
     atom   24 type  1   force =     0.00000000    0.00000000    0.00000000
     atom   25 type  2   force =    -0.00006971   -0.00029610    0.02105424
     atom   26 type  2   force =    -0.00006429    0.00067680   -0.02070696
     atom   27 type  1   force =     0.00000000    0.00000000    0.00000000
     atom   28 type  2   force =     0.00030733    0.00159448    0.02100727
     atom   29 type  2   force =    -0.00051873   -0.00071161   -0.02047564
     atom   30 type  1   force =     0.00000000    0.00000000    0.00000000
     atom   31 type  2   force =    -0.00025872    0.00073068    0.02180773
     atom   32 type  2   force =    -0.00017487    0.00016334   -0.02112422
     atom   33 type  1   force =     0.00000000    0.00000000    0.00000000
     atom   34 type  2   force =     0.00049708    0.00110487    0.02127861
     atom   35 type  2   force =    -0.00013291    0.00098503   -0.02108175
     atom   36 type  3   force =     0.00007463    0.00015286    0.00464311
     The Hubbard contrib.    to forces
     atom    1 type  1   force =     0.00000000    0.00000000    0.00000000
     atom    2 type  2   force =     0.00000000    0.00000000    0.00000000
     atom    3 type  2   force =     0.00000000    0.00000000    0.00000000
     atom    4 type  1   force =     0.00000000    0.00000000    0.00000000
     atom    5 type  2   force =     0.00000000    0.00000000    0.00000000
     atom    6 type  2   force =     0.00000000    0.00000000    0.00000000
     atom    7 type  1   force =     0.00000000    0.00000000    0.00000000
     atom    8 type  2   force =     0.00000000    0.00000000    0.00000000
     atom    9 type  2   force =     0.00000000    0.00000000    0.00000000
     atom   10 type  1   force =     0.00000000    0.00000000    0.00000000
     atom   11 type  2   force =     0.00000000    0.00000000    0.00000000
     atom   12 type  2   force =     0.00000000    0.00000000    0.00000000
     atom   13 type  1   force =     0.00000000    0.00000000    0.00000000
     atom   14 type  2   force =     0.00000000    0.00000000    0.00000000
     atom   15 type  2   force =     0.00000000    0.00000000    0.00000000
     atom   16 type  1   force =     0.00000000    0.00000000    0.00000000
     atom   17 type  2   force =     0.00000000    0.00000000    0.00000000
     atom   18 type  2   force =     0.00000000    0.00000000    0.00000000
     atom   19 type  1   force =     0.00000000    0.00000000    0.00000000
     atom   20 type  2   force =     0.00000000    0.00000000    0.00000000
     atom   21 type  1   force =     0.00000000    0.00000000    0.00000000
     atom   22 type  2   force =     0.00000000    0.00000000    0.00000000
     atom   23 type  2   force =     0.00000000    0.00000000    0.00000000
     atom   24 type  1   force =     0.00000000    0.00000000    0.00000000
     atom   25 type  2   force =     0.00000000    0.00000000    0.00000000
     atom   26 type  2   force =     0.00000000    0.00000000    0.00000000
     atom   27 type  1   force =     0.00000000    0.00000000    0.00000000
     atom   28 type  2   force =     0.00000000    0.00000000    0.00000000
     atom   29 type  2   force =     0.00000000    0.00000000    0.00000000
     atom   30 type  1   force =     0.00000000    0.00000000    0.00000000
     atom   31 type  2   force =     0.00000000    0.00000000    0.00000000
     atom   32 type  2   force =     0.00000000    0.00000000    0.00000000
     atom   33 type  1   force =     0.00000000    0.00000000    0.00000000
     atom   34 type  2   force =     0.00000000    0.00000000    0.00000000
     atom   35 type  2   force =     0.00000000    0.00000000    0.00000000
     atom   36 type  3   force =     0.00000000    0.00000000    0.00000000
     The SCF correction term to forces
     atom    1 type  1   force =     0.00007437   -0.00019418    0.00075152
     atom    2 type  2   force =     0.00003111   -0.00002047    0.00046403
     atom    3 type  2   force =     0.00004790   -0.00002525    0.00014789
     atom    4 type  1   force =     0.00003573    0.00001894    0.00074805
     atom    5 type  2   force =    -0.00008600    0.00009438    0.00056729
     atom    6 type  2   force =     0.00007016   -0.00004673    0.00005313
     atom    7 type  1   force =    -0.00024037    0.00008674    0.00107238
     atom    8 type  2   force =    -0.00011597    0.00002423    0.00046524
     atom    9 type  2   force =    -0.00000092    0.00001669    0.00010029
     atom   10 type  1   force =     0.00013407    0.00005754    0.00070358
     atom   11 type  2   force =    -0.00010017   -0.00010212    0.00045938
     atom   12 type  2   force =     0.00000688    0.00000778    0.00015371
     atom   13 type  1   force =    -0.00009909   -0.00010508    0.00075920
     atom   14 type  2   force =    -0.00000215   -0.00002382    0.00049622
     atom   15 type  2   force =     0.00001237   -0.00002613    0.00011311
     atom   16 type  1   force =    -0.00020721    0.00022710    0.00121530
     atom   17 type  2   force =     0.00002376    0.00020354    0.00055424
     atom   18 type  2   force =    -0.00009004   -0.00000309    0.00008018
     atom   19 type  1   force =    -0.00003569    0.00002525    0.00123980
     atom   20 type  2   force =    -0.00007352    0.00011579    0.00015399
     atom   21 type  1   force =    -0.00007232   -0.00020675    0.00085088
     atom   22 type  2   force =     0.00002105   -0.00021356    0.00044310
     atom   23 type  2   force =    -0.00003433   -0.00006731    0.00021185
     atom   24 type  1   force =     0.00002235   -0.00017589    0.00071143
     atom   25 type  2   force =    -0.00003205   -0.00003125    0.00047615
     atom   26 type  2   force =    -0.00005505   -0.00002862    0.00011810
     atom   27 type  1   force =     0.00011765    0.00013608    0.00089793
     atom   28 type  2   force =     0.00006425   -0.00001623    0.00047013
     atom   29 type  2   force =     0.00002875   -0.00003113    0.00012083
     atom   30 type  1   force =     0.00027204    0.00013700    0.00076588
     atom   31 type  2   force =     0.00028934    0.00005226    0.00049183
     atom   32 type  2   force =     0.00006570    0.00004394    0.00018386
     atom   33 type  1   force =    -0.00002603   -0.00014370    0.00075181
     atom   34 type  2   force =     0.00006268    0.00002559    0.00042528
     atom   35 type  2   force =     0.00002629    0.00004442    0.00014956
     atom   36 type  3   force =    -0.00002228   -0.00001345    0.00038111

     Total force =     0.138294     Total SCF correction =     0.003644

     BFGS Geometry Optimization
     Energy error            =      0.0E+00 Ry
     Gradient error          =      7.8E-02 Ry/Bohr

     number of scf cycles    =   1
     number of bfgs steps    =   0

     energy             new  =   -2246.2037579812 Ry

     new trust radius        =       0.0784671981 bohr
     new conv_thr            =       0.0000010000 Ry


ATOMIC_POSITIONS (angstrom)
Mo            6.5824152819        1.7751808083        2.8275373692
S             8.1685790752        0.8190283885        4.4331047002
S             8.1871595966        0.8163838087        1.2772511426
Mo            8.0976952936        4.4973745308        2.7166624043
S             6.4971763041        3.7171327484        4.3423133205
S             6.5535776701        3.5174623391        1.1212539890
Mo            6.5005039551        7.2136918074        2.6743602777
S             8.0825730273        6.3445656564        4.2487678611
S             8.0869296979        6.3080778295        1.0903881753
Mo            8.1545353673        9.9052850567        2.8294805852
S             6.4985250261        8.9430144322        4.3781435036
S             6.6166600622        9.0491976165        1.1432800190
Mo            3.4216141900        1.7495224126        2.7700524285
S             4.9791131873        0.8176844362        4.3575420711
S             5.0516777640        0.8478055530        1.2209715430
Mo            4.9767522838        4.5153249078        2.6504907583
S             3.4325230586        3.6714452769        4.2811205491
S             3.4368601502        3.5444375876        1.0647998767
Mo            3.4494547288        7.2093079027        2.6510871899
S             4.9854893041        6.3246443645        1.0381196995
Mo            5.0094203291        9.9042416800        2.7446970898
S             3.4664984040        8.9440937157        4.3222631250
S             3.4084255438        9.0656881013        1.1008943280
Mo            0.2912448988        1.7465299240        2.8375201430
S             1.8597186047        0.8029603707        4.4011084494
S             1.8548246929        0.8539058013        1.2088876322
Mo            1.8606999936        4.4954265778        2.6656599934
S             0.2722202531        3.6537307965        4.3359178687
S             0.2323999745        3.5269512079        1.1700907039
Mo            0.2661865127        7.2143548809        2.7022841742
S             1.9053925403        6.3153552731        4.2303166863
S             1.8577860512        6.3138416153        1.0485849634
Mo            1.8523856799        9.9363290961        2.7679762548
S             0.2980046872        9.0675576038        4.4078213021
S             0.2727789166        9.0503570183        1.1572882659
O             4.2075493498        6.0746663951        5.4367230932



     Writing config-only to output data dir ./MoS2-V-O.save/
     NEW-OLD atomic charge density approx. for the potential

     negative rho (up, down):  1.832E-04 0.000E+00

     total cpu time spent up to now is      138.4 secs

     Self-consistent Calculation

     iteration #  1     ecut=    80.00 Ry     beta= 0.70
     Davidson diagonalization with overlap
     ethr =  1.00E-06,  avg # of iterations =  8.0

     negative rho (up, down):  1.264E-04 0.000E+00

     total cpu time spent up to now is      154.7 secs

     total energy              =   -2246.21933626 Ry
     estimated scf accuracy    <       0.00689541 Ry

     iteration #  2     ecut=    80.00 Ry     beta= 0.70
     Davidson diagonalization with overlap
     ethr =  2.21E-06,  avg # of iterations =  7.0

     negative rho (up, down):  1.130E-04 0.000E+00

     total cpu time spent up to now is      169.7 secs

     total energy              =   -2246.21736928 Ry
     estimated scf accuracy    <       0.10926251 Ry

     iteration #  3     ecut=    80.00 Ry     beta= 0.70
     Davidson diagonalization with overlap
     ethr =  2.21E-06,  avg # of iterations =  6.0

     negative rho (up, down):  3.745E-05 0.000E+00

     total cpu time spent up to now is      187.1 secs

     total energy              =   -2246.22099273 Ry
     estimated scf accuracy    <       0.00021405 Ry

     iteration #  4     ecut=    80.00 Ry     beta= 0.70
     Davidson diagonalization with overlap
     ethr =  6.86E-08,  avg # of iterations =  6.0

     negative rho (up, down):  2.792E-05 0.000E+00

     total cpu time spent up to now is      199.2 secs

     total energy              =   -2246.22102996 Ry
     estimated scf accuracy    <       0.00002516 Ry

     iteration #  5     ecut=    80.00 Ry     beta= 0.70
     Davidson diagonalization with overlap
     ethr =  8.06E-09,  avg # of iterations =  5.0

     negative rho (up, down):  2.512E-05 0.000E+00

     total cpu time spent up to now is      214.8 secs

     total energy              =   -2246.22103501 Ry
     estimated scf accuracy    <       0.00000384 Ry

     iteration #  6     ecut=    80.00 Ry     beta= 0.70
     Davidson diagonalization with overlap
     ethr =  1.23E-09,  avg # of iterations =  5.0

     negative rho (up, down):  2.617E-05 0.000E+00

     total cpu time spent up to now is      227.7 secs

     total energy              =   -2246.22103584 Ry
     estimated scf accuracy    <       0.00000155 Ry

     iteration #  7     ecut=    80.00 Ry     beta= 0.70
     Davidson diagonalization with overlap
     ethr =  4.96E-10,  avg # of iterations =  2.0

     negative rho (up, down):  3.272E-05 0.000E+00

     total cpu time spent up to now is      238.8 secs

     total energy              =   -2246.22103606 Ry
     estimated scf accuracy    <       0.00000124 Ry

     iteration #  8     ecut=    80.00 Ry     beta= 0.70
     Davidson diagonalization with overlap
     ethr =  3.97E-10,  avg # of iterations =  2.0

     negative rho (up, down):  1.516E-04 0.000E+00

     total cpu time spent up to now is      242.2 secs

     End of self-consistent calculation

          k = 0.0000 0.0000 0.0000 (105382 PWs)   bands (ev):

   -63.1162 -63.0956 -63.0811 -63.0703 -63.0578 -63.0463 -63.0414 -63.0336
   -63.0291 -63.0197 -63.0059 -62.9643 -37.4610 -37.4111 -37.3617 -37.3499
   -37.3340 -37.3285 -37.3161 -37.2968 -37.2836 -37.2763 -37.2663 -37.2618
   -37.2548 -37.2440 -37.2357 -37.2304 -37.2285 -37.2241 -37.2204 -37.2152
   -37.2085 -37.2066 -37.2004 -37.1793 -37.1647 -37.1524 -37.1252 -37.1172
   -37.1070 -37.0996 -37.0878 -37.0699 -37.0470 -37.0227 -37.0082 -36.9829
   -16.8750 -16.1365 -15.3619 -15.3178 -15.1397 -15.0843 -14.9673 -14.6548
   -14.6498 -14.6222 -14.5988 -14.5670 -14.5231 -14.5130 -14.4464 -14.3145
   -14.3054 -14.2930 -14.2616 -14.1963 -14.0604 -14.0387 -14.0234 -13.9610
    -7.8353  -7.6688  -7.4782  -7.4686  -7.4306  -7.3951  -7.3722  -7.3176
    -7.0100  -7.0084  -6.9348  -6.9220  -6.8388  -6.7003  -6.6730  -6.6126
    -6.5739  -6.4613  -6.4207  -6.1619  -6.0822  -6.0732  -6.0092  -5.9878
    -5.9465  -5.9203  -5.8960  -5.8417  -5.8355  -5.8008  -5.7135  -5.6903
    -5.6262  -5.5825  -5.5560  -5.3401  -5.3051  -5.2272  -5.2030  -5.1760
    -5.1096  -5.0961  -5.0223  -4.8459  -4.7168  -4.5156  -4.4848  -4.4290
    -4.4246  -4.3489  -4.2421  -4.1547  -3.9970  -3.9728  -3.9423  -3.9040
    -3.8601  -3.8338  -3.7321  -3.7046  -3.6968  -3.6713  -3.6585  -3.6205
    -3.5709  -3.5534  -3.3953  -3.2954  -3.1499  -3.0735  -3.0235  -2.9585
    -2.9503  -2.9002  -2.8769  -2.8656  -2.8277  -2.7704  -2.7488  -2.4131
    -2.2078  -2.1841  -1.8195  -1.7784  -1.5363  -0.9834  -0.8566  -0.3703
    -0.3316  -0.2717  -0.1891  -0.1157  -0.0536  -0.0289   0.0310   0.0782
     0.1043   0.1826   0.2165   0.2681   0.3386   0.3471   0.3705   0.3957
     0.4865   0.5357   0.5436   0.5989   0.6088   0.6303   0.6966   0.7208
     0.7787   0.8486   0.8934

     the Fermi energy is    -1.6475 ev

!    total energy              =   -2246.22103590 Ry
     estimated scf accuracy    <       0.00000059 Ry
     smearing contrib. (-TS)   =      -0.00627070 Ry
     internal energy E=F+TS    =   -2246.21476520 Ry

     The total energy is F=E-TS. E is the sum of the following terms:
     one-electron contribution =  -18415.50916854 Ry
     hartree contribution      =    9195.06995234 Ry
     xc contribution           =    -391.65080347 Ry
     ewald contribution        =    7375.75177942 Ry
     one-center paw contrib.   =      -9.87652494 Ry

     convergence has been achieved in   8 iterations

     negative rho (up, down):  1.516E-04 0.000E+00

     Forces acting on atoms (cartesian axes, Ry/au):

     atom    1 type  1   force =     0.00405849   -0.01206057    0.00065693
     atom    2 type  2   force =    -0.00915476    0.01095843   -0.00427685
     atom    3 type  2   force =    -0.01053736    0.00750722   -0.00721884
     atom    4 type  1   force =     0.00392353    0.00287823   -0.00001701
     atom    5 type  2   force =    -0.00112046   -0.01072171   -0.00522302
     atom    6 type  2   force =    -0.00136382    0.00828235    0.00543021
     atom    7 type  1   force =     0.01323331   -0.00560470    0.00467491
     atom    8 type  2   force =     0.00237307   -0.00137273    0.01147929
     atom    9 type  2   force =     0.01003148    0.00511548    0.00802091
     atom   10 type  1   force =    -0.00465235    0.00534201   -0.00971987
     atom   11 type  2   force =     0.00608310    0.00115632   -0.00943332
     atom   12 type  2   force =    -0.00470609   -0.00007669    0.00311439
     atom   13 type  1   force =     0.00169327    0.00320778   -0.00555346
     atom   14 type  2   force =     0.00467078    0.00144355    0.00883471
     atom   15 type  2   force =    -0.00768739    0.00215790   -0.00801025
     atom   16 type  1   force =    -0.00346969    0.00332144    0.02252292
     atom   17 type  2   force =     0.00503640   -0.00261246    0.00527022
     atom   18 type  2   force =    -0.00041300   -0.00304708    0.01226570
     atom   19 type  1   force =    -0.00235594   -0.01029350    0.02697123
     atom   20 type  2   force =     0.00164222   -0.00372790    0.00945480
     atom   21 type  1   force =    -0.00428461    0.00262909    0.00289730
     atom   22 type  2   force =    -0.00688495    0.00266254   -0.00247250
     atom   23 type  2   force =     0.00188857   -0.00313122    0.00928509
     atom   24 type  1   force =    -0.00565843   -0.00094396   -0.00948694
     atom   25 type  2   force =     0.01188196    0.01478957   -0.00157424
     atom   26 type  2   force =    -0.00824980   -0.00172800   -0.00302443
     atom   27 type  1   force =    -0.00093716   -0.00024182    0.00772144
     atom   28 type  2   force =    -0.00058476   -0.00246561   -0.00369136
     atom   29 type  2   force =     0.00239928    0.00179116   -0.00400805
     atom   30 type  1   force =    -0.00574803   -0.00504260    0.00350406
     atom   31 type  2   force =     0.00055751    0.00154444    0.01535274
     atom   32 type  2   force =    -0.00559751    0.00515629    0.00984291
     atom   33 type  1   force =     0.00711389   -0.00231842   -0.00084333
     atom   34 type  2   force =     0.00112840   -0.03140132   -0.01536423
     atom   35 type  2   force =    -0.00521048    0.01006105    0.00842592
     atom   36 type  3   force =     0.01090134    0.00678547   -0.08580799
     The non-local contrib.  to forces
     atom    1 type  1   force =     0.00574233    0.02613680   -0.01034339
     atom    2 type  2   force =    -0.00654606   -0.00489304   -0.27484764
     atom    3 type  2   force =    -0.01244634   -0.00559735    0.26224703
     atom    4 type  1   force =     0.00146263    0.00632879    0.00445557
     atom    5 type  2   force =     0.00877514   -0.03702373   -0.26618749
     atom    6 type  2   force =    -0.00754194    0.00712634    0.26987454
     atom    7 type  1   force =    -0.00125854   -0.00284259   -0.02907515
     atom    8 type  2   force =     0.00490721   -0.00931945   -0.25629924
     atom    9 type  2   force =     0.00599389   -0.00130359    0.27466907
     atom   10 type  1   force =     0.00314736    0.01071723   -0.00276028
     atom   11 type  2   force =     0.01387636    0.00751406   -0.26612080
     atom   12 type  2   force =    -0.01150704   -0.02058257    0.26410766
     atom   13 type  1   force =    -0.00685250    0.03047307   -0.00141171
     atom   14 type  2   force =     0.01003421   -0.01240021   -0.26995348
     atom   15 type  2   force =    -0.00974694   -0.00886861    0.26075552
     atom   16 type  1   force =    -0.00474037    0.00769547   -0.03596192
     atom   17 type  2   force =    -0.00332297   -0.00625177   -0.27759325
     atom   18 type  2   force =     0.00386729   -0.00104117    0.27687785
     atom   19 type  1   force =    -0.00315684   -0.00517357   -0.01644847
     atom   20 type  2   force =    -0.00057132   -0.02001045    0.26809515
     atom   21 type  1   force =     0.00038490    0.02559951    0.00681832
     atom   22 type  2   force =    -0.00540302    0.00974566   -0.26959230
     atom   23 type  2   force =     0.00554297   -0.02037236    0.27091376
     atom   24 type  1   force =     0.00535370    0.00913959   -0.01092387
     atom   25 type  2   force =     0.00475566   -0.00142843   -0.27043365
     atom   26 type  2   force =    -0.00205139   -0.01293395    0.25836432
     atom   27 type  1   force =     0.00335414    0.01539094    0.01206745
     atom   28 type  2   force =    -0.00388419   -0.01913474   -0.27410740
     atom   29 type  2   force =     0.00555500    0.00386500    0.26203097
     atom   30 type  1   force =     0.00903034    0.00854074    0.00387998
     atom   31 type  2   force =     0.02706528   -0.02326278   -0.26369008
     atom   32 type  2   force =    -0.00127133   -0.00245047    0.27697652
     atom   33 type  1   force =    -0.00055568    0.01977006    0.00416747
     atom   34 type  2   force =    -0.00512413   -0.02747010   -0.27787018
     atom   35 type  2   force =    -0.00046750   -0.01391212    0.26862963
     atom   36 type  3   force =    -0.01303589   -0.01183324   -0.44981457
     The ionic contribution  to forces
     atom    1 type  1   force =     0.47222034   -0.03330633    4.58223067
     atom    2 type  2   force =    -0.37187152    0.22493970   39.15625522
     atom    3 type  2   force =    -0.12766633    0.01216109  -36.68244047
     atom    4 type  1   force =     0.51249368   -0.13720218   -0.98549361
     atom    5 type  2   force =     0.00841117    0.43104700   38.06763621
     atom    6 type  2   force =     0.36850203   -0.69790499  -38.63649422
     atom    7 type  1   force =    -1.44437739   -1.77187737   -0.23970747
     atom    8 type  2   force =    -0.39302424    0.07185245   37.04612518
     atom    9 type  2   force =     0.39866178   -0.04549134  -38.76121487
     atom   10 type  1   force =    -0.60881454    0.19388802    4.21893972
     atom   11 type  2   force =     0.07210486   -0.69594335   38.63334331
     atom   12 type  2   force =     0.42732345    0.79507443  -38.50676628
     atom   13 type  1   force =     0.31011211    0.14652210    1.21365227
     atom   14 type  2   force =     0.06571226   -0.08759208   38.30791595
     atom   15 type  2   force =     0.22042681   -0.05563610  -37.41963984
     atom   16 type  1   force =     0.97988899    2.09203147   -2.90329365
     atom   17 type  2   force =     0.07465680   -0.70796824   36.83695017
     atom   18 type  2   force =    -0.15674301   -0.78938152  -39.34505390
     atom   19 type  1   force =     1.98019528   -0.73705709   -3.33479107
     atom   20 type  2   force =     0.26733995   -0.11808963  -39.53442068
     atom   21 type  1   force =     0.27460147    0.98924855   -0.34432801
     atom   22 type  2   force =     0.08233586    0.00369006   37.67318244
     atom   23 type  2   force =    -0.08726750    0.73937287  -39.00303163
     atom   24 type  1   force =    -0.53088096    0.62634316    4.49492767
     atom   25 type  2   force =     0.34470619    0.15813140   39.00090278
     atom   26 type  2   force =    -0.32114503    0.01230472  -37.83853343
     atom   27 type  1   force =    -1.26502391   -0.65690548   -4.54241290
     atom   28 type  2   force =    -0.25005034    0.47345248   37.87240476
     atom   29 type  2   force =    -0.29880759   -0.50896389  -37.91189399
     atom   30 type  1   force =    -0.74100006   -0.38509776   -1.72950249
     atom   31 type  2   force =    -1.22021989    0.16754412   36.00834987
     atom   32 type  2   force =    -0.58108740    0.04369681  -39.50430811
     atom   33 type  1   force =     0.11437778    0.07834401    0.72993255
     atom   34 type  2   force =    -0.04150269   -0.78187092   38.96498092
     atom   35 type  2   force =    -0.28141573    0.57866431  -38.31690621
     atom   36 type  3   force =     1.74682734    0.37197951   42.73250312
     The local contribution  to forces
     atom    1 type  1   force =    -0.47394116   -0.00490164   -4.57156376
     atom    2 type  2   force =     0.36903548   -0.20924142  -38.90706222
     atom    3 type  2   force =     0.12900031    0.00070367   36.43371535
     atom    4 type  1   force =    -0.51013021    0.13377601    0.98072775
     atom    5 type  2   force =    -0.01737083   -0.40704175  -37.82837932
     atom    6 type  2   force =    -0.36284917    0.70000505   38.39322975
     atom    7 type  1   force =     1.45886124    1.76913542    0.27307190
     atom    8 type  2   force =     0.39073593   -0.06453169  -36.79953088
     atom    9 type  2   force =    -0.39461784    0.05183453   38.51570617
     atom   10 type  1   force =     0.60102773   -0.19930992   -4.22616672
     atom   11 type  2   force =    -0.07909549    0.69034607  -38.39824072
     atom   12 type  2   force =    -0.42150628   -0.77613629   38.26680782
     atom   13 type  1   force =    -0.30154719   -0.17391380   -1.21809498
     atom   14 type  2   force =    -0.07043366    0.10119431  -38.05044453
     atom   15 type  2   force =    -0.21892337    0.06612560   37.17149533
     atom   16 type  1   force =    -0.97842351   -2.09638527    2.96121905
     atom   17 type  2   force =    -0.06680044    0.71016805  -36.57675007
     atom   18 type  2   force =     0.15279953    0.78791367   39.10169931
     atom   19 type  1   force =    -1.97927121    0.73206017    3.37758080
     atom   20 type  2   force =    -0.26516075    0.13358168   39.29725030
     atom   21 type  1   force =    -0.27917907   -1.01223178    0.34005014
     atom   22 type  2   force =    -0.08414029   -0.00948758  -37.42807064
     atom   23 type  2   force =     0.08403897   -0.72354527   38.76250564
     atom   24 type  1   force =     0.51986907   -0.63651282   -4.49371243
     atom   25 type  2   force =    -0.33767133   -0.14183523  -38.75348020
     atom   26 type  2   force =     0.31510060   -0.00178844   37.59787490
     atom   27 type  1   force =     1.26065421    0.64122438    4.53763301
     atom   28 type  2   force =     0.25300257   -0.45831763  -37.62329275
     atom   29 type  2   force =     0.29608996    0.50753760   37.66642374
     atom   30 type  1   force =     0.72610659    0.37163646    1.72878881
     atom   31 type  2   force =     1.19372866   -0.14365295  -35.75161656
     atom   32 type  2   force =     0.57691720   -0.03628535   39.25840512
     atom   33 type  1   force =    -0.10679577   -0.10038584   -0.73522536
     atom   34 type  2   force =     0.04716883    0.77711903  -38.72417178
     atom   35 type  2   force =     0.27678729   -0.55575684   38.07780371
     atom   36 type  3   force =    -1.72285077   -0.35344476  -42.37411062
     The core correction contribution to forces
     atom    1 type  1   force =     0.00000000    0.00000000    0.00000000
     atom    2 type  2   force =     0.00022181    0.00013492    0.02109310
     atom    3 type  2   force =     0.00055937    0.00020714   -0.02066848
     atom    4 type  1   force =     0.00000000    0.00000000    0.00000000
     atom    5 type  2   force =    -0.00084889    0.00223208    0.02133685
     atom    6 type  2   force =     0.00051389   -0.00093433   -0.02108319
     atom    7 type  1   force =     0.00000000    0.00000000    0.00000000
     atom    8 type  2   force =    -0.00025247    0.00066151    0.02080809
     atom    9 type  2   force =    -0.00004923    0.00011609   -0.02102276
     atom   10 type  1   force =     0.00000000    0.00000000    0.00000000
     atom   11 type  2   force =    -0.00074289   -0.00072615    0.02120962
     atom   12 type  2   force =     0.00098621    0.00153687   -0.02092482
     atom   13 type  1   force =     0.00000000    0.00000000    0.00000000
     atom   14 type  2   force =    -0.00061685    0.00021626    0.02099978
     atom   15 type  2   force =     0.00056880    0.00051509   -0.02054292
     atom   16 type  1   force =     0.00000000    0.00000000    0.00000000
     atom   17 type  2   force =     0.00046497    0.00124061    0.02224033
     atom   18 type  2   force =    -0.00031334   -0.00054053   -0.02119418
     atom   19 type  1   force =     0.00000000    0.00000000    0.00000000
     atom   20 type  2   force =     0.00007972    0.00081166   -0.02134226
     atom   21 type  1   force =     0.00000000    0.00000000    0.00000000
     atom   22 type  2   force =     0.00030144   -0.00113828    0.02161434
     atom   23 type  2   force =    -0.00041337    0.00142135   -0.02102908
     atom   24 type  1   force =     0.00000000    0.00000000    0.00000000
     atom   25 type  2   force =     0.00007249   -0.00010328    0.02114697
     atom   26 type  2   force =    -0.00014943    0.00066358   -0.02065614
     atom   27 type  1   force =     0.00000000    0.00000000    0.00000000
     atom   28 type  2   force =     0.00029240    0.00148672    0.02100806
     atom   29 type  2   force =    -0.00045682   -0.00064898   -0.02049788
     atom   30 type  1   force =     0.00000000    0.00000000    0.00000000
     atom   31 type  2   force =    -0.00023214    0.00097031    0.02183340
     atom   32 type  2   force =    -0.00016480    0.00021831   -0.02116569
     atom   33 type  1   force =     0.00000000    0.00000000    0.00000000
     atom   34 type  2   force =     0.00054676    0.00084506    0.02137333
     atom   35 type  2   force =    -0.00013556    0.00105927   -0.02100871
     atom   36 type  3   force =     0.00001383    0.00011222    0.00513263
     The Hubbard contrib.    to forces
     atom    1 type  1   force =     0.00000000    0.00000000    0.00000000
     atom    2 type  2   force =     0.00000000    0.00000000    0.00000000
     atom    3 type  2   force =     0.00000000    0.00000000    0.00000000
     atom    4 type  1   force =     0.00000000    0.00000000    0.00000000
     atom    5 type  2   force =     0.00000000    0.00000000    0.00000000
     atom    6 type  2   force =     0.00000000    0.00000000    0.00000000
     atom    7 type  1   force =     0.00000000    0.00000000    0.00000000
     atom    8 type  2   force =     0.00000000    0.00000000    0.00000000
     atom    9 type  2   force =     0.00000000    0.00000000    0.00000000
     atom   10 type  1   force =     0.00000000    0.00000000    0.00000000
     atom   11 type  2   force =     0.00000000    0.00000000    0.00000000
     atom   12 type  2   force =     0.00000000    0.00000000    0.00000000
     atom   13 type  1   force =     0.00000000    0.00000000    0.00000000
     atom   14 type  2   force =     0.00000000    0.00000000    0.00000000
     atom   15 type  2   force =     0.00000000    0.00000000    0.00000000
     atom   16 type  1   force =     0.00000000    0.00000000    0.00000000
     atom   17 type  2   force =     0.00000000    0.00000000    0.00000000
     atom   18 type  2   force =     0.00000000    0.00000000    0.00000000
     atom   19 type  1   force =     0.00000000    0.00000000    0.00000000
     atom   20 type  2   force =     0.00000000    0.00000000    0.00000000
     atom   21 type  1   force =     0.00000000    0.00000000    0.00000000
     atom   22 type  2   force =     0.00000000    0.00000000    0.00000000
     atom   23 type  2   force =     0.00000000    0.00000000    0.00000000
     atom   24 type  1   force =     0.00000000    0.00000000    0.00000000
     atom   25 type  2   force =     0.00000000    0.00000000    0.00000000
     atom   26 type  2   force =     0.00000000    0.00000000    0.00000000
     atom   27 type  1   force =     0.00000000    0.00000000    0.00000000
     atom   28 type  2   force =     0.00000000    0.00000000    0.00000000
     atom   29 type  2   force =     0.00000000    0.00000000    0.00000000
     atom   30 type  1   force =     0.00000000    0.00000000    0.00000000
     atom   31 type  2   force =     0.00000000    0.00000000    0.00000000
     atom   32 type  2   force =     0.00000000    0.00000000    0.00000000
     atom   33 type  1   force =     0.00000000    0.00000000    0.00000000
     atom   34 type  2   force =     0.00000000    0.00000000    0.00000000
     atom   35 type  2   force =     0.00000000    0.00000000    0.00000000
     atom   36 type  3   force =     0.00000000    0.00000000    0.00000000
     The SCF correction term to forces
     atom    1 type  1   force =     0.00003590    0.00000931    0.00032920
     atom    2 type  2   force =     0.00000444    0.00001700    0.00028050
     atom    3 type  2   force =     0.00001455    0.00003138   -0.00007647
     atom    4 type  1   force =     0.00009636   -0.00002568    0.00028908
     atom    5 type  2   force =    -0.00008814    0.00006341    0.00036654
     atom    6 type  2   force =     0.00001028   -0.00001099   -0.00010087
     atom    7 type  1   force =     0.00000692   -0.00002143    0.00038144
     atom    8 type  2   force =     0.00000554   -0.00003682    0.00037194
     atom    9 type  2   force =     0.00004180   -0.00004149   -0.00012090
     atom   10 type  1   force =    -0.00001397    0.00004539    0.00026320
     atom   11 type  2   force =    -0.00006082   -0.00003558    0.00037107
     atom   12 type  2   force =    -0.00000351    0.00002959   -0.00011418
     atom   13 type  1   force =    -0.00002023    0.00012513    0.00029676
     atom   14 type  2   force =    -0.00002626    0.00002399    0.00031279
     atom   15 type  2   force =    -0.00001377    0.00002065   -0.00008253
     atom   16 type  1   force =    -0.00019588   -0.00002150    0.00055524
     atom   17 type  2   force =     0.00003696    0.00019762    0.00041884
     atom   18 type  2   force =    -0.00002456    0.00000118   -0.00006759
     atom   19 type  1   force =    -0.00012425   -0.00012429    0.00062578
     atom   20 type  2   force =    -0.00004647   -0.00002244   -0.00013191
     atom   21 type  1   force =    -0.00009300    0.00001153    0.00035265
     atom   22 type  2   force =     0.00001997   -0.00014860    0.00038946
     atom   23 type  2   force =    -0.00001357   -0.00000908   -0.00007779
     atom   24 type  1   force =    -0.00000132    0.00008483    0.00021750
     atom   25 type  2   force =     0.00001788    0.00002383    0.00028566
     atom   26 type  2   force =    -0.00000563    0.00002480   -0.00007828
     atom   27 type  1   force =     0.00007733    0.00004707    0.00042969
     atom   28 type  2   force =     0.00005372    0.00004628    0.00029177
     atom   29 type  2   force =     0.00001765    0.00000016   -0.00007509
     atom   30 type  1   force =     0.00011402   -0.00012333    0.00033356
     atom   31 type  2   force =     0.00021452   -0.00005555    0.00047192
     atom   32 type  2   force =     0.00000774   -0.00002428   -0.00006913
     atom   33 type  1   force =     0.00008647   -0.00004793    0.00027782
     atom   34 type  2   force =     0.00003855   -0.00002567    0.00031929
     atom   35 type  2   force =     0.00001993    0.00000515   -0.00009668
     atom   36 type  3   force =    -0.00005425   -0.00002953    0.00047726

     Total force =     0.118487     Total SCF correction =     0.001948
     Energy error            =      1.7E-02 Ry
     Gradient error          =      8.6E-02 Ry/Bohr

     number of scf cycles    =   2
     number of bfgs steps    =   1

     energy             old  =   -2246.2037579812 Ry
     energy             new  =   -2246.2210358993 Ry

     CASE: energy            _new < energy            _old


     WARNING: bfgs curvature condition failed, Theta= 0.991
     new trust radius        =       0.0863139179 bohr
     new conv_thr            =       0.0000000858 Ry


ATOMIC_POSITIONS (angstrom)
Mo            6.5863817837        1.7667146895        2.8289889375
S             8.1626015988        0.8260576129        4.4310425306
S             8.1812938940        0.8208145115        1.2743225528
Mo            8.0999631525        4.4991801514        2.7162989148
S             6.4959079402        3.7114427158        4.3389929602
S             6.5531316627        3.5223665149        1.1233019478
Mo            6.5087645176        7.2101039566        2.6768950503
S             8.0837326370        6.3442604514        4.2550621179
S             8.0925848839        6.3110573105        1.0954405755
Mo            8.1508947817        9.9082666447        2.8214819849
S             6.5018652933        8.9434793165        4.3730391212
S             6.6144806220        9.0493188139        1.1455009555
Mo            3.4222412763        1.7515297132        2.7659671630
S             4.9821010161        0.8184605720        4.3630520348
S             5.0468656753        0.8490993254        1.2161820869
Mo            4.9745105813        4.5172456271        2.6644566808
S             3.4358759403        3.6704084202        4.2835518353
S             3.4363762409        3.5421129102        1.0714357245
Mo            3.4472015078        7.2032432249        2.6676034931
S             4.9868076323        6.3225261894        1.0419670778
Mo            5.0069197378        9.9060530538        2.7461944385
S             3.4625140682        8.9452076129        4.3202989831
S             3.4091395037        9.0647181416        1.1059005822
Mo            0.2876057807        1.7458699391        2.8302449589
S             1.8670765132        0.8117311480        4.4014077976
S             1.8498554508        0.8530908730        1.2075839627
Mo            1.8603478355        4.4952608330        2.6702708167
S             0.2720008209        3.6525909021        4.3340055492
S             0.2336694179        3.5275373531        1.1679778772
Mo            0.2624763903        7.2117378989        2.7037924659
S             1.9065778895        6.3167296495        4.2385613325
S             1.8542915169        6.3168743169        1.0535552241
Mo            1.8575622275        9.9342744616        2.7661218744
S             0.2990780218        9.0487369476        4.4001358049
S             0.2695729033        9.0562764378        1.1626059254
O             4.2130807411        6.0781792807        5.3915201983



     Writing config-only to output data dir ./MoS2-V-O.save/
     NEW-OLD atomic charge density approx. for the potential

     negative rho (up, down):  1.873E-04 0.000E+00

     total cpu time spent up to now is      249.4 secs

     Self-consistent Calculation

     iteration #  1     ecut=    80.00 Ry     beta= 0.70
     Davidson diagonalization with overlap
     ethr =  1.00E-06,  avg # of iterations =  8.0

     negative rho (up, down):  1.332E-04 0.000E+00

     total cpu time spent up to now is      263.7 secs

     total energy              =   -2246.23335096 Ry
     estimated scf accuracy    <       0.00674792 Ry

     iteration #  2     ecut=    80.00 Ry     beta= 0.70
     Davidson diagonalization with overlap
     ethr =  2.16E-06,  avg # of iterations =  7.0

     negative rho (up, down):  1.287E-04 0.000E+00

     total cpu time spent up to now is      276.0 secs

     total energy              =   -2246.23149404 Ry
     estimated scf accuracy    <       0.11382601 Ry

     iteration #  3     ecut=    80.00 Ry     beta= 0.70
     Davidson diagonalization with overlap
     ethr =  2.16E-06,  avg # of iterations =  6.0

     negative rho (up, down):  4.659E-05 0.000E+00

     total cpu time spent up to now is      287.8 secs

     total energy              =   -2246.23517677 Ry
     estimated scf accuracy    <       0.00024318 Ry

     iteration #  4     ecut=    80.00 Ry     beta= 0.70
     Davidson diagonalization with overlap
     ethr =  7.79E-08,  avg # of iterations =  6.0

     negative rho (up, down):  3.321E-05 0.000E+00

     total cpu time spent up to now is      301.4 secs

     total energy              =   -2246.23521815 Ry
     estimated scf accuracy    <       0.00002627 Ry

     iteration #  5     ecut=    80.00 Ry     beta= 0.70
     Davidson diagonalization with overlap
     ethr =  8.42E-09,  avg # of iterations =  5.0

     negative rho (up, down):  2.708E-05 0.000E+00

     total cpu time spent up to now is      316.3 secs

     total energy              =   -2246.23522730 Ry
     estimated scf accuracy    <       0.00000463 Ry

     iteration #  6     ecut=    80.00 Ry     beta= 0.70
     Davidson diagonalization with overlap
     ethr =  1.48E-09,  avg # of iterations =  5.0

     negative rho (up, down):  2.494E-05 0.000E+00

     total cpu time spent up to now is      326.8 secs

     total energy              =   -2246.23522784 Ry
     estimated scf accuracy    <       0.00000162 Ry

     iteration #  7     ecut=    80.00 Ry     beta= 0.70
     Davidson diagonalization with overlap
     ethr =  5.18E-10,  avg # of iterations =  5.0

     negative rho (up, down):  2.862E-05 0.000E+00

     total cpu time spent up to now is      340.1 secs

     total energy              =   -2246.23522823 Ry
     estimated scf accuracy    <       0.00000159 Ry

     iteration #  8     ecut=    80.00 Ry     beta= 0.70
     Davidson diagonalization with overlap
     ethr =  5.08E-10,  avg # of iterations =  2.0

     negative rho (up, down):  4.468E-05 0.000E+00

     total cpu time spent up to now is      353.5 secs

     total energy              =   -2246.23522851 Ry
     estimated scf accuracy    <       0.00000073 Ry

     iteration #  9     ecut=    80.00 Ry     beta= 0.70
     Davidson diagonalization with overlap
     ethr =  2.33E-10,  avg # of iterations =  2.0

     negative rho (up, down):  7.994E-05 0.000E+00

     total cpu time spent up to now is      365.7 secs

     total energy              =   -2246.23522863 Ry
     estimated scf accuracy    <       0.00000023 Ry

     iteration # 10     ecut=    80.00 Ry     beta= 0.70
     Davidson diagonalization with overlap
     ethr =  7.27E-11,  avg # of iterations =  5.0

     negative rho (up, down):  1.513E-04 0.000E+00

     total cpu time spent up to now is      369.2 secs

     End of self-consistent calculation

          k = 0.0000 0.0000 0.0000 (105382 PWs)   bands (ev):

   -63.1124 -63.0888 -63.0681 -63.0613 -63.0493 -63.0382 -63.0330 -63.0240
   -63.0150 -63.0128 -62.9948 -62.9565 -37.4525 -37.4007 -37.3496 -37.3447
   -37.3250 -37.3178 -37.3086 -37.2906 -37.2775 -37.2681 -37.2565 -37.2524
   -37.2472 -37.2345 -37.2269 -37.2225 -37.2194 -37.2157 -37.2120 -37.2072
   -37.1982 -37.1965 -37.1907 -37.1710 -37.1555 -37.1440 -37.1169 -37.1080
   -37.0998 -37.0908 -37.0766 -37.0596 -37.0378 -37.0145 -36.9994 -36.9747
   -16.9076 -16.1279 -15.3553 -15.3103 -15.1309 -15.0696 -14.9599 -14.6460
   -14.6422 -14.6046 -14.5926 -14.5618 -14.5159 -14.4980 -14.4409 -14.3060
   -14.2974 -14.2882 -14.2566 -14.1879 -14.0510 -14.0274 -14.0132 -13.9596
    -7.8262  -7.6625  -7.4762  -7.4643  -7.4152  -7.3891  -7.3649  -7.3134
    -7.0048  -7.0002  -6.9286  -6.9148  -6.8240  -6.6948  -6.6719  -6.6017
    -6.5617  -6.4557  -6.4161  -6.1553  -6.0717  -6.0692  -5.9999  -5.9763
    -5.9396  -5.9176  -5.8799  -5.8317  -5.8237  -5.7965  -5.7113  -5.6803
    -5.6188  -5.5685  -5.5481  -5.3276  -5.2979  -5.2129  -5.1932  -5.1697
    -5.1053  -5.0943  -5.0188  -4.8423  -4.7077  -4.5073  -4.4735  -4.4214
    -4.4123  -4.3495  -4.2385  -4.1422  -3.9912  -3.9648  -3.9323  -3.8867
    -3.8500  -3.8372  -3.7236  -3.7017  -3.6872  -3.6707  -3.6536  -3.6147
    -3.5586  -3.5474  -3.3952  -3.2915  -3.1511  -3.0730  -3.0201  -2.9560
    -2.9471  -2.8954  -2.8701  -2.8555  -2.8222  -2.7604  -2.7521  -2.4065
    -2.2051  -2.1775  -1.8328  -1.7862  -1.5060  -0.9467  -0.8216  -0.3571
    -0.3269  -0.2541  -0.1741  -0.0956  -0.0496  -0.0219   0.0376   0.1004
     0.1248   0.1939   0.2280   0.2770   0.3496   0.3600   0.3813   0.4059
     0.4979   0.5287   0.5539   0.6045   0.6109   0.6487   0.7105   0.7328
     0.7905   0.8502   0.9075

     the Fermi energy is    -1.6385 ev

!    total energy              =   -2246.23522869 Ry
     estimated scf accuracy    <       0.00000002 Ry
     smearing contrib. (-TS)   =      -0.00465402 Ry
     internal energy E=F+TS    =   -2246.23057467 Ry

     The total energy is F=E-TS. E is the sum of the following terms:
     one-electron contribution =  -18427.08433737 Ry
     hartree contribution      =    9200.91922862 Ry
     xc contribution           =    -391.66771438 Ry
     ewald contribution        =    7381.47865282 Ry
     one-center paw contrib.   =      -9.87640437 Ry

     convergence has been achieved in  10 iterations

     negative rho (up, down):  1.513E-04 0.000E+00

     Forces acting on atoms (cartesian axes, Ry/au):

     atom    1 type  1   force =    -0.00262827   -0.00426108   -0.00339201
     atom    2 type  2   force =    -0.00491525    0.00641403   -0.00445090
     atom    3 type  2   force =    -0.00911305    0.00565639   -0.00993545
     atom    4 type  1   force =     0.00331506    0.00176640    0.00132664
     atom    5 type  2   force =     0.00163620   -0.01090355   -0.00278535
     atom    6 type  2   force =    -0.00244081    0.00672473    0.00817290
     atom    7 type  1   force =     0.00882606   -0.00346464    0.00521554
     atom    8 type  2   force =     0.00260506   -0.00319266    0.01073819
     atom    9 type  2   force =     0.00848974    0.00396231    0.00492664
     atom   10 type  1   force =    -0.00127728    0.00475121   -0.00117587
     atom   11 type  2   force =     0.00561423    0.00192036   -0.00842975
     atom   12 type  2   force =    -0.00577515   -0.00057327    0.00149041
     atom   13 type  1   force =     0.00219635    0.00174776   -0.00170907
     atom   14 type  2   force =     0.00272481    0.00135848    0.00574908
     atom   15 type  2   force =    -0.00521405    0.00115579   -0.00603291
     atom   16 type  1   force =    -0.00236949    0.00270264    0.01668501
     atom   17 type  2   force =     0.00205229   -0.00427817    0.00675813
     atom   18 type  2   force =     0.00057502    0.00000960    0.01164678
     atom   19 type  1   force =     0.00018972   -0.00793641    0.02077198
     atom   20 type  2   force =     0.00029394   -0.00327802    0.01385342
     atom   21 type  1   force =    -0.00302059    0.00166804    0.00279046
     atom   22 type  2   force =    -0.00561620    0.00394798    0.00070865
     atom   23 type  2   force =     0.00280409   -0.00578468    0.00935941
     atom   24 type  1   force =    -0.00370075   -0.00000135   -0.00312936
     atom   25 type  2   force =     0.00779086    0.01124131   -0.00496690
     atom   26 type  2   force =    -0.00570433   -0.00193736   -0.00349419
     atom   27 type  1   force =    -0.00157106   -0.00028171    0.00638749
     atom   28 type  2   force =    -0.00095528   -0.00309952   -0.00333045
     atom   29 type  2   force =     0.00243778    0.00310019   -0.00371430
     atom   30 type  1   force =    -0.00318959   -0.00525400    0.00464049
     atom   31 type  2   force =    -0.00282000   -0.00086208    0.01488454
     atom   32 type  2   force =    -0.00321525    0.00386705    0.01107110
     atom   33 type  1   force =     0.00210212    0.00044502    0.00288466
     atom   34 type  2   force =    -0.00042774   -0.02270792   -0.01550806
     atom   35 type  2   force =    -0.00328113    0.00753711    0.00552095
     atom   36 type  3   force =     0.01358195    0.00784001   -0.09352792
     The non-local contrib.  to forces
     atom    1 type  1   force =     0.00723917    0.02351384   -0.01011483
     atom    2 type  2   force =    -0.00341661   -0.00841085   -0.27359940
     atom    3 type  2   force =    -0.01039568   -0.00764833    0.25933947
     atom    4 type  1   force =     0.00199732    0.00796798    0.00462279
     atom    5 type  2   force =     0.01036457   -0.03717537   -0.26534742
     atom    6 type  2   force =    -0.00768190    0.00467508    0.27234918
     atom    7 type  1   force =     0.00182674   -0.00176319   -0.02920993
     atom    8 type  2   force =     0.00539526   -0.01090331   -0.25502745
     atom    9 type  2   force =     0.00464477   -0.00170115    0.27166806
     atom   10 type  1   force =     0.00217458    0.01128197   -0.00322031
     atom   11 type  2   force =     0.01253447    0.00745333   -0.26543070
     atom   12 type  2   force =    -0.01114606   -0.02091710    0.26388537
     atom   13 type  1   force =    -0.00736099    0.03201105   -0.00062390
     atom   14 type  2   force =     0.00852511   -0.01238445   -0.27144613
     atom   15 type  2   force =    -0.00803087   -0.01008620    0.26173423
     atom   16 type  1   force =    -0.00573398    0.00812697   -0.03444380
     atom   17 type  2   force =    -0.00619671   -0.00621499   -0.27717090
[...]
     atom   28 type  2   force =    -0.00030884   -0.01190273   -0.26448585
     atom   29 type  2   force =    -0.00007578   -0.00940640    0.26467278
     atom   30 type  1   force =     0.00003942    0.01764133   -0.00638873
     atom   31 type  2   force =    -0.01401342   -0.00843584   -0.26616652
     atom   32 type  2   force =     0.00821763   -0.01235297    0.27021377
     atom   33 type  1   force =    -0.00118910    0.01340689   -0.00083854
     atom   34 type  2   force =    -0.00018795   -0.01102020   -0.26892948
     atom   35 type  2   force =    -0.00006397   -0.01045343    0.26571195
     atom   36 type  3   force =    -0.00193666   -0.00697866   -1.35962078
     The ionic contribution  to forces
     atom    1 type  1   force =     0.24939810    0.04748582    1.30079750
     atom    2 type  2   force =     0.00142238    0.05121128   38.81531072
     atom    3 type  2   force =     0.12696697   -0.01425235  -38.10414173
     atom    4 type  1   force =     1.12206975   -0.75877996    0.43428511
     atom    5 type  2   force =    -0.02337259   -0.29603744   38.75060065
     atom    6 type  2   force =     0.37753030   -0.71905658  -38.56488849
     atom    7 type  1   force =     4.49524375    2.46355848   -2.52416791
     atom    8 type  2   force =     0.22742276    0.08859146   38.84062157
     atom    9 type  2   force =     0.68145860   -0.00104316  -38.47034349
     atom   10 type  1   force =     0.19312673    0.44182275    1.57826576
     atom   11 type  2   force =     0.26174230    0.05671690   38.94846530
     atom   12 type  2   force =     0.41116525    0.63886942  -38.57735493
     atom   13 type  1   force =    -0.26094144   -0.00072190    1.25186708
     atom   14 type  2   force =    -0.00734721   -0.01352135   38.87570261
     atom   15 type  2   force =     0.00864342   -0.02239077  -38.31537830
     atom   16 type  1   force =     0.01434773   -5.16278698   -2.97104917
     atom   17 type  2   force =     0.02972665   -0.29130845   38.75070792
     atom   18 type  2   force =    -0.37328211   -0.71609675  -38.59424629
     atom   19 type  1   force =    -4.49453096    2.47090532   -2.37031482
     atom   20 type  2   force =    -0.00364613   -0.00371497  -41.48617464
     atom   21 type  1   force =     0.00398611    1.48654481    0.60249480
     atom   22 type  2   force =    -0.25755647    0.04364939   38.95117371
     atom   23 type  2   force =    -0.41331454    0.61956043  -38.56209306
     atom   24 type  1   force =     0.00524217   -0.03991151    1.13288424
     atom   25 type  2   force =     0.00677422    0.05431199   38.81905805
     atom   26 type  2   force =    -0.12629000   -0.02171033  -38.09302156
     atom   27 type  1   force =    -1.14274019   -0.73936526    0.33051110
     atom   28 type  2   force =    -0.00410762    0.00329927   38.64389383
     atom   29 type  2   force =    -0.00995660   -0.25588597  -38.27584207
     atom   30 type  1   force =     0.01323130   -0.14675247    1.86341449
     atom   31 type  2   force =    -0.22200580    0.09214301   38.85684505
     atom   32 type  2   force =    -0.68424564    0.01502643  -38.49888113
     atom   33 type  1   force =    -0.19880775    0.46133315    1.66229485
     atom   34 type  2   force =    -0.00664077    0.01140016   39.05096576
     atom   35 type  2   force =     0.00366940    0.24688568  -38.17499867
     atom   36 type  3   force =    -0.00438207   -0.08997955   34.12273618
     The local contribution  to forces
     atom    1 type  1   force =    -0.24973309   -0.06280885   -1.29877405
     atom    2 type  2   force =    -0.00242831   -0.04005071  -38.56940222
     atom    3 type  2   force =    -0.12557917    0.02450442   37.85859871
     atom    4 type  1   force =    -1.12376407    0.74547780   -0.43206982
     atom    5 type  2   force =     0.01677223    0.31951395  -38.50596032
     atom    6 type  2   force =    -0.37466736    0.72144102   38.31632859
     atom    7 type  1   force =    -4.53430550   -2.49596463    2.55243302
     atom    8 type  2   force =    -0.24082108   -0.08041102  -38.59561723
     atom    9 type  2   force =    -0.67381017    0.01236036   38.22112578
     atom   10 type  1   force =    -0.19348830   -0.45470305   -1.57566809
     atom   11 type  2   force =    -0.26738826   -0.05693309  -38.70401069
     atom   12 type  2   force =    -0.40268887   -0.62362976   38.33079029
     atom   13 type  1   force =     0.25942685   -0.01709635   -1.24873986
     atom   14 type  2   force =     0.00728853    0.02495424  -38.62919285
     atom   15 type  2   force =    -0.00850326    0.03427421   38.06869207
     atom   16 type  1   force =    -0.01368063    5.19017954    3.00490780
     atom   17 type  2   force =    -0.02309501    0.31467632  -38.50611003
     atom   18 type  2   force =     0.37069021    0.71847515   38.34572576
     atom   19 type  1   force =     4.53340344   -2.50229233    2.39719345
     atom   20 type  2   force =     0.00354531    0.01462341   41.26998584
     atom   21 type  1   force =    -0.00347767   -1.50586441   -0.60094601
     atom   22 type  2   force =     0.26327597   -0.04376596  -38.70626575
     atom   23 type  2   force =     0.40490336   -0.60451024   38.31567771
     atom   24 type  1   force =    -0.00470305    0.02585331   -1.13108816
     atom   25 type  2   force =    -0.00579130   -0.04308016  -38.57336097
     atom   26 type  2   force =     0.12477392    0.03173062   37.84752106
     atom   27 type  1   force =     1.14444653    0.72641514   -0.32835483
     atom   28 type  2   force =     0.00411677    0.00830208  -38.39970921
     atom   29 type  2   force =     0.00971962    0.26444159   38.03060587
     atom   30 type  1   force =    -0.01292957    0.12896854   -1.85792091
     atom   31 type  2   force =     0.23518272   -0.08407302  -38.61207442
     atom   32 type  2   force =     0.67655029   -0.00345173   38.25042137
     atom   33 type  1   force =     0.19946651   -0.47386548   -1.66055001
     atom   34 type  2   force =     0.00652836   -0.00149316  -38.80352648
     atom   35 type  2   force =    -0.00360038   -0.23576250   37.92951988
     atom   36 type  3   force =     0.00537073    0.09690603  -32.77831135
     The core correction contribution to forces
     atom    1 type  1   force =     0.00000000    0.00000000    0.00000000
     atom    2 type  2   force =    -0.00003425    0.00048173    0.02081936
     atom    3 type  2   force =     0.00006580    0.00042714   -0.02083544
     atom    4 type  1   force =     0.00000000    0.00000000    0.00000000
     atom    5 type  2   force =    -0.00063521    0.00119269    0.02079120
     atom    6 type  2   force =     0.00032816   -0.00013739   -0.02100078
     atom    7 type  1   force =     0.00000000    0.00000000    0.00000000
     atom    8 type  2   force =    -0.00087621    0.00060957    0.02081000
     atom    9 type  2   force =     0.00067982    0.00057310   -0.02100748
     atom   10 type  1   force =     0.00000000    0.00000000    0.00000000
     atom   11 type  2   force =    -0.00020120   -0.00031656    0.02084417
     atom   12 type  2   force =     0.00049263    0.00100276   -0.02096365
     atom   13 type  1   force =     0.00000000    0.00000000    0.00000000
     atom   14 type  2   force =     0.00001421    0.00040510    0.02098297
     atom   15 type  2   force =    -0.00001118    0.00052396   -0.02096095
     atom   16 type  1   force =     0.00000000    0.00000000    0.00000000
     atom   17 type  2   force =     0.00057290    0.00117903    0.02078873
     atom   18 type  2   force =    -0.00031215   -0.00013223   -0.02099873
     atom   19 type  1   force =     0.00000000    0.00000000    0.00000000
     atom   20 type  2   force =     0.00000039    0.00058999   -0.01959207
     atom   21 type  1   force =     0.00000000    0.00000000    0.00000000
     atom   22 type  2   force =     0.00018876   -0.00027009    0.02084201
     atom   23 type  2   force =    -0.00052102    0.00102547   -0.02097743
     atom   24 type  1   force =     0.00000000    0.00000000    0.00000000
     atom   25 type  2   force =     0.00005571    0.00050889    0.02083390
     atom   26 type  2   force =    -0.00006313    0.00040780   -0.02084196
     atom   27 type  1   force =     0.00000000    0.00000000    0.00000000
     atom   28 type  2   force =     0.00002308    0.00062046    0.02080183
     atom   29 type  2   force =    -0.00000093    0.00033925   -0.02076787
     atom   30 type  1   force =     0.00000000    0.00000000    0.00000000
     atom   31 type  2   force =     0.00083053    0.00056357    0.02082701
     atom   32 type  2   force =    -0.00064058    0.00058098   -0.02103545
     atom   33 type  1   force =     0.00000000    0.00000000    0.00000000
     atom   34 type  2   force =     0.00000348    0.00055308    0.02107587
     atom   35 type  2   force =     0.00001190    0.00054360   -0.02091978
     atom   36 type  3   force =     0.00002411    0.00009054    0.01480701
     The Hubbard contrib.    to forces
     atom    1 type  1   force =     0.00000000    0.00000000    0.00000000
     atom    2 type  2   force =     0.00000000    0.00000000    0.00000000
     atom    3 type  2   force =     0.00000000    0.00000000    0.00000000
     atom    4 type  1   force =     0.00000000    0.00000000    0.00000000
     atom    5 type  2   force =     0.00000000    0.00000000    0.00000000
     atom    6 type  2   force =     0.00000000    0.00000000    0.00000000
     atom    7 type  1   force =     0.00000000    0.00000000    0.00000000
     atom    8 type  2   force =     0.00000000    0.00000000    0.00000000
     atom    9 type  2   force =     0.00000000    0.00000000    0.00000000
     atom   10 type  1   force =     0.00000000    0.00000000    0.00000000
     atom   11 type  2   force =     0.00000000    0.00000000    0.00000000
     atom   12 type  2   force =     0.00000000    0.00000000    0.00000000
     atom   13 type  1   force =     0.00000000    0.00000000    0.00000000
     atom   14 type  2   force =     0.00000000    0.00000000    0.00000000
     atom   15 type  2   force =     0.00000000    0.00000000    0.00000000
     atom   16 type  1   force =     0.00000000    0.00000000    0.00000000
     atom   17 type  2   force =     0.00000000    0.00000000    0.00000000
     atom   18 type  2   force =     0.00000000    0.00000000    0.00000000
     atom   19 type  1   force =     0.00000000    0.00000000    0.00000000
     atom   20 type  2   force =     0.00000000    0.00000000    0.00000000
     atom   21 type  1   force =     0.00000000    0.00000000    0.00000000
     atom   22 type  2   force =     0.00000000    0.00000000    0.00000000
     atom   23 type  2   force =     0.00000000    0.00000000    0.00000000
     atom   24 type  1   force =     0.00000000    0.00000000    0.00000000
     atom   25 type  2   force =     0.00000000    0.00000000    0.00000000
     atom   26 type  2   force =     0.00000000    0.00000000    0.00000000
     atom   27 type  1   force =     0.00000000    0.00000000    0.00000000
     atom   28 type  2   force =     0.00000000    0.00000000    0.00000000
     atom   29 type  2   force =     0.00000000    0.00000000    0.00000000
     atom   30 type  1   force =     0.00000000    0.00000000    0.00000000
     atom   31 type  2   force =     0.00000000    0.00000000    0.00000000
     atom   32 type  2   force =     0.00000000    0.00000000    0.00000000
     atom   33 type  1   force =     0.00000000    0.00000000    0.00000000
     atom   34 type  2   force =     0.00000000    0.00000000    0.00000000
     atom   35 type  2   force =     0.00000000    0.00000000    0.00000000
     atom   36 type  3   force =     0.00000000    0.00000000    0.00000000
     The SCF correction term to forces
     atom    1 type  1   force =     0.00000214   -0.00004334   -0.00003463
     atom    2 type  2   force =    -0.00001336   -0.00001884   -0.00001179
     atom    3 type  2   force =     0.00000783   -0.00003514   -0.00002100
     atom    4 type  1   force =     0.00001799    0.00008351    0.00002406
     atom    5 type  2   force =    -0.00000881    0.00002064    0.00001865
     atom    6 type  2   force =     0.00000330    0.00000098   -0.00001037
     atom    7 type  1   force =     0.00000840    0.00010012    0.00007342
     atom    8 type  2   force =     0.00000416    0.00002907    0.00000065
     atom    9 type  2   force =     0.00001005    0.00002600    0.00002098
     atom   10 type  1   force =    -0.00002792   -0.00010379   -0.00008567
     atom   11 type  2   force =    -0.00001309   -0.00003378   -0.00001149
     atom   12 type  2   force =     0.00000555    0.00000642    0.00001293
     atom   13 type  1   force =    -0.00001207   -0.00001969   -0.00002113
     atom   14 type  2   force =    -0.00000208   -0.00002178    0.00001086
     atom   15 type  2   force =     0.00000211   -0.00003300   -0.00001816
     atom   16 type  1   force =    -0.00002659    0.00007244    0.00005418
     atom   17 type  2   force =    -0.00000188    0.00003267    0.00001242
     atom   18 type  2   force =    -0.00001155    0.00000217    0.00000066
     atom   19 type  1   force =    -0.00001250    0.00006833    0.00007140
     atom   20 type  2   force =    -0.00001185    0.00003407    0.00001306
     atom   21 type  1   force =     0.00001922   -0.00011859    0.00000893
     atom   22 type  2   force =     0.00000455   -0.00003568   -0.00001725
     atom   23 type  2   force =    -0.00000700   -0.00000663    0.00002622
     atom   24 type  1   force =     0.00000345   -0.00002220   -0.00009751
     atom   25 type  2   force =     0.00001330   -0.00001974    0.00000489
     atom   26 type  2   force =    -0.00000893   -0.00002457   -0.00002820
     atom   27 type  1   force =     0.00000393    0.00008767    0.00004250
     atom   28 type  2   force =     0.00001230    0.00003440    0.00000527
     atom   29 type  2   force =     0.00000763   -0.00000183   -0.00001106
     atom   30 type  1   force =     0.00003481    0.00004071    0.00004801
     atom   31 type  2   force =     0.00001025    0.00002261    0.00001268
     atom   32 type  2   force =    -0.00000139    0.00002984    0.00001119
     atom   33 type  1   force =     0.00000791   -0.00012407   -0.00005545
     atom   34 type  2   force =     0.00000915   -0.00004001   -0.00001042
     atom   35 type  2   force =     0.00000034    0.00000414    0.00000122
     atom   36 type  3   force =    -0.00001054    0.00003991    0.00003354

     Total force =     0.006327     Total SCF correction =     0.000384
     Energy error            =      7.9E-05 Ry
     Gradient error          =      1.7E-03 Ry/Bohr

     bfgs converged in  26 scf cycles and  25 bfgs steps
     (criteria: energy <  1.0E-04 Ry, force <  1.0E-02 Ry/Bohr)

     End of BFGS Geometry Optimization

     Final energy             =   -2246.7162291527 Ry

     File ./MoS2-V-O.bfgs deleted, as requested
Begin final coordinates

ATOMIC_POSITIONS (angstrom)
Mo            6.5414004983        1.7442898271        2.8002788508
S             8.1162819131        0.8378405116        4.3992536435
S             8.1203905990        0.8312090661        1.2122869535
Mo            8.1173873341        4.4803641352        2.7822485571
S             6.5100160527        3.6231145510        4.3687567041
S             6.5424464544        3.5639771672        1.1831582997
Mo            6.4970583668        7.1767674381        2.7380830738
S             8.0740107631        6.3069104556        4.3745915417
S             8.1335933511        6.3160892665        1.1911121123
Mo            8.1187042832        9.9271653105        2.8063687614
S             6.5195441830        8.9750393534        4.3808424509
S             6.5577658094        9.0319911677        1.1894388329
Mo            3.4078435841        1.7473058358        2.7990281532
S             4.9747199754        0.8291760219        4.3961389351
S             4.9728937827        0.8340112566        1.1988090981
Mo            4.9730158660        4.5427825382        2.7301731563
S             3.4339743028        3.6237113895        4.3678255525
S             3.4049629452        3.5650230325        1.1819307456
Mo            3.4501579832        7.1760684039        2.7404010562
S             4.9736997538        6.3121450623        1.0487293575
Mo            4.9722777037        9.9240238836        2.7880624532
S             3.4253249502        8.9774761083        4.3808464773
S             3.3857899758        9.0336252539        1.1899335161
Mo            0.2452154303        1.7388712446        2.8027433934
S             1.8326538896        0.8406665970        4.4007848933
S             1.8273949413        0.8322573688        1.2122621708
Mo            1.8292400418        4.4807249159        2.7805161142
S             0.2457139597        3.5844787555        4.3806915180
S             0.2450257034        3.5641915284        1.1975976354
Mo            0.2457439688        7.2149659195        2.8041068905
S             1.8713610605        6.3047359810        4.3761048077
S             1.8163593545        6.3161495652        1.1880331801
Mo            1.8271580288        9.9284200596        2.8080167740
S             0.2451076628        9.0315397871        4.4078964026
S             0.2452595598        9.0351307326        1.2126403455
O             4.9758574239        6.3003180299        3.8350691287
End final coordinates



     Writing all to output data dir ./MoS2-V-O.save/
 
     init_run     :      4.67s CPU      5.20s WALL (       1 calls)
     electrons    :   2390.38s CPU   2701.73s WALL (      26 calls)
     update_pot   :     76.23s CPU     81.17s WALL (      25 calls)
     forces       :     71.12s CPU     81.01s WALL (      26 calls)

     Called by init_run:
     wfcinit      :      0.47s CPU      0.53s WALL (       1 calls)
     potinit      :      2.44s CPU      2.70s WALL (       1 calls)
     hinit0       :      0.44s CPU      0.47s WALL (       1 calls)

     Called by electrons:
     c_bands      :    361.47s CPU    369.80s WALL (     245 calls)
     sum_band     :    137.21s CPU    176.56s WALL (     245 calls)
     v_of_rho     :    228.60s CPU    277.74s WALL (     261 calls)
     newd         :     80.96s CPU    117.67s WALL (     261 calls)
     PAW_pot      :     10.42s CPU     10.45s WALL (     286 calls)
     mix_rho      :   1597.82s CPU   1778.05s WALL (     245 calls)

     Called by c_bands:
     init_us_2    :      5.66s CPU      6.08s WALL (     516 calls)
     init_us_2:cp :      5.66s CPU      6.08s WALL (     516 calls)
     regterg      :    343.37s CPU    351.25s WALL (     245 calls)

     Called by *egterg:
     rdiaghg      :     23.87s CPU     24.13s WALL (    1351 calls)
     h_psi        :    221.33s CPU    223.24s WALL (    1387 calls)
     s_psi        :     21.25s CPU     21.31s WALL (    1387 calls)
     g_psi        :      1.08s CPU      1.10s WALL (    1141 calls)

     Called by h_psi:
     h_psi:calbec :     24.37s CPU     24.49s WALL (    1387 calls)
     vloc_psi     :    173.02s CPU    174.66s WALL (    1387 calls)
     add_vuspsi   :     21.20s CPU     21.32s WALL (    1387 calls)

     General routines
     calbec       :     35.05s CPU     35.24s WALL (    1761 calls)
     fft          :    154.52s CPU    179.50s WALL (   17438 calls)
     ffts         :    718.05s CPU    891.93s WALL (  392859 calls)
     fftw         :    109.63s CPU    110.54s WALL (  152432 calls)
     interpolate  :      3.22s CPU      3.69s WALL (     261 calls)
 
     Parallel routines
 
     PWSCF        :  42m33.70s CPU  48m 5.52s WALL

 
   This run was terminated on:  18:43: 2   1Nov2023            

=------------------------------------------------------------------------------=
   JOB DONE.
=------------------------------------------------------------------------------=
