
     Program PWSCF v.7.2 starts on  1Nov2023 at 18:43: 4 

     This program is part of the open-source Quantum ESPRESSO suite
     for quantum simulation of materials; please cite
         "P. Giannozzi et al., J. Phys.:Condens. Matter 21 395502 (2009);
         "P. Giannozzi et al., J. Phys.:Condens. Matter 29 465901 (2017);
         "P. Giannozzi et al., J. Chem. Phys. 152 154105 (2020);
          URL http://www.quantum-espresso.org", 
     in publications or presentations arising from this work. More details at
     http://www.quantum-espresso.org/quote

     Parallel version (MPI & OpenMP), running on      48 processor cores
     Number of MPI processes:                48
     Threads/MPI process:                     1

     MPI processes distributed on     1 nodes
     76272 MiB available memory on the printing compute node when the environment starts
 
     Waiting for input...
     Reading input from standard input
Warning: card &CELL ignored
Warning: card CELL_DYNAMICS = 'BFGS', ignored
Warning: card CELL_DOFREE = '2DXY' ignored
Warning: card / ignored

     Current dimensions of program PWSCF are:
     Max number of different atomic species (ntypx) = 10
     Max number of k-points (npk) =  40000
     Max angular momentum in pseudopotentials (lmaxx) =  4
     file O.pbe-n-kjpaw_psl.0.1.UPF: wavefunction(s)  2P renormalized

     IMPORTANT: XC functional enforced from input :
     Exchange-correlation= RVV10
                           (   1   4  13   4  26   0   0)
     Any further DFT definition will be discarded
     Please, verify this is what you really want


     gamma-point specific algorithms are used
     signal trapping enabled: kill the code with -SIGUSR1 to stop cleanly the simulation 
 
     R & G space division:  proc/nbgrp/npool/nimage =      48
     Subspace diagonalization in iterative solution of the eigenvalue problem:
     one sub-group per band group will be used
     scalapack distributed-memory algorithm (size of sub-group:  2*  2 procs)

 
     Parallelization info
     --------------------
     sticks:   dense  smooth     PW     G-vecs:    dense   smooth      PW
     Min         396     194     47               101632    35090    4376
     Max         398     196     50               101674    35128    4410
     Sum       19091    9389   2349              4879585  1685513  210763
 
     Using Slab Decomposition
 


     bravais-lattice index     =            0
     lattice parameter (alat)  =      17.8707  a.u.
     unit-cell volume          =   17436.2743 (a.u.)^3
     number of atoms/cell      =           36
     number of atomic types    =            3
     number of electrons       =       312.00
     number of Kohn-Sham states=          187
     kinetic-energy cutoff     =      80.0000  Ry
     charge density cutoff     =     650.0000  Ry
     scf convergence threshold =      1.0E-06
     mixing beta               =       0.7000
     number of iterations used =            8  local-TF  mixing
     energy convergence thresh.=      1.0E-04
     force convergence thresh. =      1.0E-02
     Exchange-correlation= RVV10
                           (   1   4  13   4  26   0   0)
     nstep                     =          200


     celldm(1)=  17.870686  celldm(2)=   0.000000  celldm(3)=   0.000000
     celldm(4)=   0.000000  celldm(5)=   0.000000  celldm(6)=   0.000000

     crystal axes: (cart. coord. in units of alat)
               a(1) = (   1.000000   0.000000   0.000000 )  
               a(2) = (   0.000000   1.155671   0.000000 )  
               a(3) = (   0.000000   0.000000   2.643601 )  

     reciprocal axes: (cart. coord. in units 2 pi/alat)
               b(1) = (  1.000000  0.000000  0.000000 )  
               b(2) = (  0.000000  0.865298  0.000000 )  
               b(3) = (  0.000000  0.000000  0.378272 )  


     PseudoPot. # 1 for Mo read from file:
     ../pseudo/Mo_ONCV_PBE-1.0.oncvpsp.upf
     MD5 check sum: 1b5d28e075c9ccadda658a603575cd1f
     Pseudo is Norm-conserving, Zval = 14.0
     Generated using ONCVPSP code by D. R. Hamann
     Using radial grid of 1526 points,  6 beta functions with: 
                l(1) =   0
                l(2) =   0
                l(3) =   1
                l(4) =   1
                l(5) =   2
                l(6) =   2

     PseudoPot. # 2 for S  read from file:
     ../pseudo/s_pbe_v1.4.uspp.F.UPF
     MD5 check sum: 88d86576ff6df21479756cfb9bdac1df
     Pseudo is Ultrasoft + core correction, Zval =  6.0
     Generated by new atomic code, or converted to UPF format
     Using radial grid of  907 points,  6 beta functions with: 
                l(1) =   0
                l(2) =   0
                l(3) =   1
                l(4) =   1
                l(5) =   2
                l(6) =   2
     Q(r) pseudized with  8 coefficients,  rinner =    1.300   1.300   1.300
                                                       1.300   1.300

     PseudoPot. # 3 for O  read from file:
     ../pseudo/O.pbe-n-kjpaw_psl.0.1.UPF
     MD5 check sum: 0234752ac141de4415c5fc33072bef88
     Pseudo is Projector augmented-wave + core cor, Zval =  6.0
     Generated using "atomic" code by A. Dal Corso  v.5.0.99 svn rev. 10869
     Shape of augmentation charge: BESSEL
     Using radial grid of 1095 points,  4 beta functions with: 
                l(1) =   0
                l(2) =   0
                l(3) =   1
                l(4) =   1
     Q(r) pseudized with 0 coefficients 


     atomic species   valence    mass     pseudopotential
        Mo            14.00    95.94000     Mo( 1.00)
        S              6.00    32.06500     S ( 1.00)
        O              6.00    15.99940     O ( 1.00)

     No symmetry found



   Cartesian axes

     site n.     atom                  positions (alat units)
         1           Mo  tau(   1) = (   0.6952221   0.1890506   0.2985846  )
         2           S   tau(   2) = (   0.8646417   0.0856217   0.4689279  )
         3           S   tau(   3) = (   0.8663890   0.0857843   0.1351291  )
         4           Mo  tau(   4) = (   0.8560186   0.4753274   0.2873942  )
         5           S   tau(   5) = (   0.6873294   0.3936244   0.4596353  )
         6           S   tau(   6) = (   0.6929804   0.3713468   0.1185692  )
         7           Mo  tau(   7) = (   0.6862796   0.7633098   0.2825370  )
         8           S   tau(   8) = (   0.8545980   0.6708292   0.4486168  )
         9           S   tau(   9) = (   0.8545123   0.6666874   0.1146125  )
        10           Mo  tau(  10) = (   0.8629403   1.0471007   0.3006803  )
        11           S   tau(  11) = (   0.6868280   0.9456650   0.4634891  )
        12           S   tau(  12) = (   0.6998113   0.9568511   0.1205389  )
        13           Mo  tau(  13) = (   0.3618216   0.1847309   0.2935964  )
        14           S   tau(  14) = (   0.5260962   0.0863870   0.4600448  )
        15           S   tau(  15) = (   0.5348379   0.0894875   0.1297123  )
        16           Mo  tau(  16) = (   0.5265817   0.4772436   0.2784130  )
        17           S   tau(  17) = (   0.3624753   0.3882513   0.4525556  )
        18           S   tau(  18) = (   0.3635411   0.3752055   0.1119148  )
        19           Mo  tau(  19) = (   0.3652268   0.7630864   0.2781795  )
        20           S   tau(  20) = (   0.5269494   0.6690381   0.1096838  )
        21           Mo  tau(  21) = (   0.5300192   1.0470394   0.2900995  )
        22           S   tau(  22) = (   0.3670346   0.9457522   0.4574073  )
        23           S   tau(  23) = (   0.3604225   0.9585725   0.1159032  )
        24           Mo  tau(  24) = (   0.0313099   0.1847895   0.3013130  )
        25           S   tau(  25) = (   0.1956761   0.0838230   0.4650863  )
        26           S   tau(  26) = (   0.1967693   0.0903508   0.1278874  )
        27           Mo  tau(  27) = (   0.1967578   0.4753919   0.2813011  )
        28           S   tau(  28) = (   0.0287851   0.3864324   0.4586755  )
        29           S   tau(  29) = (   0.0244514   0.3729871   0.1239344  )
        30           Mo  tau(  30) = (   0.0286728   0.7631204   0.2856894  )
        31           S   tau(  31) = (   0.2011512   0.6675435   0.4465001  )
        32           S   tau(  32) = (   0.1969214   0.6672839   0.1104564  )
        33           Mo  tau(  33) = (   0.1950294   1.0511147   0.2932237  )
        34           S   tau(  34) = (   0.0312912   0.9612169   0.4667423  )
        35           S   tau(  35) = (   0.0292670   0.9563028   0.1216485  )
        36           O   tau(  36) = (   0.5555556   0.0000000   0.5575849  )

     number of k points=     1  Gaussian smearing, width (Ry)=  0.0100
                       cart. coord. in units 2pi/alat
        k(    1) = (   0.0000000   0.0000000   0.0000000), wk =   2.0000000

     Dense  grid:  2439793 G-vectors     FFT dimensions: ( 150, 180, 384)

     Smooth grid:   842757 G-vectors     FFT dimensions: ( 108, 120, 270)

     Estimated max dynamical RAM per process >     269.22 MB

     Estimated total dynamical RAM >      12.62 GB

     Initial potential from superposition of free atoms

     starting charge     311.9873, renormalised to     312.0000

     negative rho (up, down):  2.749E-04 0.000E+00


---------------------------------------------------------------------------------
Carrying out rVV10 run using the following parameters:
Nqs =      20    Nr_points =    1024   r_max =   100.000
b_value =  6.30000    beta =  0.00901
     q_mesh =  0.00010000  0.00030000  0.00058939  0.00100810
               0.00161396  0.00249058  0.00375900  0.00559430
               0.00824984  0.01209221  0.01765183  0.02569619
               0.03733578  0.05417739  0.07854596  0.11380545
               0.16482331  0.23864234  0.34545298  0.50000000

Gradients computed in Reciprocal space

---------------------------------------------------------------------------------


     Starting wfcs are  216 randomized atomic wfcs
     Checking if some PAW data can be deallocated... 

     total cpu time spent up to now is        5.4 secs

     Self-consistent Calculation

     iteration #  1     ecut=    80.00 Ry     beta= 0.70
     Davidson diagonalization with overlap
     ethr =  1.00E-02,  avg # of iterations =  2.0

     Threshold (ethr) on eigenvalues was too large:
     Diagonalizing with lowered threshold

     Davidson diagonalization with overlap
     ethr =  4.75E-04,  avg # of iterations =  3.0

     negative rho (up, down):  3.686E-08 0.000E+00

     total cpu time spent up to now is       19.3 secs

     total energy              =   -2246.10482473 Ry
     estimated scf accuracy    <       1.73186569 Ry

     iteration #  2     ecut=    80.00 Ry     beta= 0.70
     Davidson diagonalization with overlap
     ethr =  5.55E-04,  avg # of iterations =  4.0

     total cpu time spent up to now is       24.0 secs

     total energy              =   -2246.09886727 Ry
     estimated scf accuracy    <       0.57500035 Ry

     iteration #  3     ecut=    80.00 Ry     beta= 0.70
     Davidson diagonalization with overlap
     ethr =  1.84E-04,  avg # of iterations =  2.0

     total cpu time spent up to now is       28.0 secs

     total energy              =   -2246.11341790 Ry
     estimated scf accuracy    <       0.11669073 Ry

     iteration #  4     ecut=    80.00 Ry     beta= 0.70
     Davidson diagonalization with overlap
     ethr =  3.74E-05,  avg # of iterations = 14.0

     total cpu time spent up to now is       32.7 secs

     total energy              =   -2246.13165307 Ry
     estimated scf accuracy    <       0.02367270 Ry

     iteration #  5     ecut=    80.00 Ry     beta= 0.70
     Davidson diagonalization with overlap
     ethr =  7.59E-06,  avg # of iterations =  9.0

     total cpu time spent up to now is       36.7 secs

     total energy              =   -2246.13084451 Ry
     estimated scf accuracy    <       0.01461024 Ry

     iteration #  6     ecut=    80.00 Ry     beta= 0.70
     Davidson diagonalization with overlap
     ethr =  4.68E-06,  avg # of iterations =  1.0

     total cpu time spent up to now is       40.2 secs

     total energy              =   -2246.12972799 Ry
     estimated scf accuracy    <       0.00903727 Ry

     iteration #  7     ecut=    80.00 Ry     beta= 0.70
     Davidson diagonalization with overlap
     ethr =  2.90E-06,  avg # of iterations =  2.0

     negative rho (up, down):  2.569E-04 0.000E+00

     total cpu time spent up to now is       46.7 secs

     total energy              =   -2246.12869506 Ry
     estimated scf accuracy    <       0.00526337 Ry

     iteration #  8     ecut=    80.00 Ry     beta= 0.70
     Davidson diagonalization with overlap
     ethr =  1.69E-06,  avg # of iterations =  2.0

     negative rho (up, down):  2.261E-02 0.000E+00

     total cpu time spent up to now is       52.9 secs

     total energy              =   -2246.12827092 Ry
     estimated scf accuracy    <       0.00298440 Ry

     iteration #  9     ecut=    80.00 Ry     beta= 0.70
     Davidson diagonalization with overlap
     ethr =  9.57E-07,  avg # of iterations =  2.0

     negative rho (up, down):  3.180E-02 0.000E+00

     total cpu time spent up to now is       60.1 secs

     total energy              =   -2246.12819246 Ry
     estimated scf accuracy    <       0.00149702 Ry

     iteration # 10     ecut=    80.00 Ry     beta= 0.70
     Davidson diagonalization with overlap
     ethr =  4.80E-07,  avg # of iterations =  2.0

     negative rho (up, down):  2.146E-02 0.000E+00

     total cpu time spent up to now is       66.2 secs

     total energy              =   -2246.12817858 Ry
     estimated scf accuracy    <       0.00046174 Ry

     iteration # 11     ecut=    80.00 Ry     beta= 0.70
     Davidson diagonalization with overlap
     ethr =  1.48E-07,  avg # of iterations =  4.0

     negative rho (up, down):  9.141E-03 0.000E+00

     total cpu time spent up to now is       73.1 secs

     total energy              =   -2246.12817268 Ry
     estimated scf accuracy    <       0.00006261 Ry

     iteration # 12     ecut=    80.00 Ry     beta= 0.70
     Davidson diagonalization with overlap
     ethr =  2.01E-08,  avg # of iterations =  9.0

     negative rho (up, down):  3.012E-03 0.000E+00

     total cpu time spent up to now is       81.4 secs

     total energy              =   -2246.12821575 Ry
     estimated scf accuracy    <       0.00001198 Ry

     iteration # 13     ecut=    80.00 Ry     beta= 0.70
     Davidson diagonalization with overlap
     ethr =  3.84E-09,  avg # of iterations =  2.0

     negative rho (up, down):  3.258E-04 0.000E+00

     total cpu time spent up to now is       90.9 secs

     total energy              =   -2246.12821837 Ry
     estimated scf accuracy    <       0.00000281 Ry

     iteration # 14     ecut=    80.00 Ry     beta= 0.70
     Davidson diagonalization with overlap
     ethr =  9.02E-10,  avg # of iterations =  4.0

     negative rho (up, down):  2.285E-04 0.000E+00

     total cpu time spent up to now is       94.6 secs

     End of self-consistent calculation

          k = 0.0000 0.0000 0.0000 (105382 PWs)   bands (ev):

   -62.9268 -62.9034 -62.8964 -62.8850 -62.8177 -62.8116 -62.8003 -62.7954
   -62.7880 -62.7831 -62.7682 -62.6206 -37.2391 -37.1959 -37.1805 -37.1588
   -37.1430 -37.1338 -37.1090 -37.1034 -37.0855 -37.0765 -37.0649 -37.0561
   -37.0518 -37.0193 -37.0172 -37.0098 -37.0047 -36.9880 -36.9804 -36.9740
   -36.9672 -36.9517 -36.9432 -36.9416 -36.9334 -36.9174 -36.9102 -36.8878
   -36.8806 -36.8592 -36.8504 -36.8277 -36.7833 -36.7519 -36.7337 -36.6978
   -26.5725 -15.9328 -15.1902 -15.1021 -14.9714 -14.8891 -14.7118 -14.5201
   -14.4884 -14.4533 -14.4048 -14.3666 -14.3543 -14.2913 -14.1956 -14.1512
   -14.1230 -14.1032 -14.0841 -13.9171 -13.8473 -13.8132 -13.7962 -13.3276
    -9.6265  -9.3888  -8.4513  -7.5652  -7.4358  -7.2897  -7.2478  -7.1871
    -7.1476  -7.0721  -6.9685  -6.7911  -6.7734  -6.7156  -6.6628  -6.6511
    -6.4738  -6.4585  -6.3717  -6.2634  -6.2108  -6.0130  -5.9434  -5.8473
    -5.8169  -5.7739  -5.7681  -5.7009  -5.6876  -5.6561  -5.6219  -5.5449
    -5.4842  -5.4664  -5.4367  -5.3271  -5.2364  -5.2081  -5.0636  -5.0452
    -4.9809  -4.9657  -4.9343  -4.8446  -4.8028  -4.5127  -4.4895  -4.3059
    -4.2994  -4.2266  -4.2145  -4.1893  -4.0932  -3.9722  -3.8827  -3.7896
    -3.6977  -3.6891  -3.6223  -3.6050  -3.5522  -3.5097  -3.4957  -3.4706
    -3.4426  -3.3919  -3.3267  -3.2820  -3.0787  -3.0422  -2.9038  -2.8217
    -2.7948  -2.7690  -2.6970  -2.6833  -2.6482  -2.5976  -2.5667  -2.3391
    -2.1370  -1.9457  -1.9380  -1.6995  -0.8635  -0.7266  -0.5489  -0.1517
    -0.1407  -0.0271  -0.0058   0.0175   0.1248   0.1587   0.2334   0.2609
     0.3203   0.3907   0.4572   0.5120   0.5473   0.5755   0.6146   0.6540
     0.7171   0.7342   0.7554   0.7734   0.8781   0.9001   0.9191   0.9321
     1.0434   1.1848   1.2648

     the Fermi energy is    -1.2815 ev

!    total energy              =   -2246.12821993 Ry
     estimated scf accuracy    <       0.00000025 Ry
     smearing contrib. (-TS)   =      -0.00000090 Ry
     internal energy E=F+TS    =   -2246.12821903 Ry

     The total energy is F=E-TS. E is the sum of the following terms:
     one-electron contribution =  -18480.64350007 Ry
     hartree contribution      =    9228.73866409 Ry
     xc contribution           =    -392.52562129 Ry
     ewald contribution        =    7408.14180497 Ry
     one-center paw contrib.   =      -9.83956672 Ry

     convergence has been achieved in  14 iterations

     negative rho (up, down):  2.285E-04 0.000E+00

     Forces acting on atoms (cartesian axes, Ry/au):

     atom    1 type  1   force =     0.01937726   -0.02484196    0.01888858
     atom    2 type  2   force =    -0.01487849    0.01954323   -0.00065787
     atom    3 type  2   force =    -0.01136512    0.00585202   -0.00548567
     atom    4 type  1   force =     0.00510198    0.00318198   -0.00153666
     atom    5 type  2   force =    -0.00000746   -0.00009046   -0.00502996
     atom    6 type  2   force =    -0.00089013    0.01546414   -0.00238619
     atom    7 type  1   force =     0.00938365   -0.01973499   -0.00906029
     atom    8 type  2   force =     0.00094552   -0.00296351    0.01751350
     atom    9 type  2   force =     0.01239098    0.00725199    0.01145090
     atom   10 type  1   force =    -0.01325901    0.00849159   -0.02619633
     atom   11 type  2   force =     0.01858612   -0.02364435   -0.01819581
     atom   12 type  2   force =     0.00109066    0.00003890    0.00849879
     atom   13 type  1   force =    -0.01090462   -0.00079306    0.02836211
     atom   14 type  2   force =    -0.14225462    0.53791880   -0.75204426
     atom   15 type  2   force =    -0.01308273    0.00199972   -0.00781995
     atom   16 type  1   force =     0.00116802    0.01292335    0.00705248
     atom   17 type  2   force =     0.00398498    0.00915974    0.00040379
     atom   18 type  2   force =    -0.00254027   -0.00444730    0.00992973
     atom   19 type  1   force =    -0.00006169   -0.01384981   -0.00597382
     atom   20 type  2   force =     0.00288880   -0.00444362    0.00067388
     atom   21 type  1   force =    -0.01863435   -0.00886805   -0.09661110
     atom   22 type  2   force =    -0.00639789   -0.00538336   -0.00351928
     atom   23 type  2   force =    -0.00170785    0.00047033    0.01109884
     atom   24 type  1   force =    -0.01047823   -0.00415795   -0.01425340
     atom   25 type  2   force =     0.01252673    0.01999389    0.00594691
     atom   26 type  2   force =    -0.01006888   -0.00369432   -0.00796545
     atom   27 type  1   force =    -0.00025210   -0.00045541    0.00704448
     atom   28 type  2   force =     0.00067432   -0.00037169   -0.00440615
     atom   29 type  2   force =     0.00282074    0.00026785   -0.00225123
     atom   30 type  1   force =    -0.00318944    0.01047971   -0.00326055
     atom   31 type  2   force =     0.00113365    0.00027908    0.01678063
     atom   32 type  2   force =    -0.00881374    0.00780563    0.00832938
     atom   33 type  1   force =     0.01507307   -0.00892258   -0.01135820
     atom   34 type  2   force =     0.00250102   -0.04322698   -0.00923659
     atom   35 type  2   force =    -0.00740203    0.00810285    0.01303906
     atom   36 type  3   force =     0.16654110   -0.49933539    0.82223570
     The non-local contrib.  to forces
     atom    1 type  1   force =    -0.02923667    0.01599277    0.00448296
     atom    2 type  2   force =    -0.01005728    0.01420692   -0.27364872
     atom    3 type  2   force =    -0.01027039   -0.00087891    0.26464437
     atom    4 type  1   force =     0.00435939    0.00529146    0.00699159
     atom    5 type  2   force =     0.00325610   -0.04041118   -0.25387563
     atom    6 type  2   force =    -0.00210438    0.01730158    0.25883363
     atom    7 type  1   force =    -0.01212260    0.01003163   -0.02445119
     atom    8 type  2   force =     0.00325337   -0.00323761   -0.25351903
     atom    9 type  2   force =     0.00684766   -0.00988684    0.28025590
     atom   10 type  1   force =     0.00416244   -0.00218913   -0.00131708
     atom   11 type  2   force =     0.04829755   -0.03230907   -0.26137565
     atom   12 type  2   force =    -0.00787958   -0.01548991    0.26289074
     atom   13 type  1   force =     0.01477859    0.00300025   -0.00287553
     atom   14 type  2   force =    -0.08519367    0.22196453   -0.28565933
     atom   15 type  2   force =    -0.01354756   -0.00125312    0.26141071
     atom   16 type  1   force =    -0.00050056    0.03317007   -0.02676098
     atom   17 type  2   force =     0.00231762   -0.03156920   -0.24889938
     atom   18 type  2   force =    -0.00455772   -0.00104816    0.27272160
     atom   19 type  1   force =     0.00990512    0.00365808   -0.01875917
     atom   20 type  2   force =    -0.00137185   -0.02227171    0.26705434
     atom   21 type  1   force =     0.00296752    0.06566734    0.04905468
     atom   22 type  2   force =    -0.02610040   -0.00968170   -0.25904232
     atom   23 type  2   force =     0.00293703   -0.01370439    0.26876798
     atom   24 type  1   force =     0.00318936    0.02082185   -0.00759428
     atom   25 type  2   force =     0.02197867    0.01514695   -0.26293624
     atom   26 type  2   force =    -0.00418374   -0.00935799    0.26083530
     atom   27 type  1   force =    -0.00695340    0.01146884    0.01075801
     atom   28 type  2   force =    -0.00429595   -0.02449349   -0.27596781
     atom   29 type  2   force =     0.00705117    0.00023795    0.26479843
     atom   30 type  1   force =    -0.00028642    0.02049352    0.00785898
     atom   31 type  2   force =    -0.00771892   -0.00040707   -0.25244522
     atom   32 type  2   force =    -0.00311938   -0.01049365    0.27568392
     atom   33 type  1   force =    -0.00327640    0.00728383    0.00505930
     atom   34 type  2   force =     0.00102921   -0.03642537   -0.27168517
     atom   35 type  2   force =    -0.00213771   -0.01052067    0.27137367
     atom   36 type  3   force =    -0.61058167    1.77998569   -1.44529495
     The ionic contribution  to forces
     atom    1 type  1   force =     1.83507767    2.32079953    2.27381352
     atom    2 type  2   force =     0.85326023    0.90710754   38.68696808
     atom    3 type  2   force =     0.07595057    0.12142056  -36.91019664
     atom    4 type  1   force =     0.42058841    0.99449257   -0.35713042
     atom    5 type  2   force =    -0.66264051    2.34284304   38.41034497
     atom    6 type  2   force =     0.43156159   -0.27442960  -38.68559036
     atom    7 type  1   force =    -2.21748189   -3.87326546    1.04556908
     atom    8 type  2   force =    -0.78475010   -0.20760520   37.17951336
     atom    9 type  2   force =     0.41153049   -0.11406133  -38.50966963
     atom   10 type  1   force =     0.45379210   -1.04413093    3.43539608
     atom   11 type  2   force =     0.90705387   -4.02587420   37.96515375
     atom   12 type  2   force =     0.61117132    0.42234051  -38.78140193
     atom   13 type  1   force =    -1.05428986    2.60927467   -0.02569510
     atom   14 type  2   force =    -2.69665990    8.11108284   29.26520945
     atom   15 type  2   force =     0.11598862    0.13652942  -38.07909387
     atom   16 type  1   force =    -0.08911951    4.60013296   -0.81107815
     atom   17 type  2   force =     0.44470532    2.21784036   37.60717812
     atom   18 type  2   force =    -0.25943151   -0.44903084  -39.19053828
     atom   19 type  1   force =     2.24406912   -3.38140791   -0.76207292
     atom   20 type  2   force =     0.21567412   -0.31001574  -39.05406349
     atom   21 type  1   force =    -0.46062711   -2.15853506   -4.82067804
     atom   22 type  2   force =    -0.94569205   -3.36537711   37.54831039
     atom   23 type  2   force =    -0.27503573    0.43085722  -39.14822935
     atom   24 type  1   force =    -0.38909662    1.72845223    4.50207443
     atom   25 type  2   force =    -0.34621295    0.61657019   38.82304338
     atom   26 type  2   force =    -0.47037511    0.15785781  -38.08200715
     atom   27 type  1   force =    -0.23231351    0.75559586   -3.23721792
     atom   28 type  2   force =     0.10179083    1.31226591   38.01896508
     atom   29 type  2   force =    -0.24567110   -0.29740425  -37.78156618
     atom   30 type  1   force =    -0.26744542   -1.38799894   -1.04080880
     atom   31 type  2   force =     1.06701134   -0.24661792   37.12915289
     atom   32 type  2   force =    -0.53602726   -0.07518249  -39.12512369
     atom   33 type  1   force =    -0.30518361   -1.38466608    0.21207003
     atom   34 type  2   force =     0.35242947   -1.81434563   39.10096391
     atom   35 type  2   force =    -0.27217513    0.34220485  -38.43018326
     atom   36 type  3   force =     1.96857382   -5.71771939   51.62861865
     The local contribution  to forces
     atom    1 type  1   force =    -1.78647498   -2.36173898   -2.25937349
     atom    2 type  2   force =    -0.85854977   -0.90116476  -38.43496913
     atom    3 type  2   force =    -0.07751301   -0.11471313   36.66089079
     atom    4 type  1   force =    -0.41998148   -0.99636601    0.34847315
     atom    5 type  2   force =     0.65975549   -2.30482440  -38.18199140
     atom    6 type  2   force =    -0.43071246    0.27407010   38.44520768
     atom    7 type  1   force =     2.23911006    3.84386309   -1.03019278
     atom    8 type  2   force =     0.78253176    0.20751140  -36.92904296
     atom    9 type  2   force =    -0.40587310    0.13073175   38.26219304
     atom   10 type  1   force =    -0.47135336    1.05449084   -3.46012265
     atom   11 type  2   force =    -0.93435453    4.03308369  -37.74304016
     atom   12 type  2   force =    -0.60305683   -0.40825586   38.54803594
     atom   13 type  1   force =     1.02861944   -2.61319816    0.05695200
     atom   14 type  2   force =     2.63360630   -7.77871868  -29.75877567
     atom   15 type  2   force =    -0.11630312   -0.13346593   37.83070319
     atom   16 type  1   force =     0.09080376   -4.62041114    0.84481809
     atom   17 type  2   force =    -0.44290691   -2.17893242  -37.37819375
     atom   18 type  2   force =     0.26139814    0.44626790   38.94892771
     atom   19 type  1   force =    -2.25414416    3.36426783    0.77485468
     atom   20 type  2   force =    -0.21161144    0.32702569   38.80898165
     atom   21 type  1   force =     0.43902452    2.08371861    4.67523028
     atom   22 type  2   force =     0.96434908    3.36966344  -37.31351240
     atom   23 type  2   force =     0.27067395   -0.41803534   38.91165340
     atom   24 type  1   force =     0.37543451   -1.75365438   -4.50868915
     atom   25 type  2   force =     0.33778897   -0.61087832  -38.57506884
     atom   26 type  2   force =     0.46464756   -0.15275256   37.83416330
     atom   27 type  1   force =     0.23914292   -0.76730073    3.23337783
     atom   28 type  2   force =    -0.09711264   -1.28996119  -37.76862977
     atom   29 type  2   force =     0.24203764    0.29803074   37.53530073
     atom   30 type  1   force =     0.26453753    1.37821797    1.02967119
     atom   31 type  2   force =    -1.05862389    0.24729885  -36.88060106
     atom   32 type  2   force =     0.53046484    0.09294393   38.87907005
     atom   33 type  1   force =     0.32367874    1.36813715   -0.22836635
     atom   34 type  2   force =    -0.35125186    1.80636248  -38.85969965
     atom   35 type  2   force =     0.26701279   -0.32461690   38.19315950
     atom   36 type  3   force =    -1.19640240    3.45264975  -49.37032388
     The core correction contribution to forces
     atom    1 type  1   force =     0.00000000    0.00000000    0.00000000
     atom    2 type  2   force =     0.00037937   -0.00077239    0.02087732
     atom    3 type  2   force =     0.00041823   -0.00006786   -0.02061829
     atom    4 type  1   force =     0.00000000    0.00000000    0.00000000
     atom    5 type  2   force =    -0.00040864    0.00227280    0.02032162
     atom    6 type  2   force =     0.00033068   -0.00142054   -0.02068377
     atom    7 type  1   force =     0.00000000    0.00000000    0.00000000
     atom    8 type  2   force =    -0.00009726    0.00054788    0.02037924
     atom    9 type  2   force =    -0.00012841    0.00057563   -0.02116619
     atom   10 type  1   force =     0.00000000    0.00000000    0.00000000
     atom   11 type  2   force =    -0.00245814    0.00150405    0.02094757
     atom   12 type  2   force =     0.00081354    0.00136257   -0.02080389
     atom   13 type  1   force =     0.00000000    0.00000000    0.00000000
     atom   14 type  2   force =     0.00598862   -0.01651387    0.02716844
     atom   15 type  2   force =     0.00076365    0.00008656   -0.02066510
     atom   16 type  1   force =     0.00000000    0.00000000    0.00000000
     atom   17 type  2   force =    -0.00007429    0.00178124    0.02011424
     atom   18 type  2   force =     0.00008665   -0.00059768   -0.02101587
     atom   19 type  1   force =     0.00000000    0.00000000    0.00000000
     atom   20 type  2   force =     0.00019964    0.00091733   -0.02124517
     atom   21 type  1   force =     0.00000000    0.00000000    0.00000000
     atom   22 type  2   force =     0.00111231    0.00004614    0.02059143
     atom   23 type  2   force =    -0.00024019    0.00127356   -0.02087374
     atom   24 type  1   force =     0.00000000    0.00000000    0.00000000
     atom   25 type  2   force =    -0.00095278   -0.00099230    0.02073613
     atom   26 type  2   force =    -0.00008733    0.00047717   -0.02074678
     atom   27 type  1   force =     0.00000000    0.00000000    0.00000000
     atom   28 type  2   force =     0.00026717    0.00183706    0.02102937
     atom   29 type  2   force =    -0.00060312   -0.00051755   -0.02064294
     atom   30 type  1   force =     0.00000000    0.00000000    0.00000000
     atom   31 type  2   force =     0.00046145    0.00019498    0.02047307
     atom   32 type  2   force =    -0.00012177    0.00064985   -0.02113333
     atom   33 type  1   force =     0.00000000    0.00000000    0.00000000
     atom   34 type  2   force =     0.00027217    0.00112092    0.02104230
     atom   35 type  2   force =    -0.00010402    0.00091941   -0.02111564
     atom   36 type  3   force =     0.00495123   -0.01436304    0.00901812
     The Hubbard contrib.    to forces
     atom    1 type  1   force =     0.00000000    0.00000000    0.00000000
     atom    2 type  2   force =     0.00000000    0.00000000    0.00000000
     atom    3 type  2   force =     0.00000000    0.00000000    0.00000000
     atom    4 type  1   force =     0.00000000    0.00000000    0.00000000
     atom    5 type  2   force =     0.00000000    0.00000000    0.00000000
     atom    6 type  2   force =     0.00000000    0.00000000    0.00000000
     atom    7 type  1   force =     0.00000000    0.00000000    0.00000000
     atom    8 type  2   force =     0.00000000    0.00000000    0.00000000
     atom    9 type  2   force =     0.00000000    0.00000000    0.00000000
     atom   10 type  1   force =     0.00000000    0.00000000    0.00000000
     atom   11 type  2   force =     0.00000000    0.00000000    0.00000000
     atom   12 type  2   force =     0.00000000    0.00000000    0.00000000
     atom   13 type  1   force =     0.00000000    0.00000000    0.00000000
     atom   14 type  2   force =     0.00000000    0.00000000    0.00000000
     atom   15 type  2   force =     0.00000000    0.00000000    0.00000000
     atom   16 type  1   force =     0.00000000    0.00000000    0.00000000
     atom   17 type  2   force =     0.00000000    0.00000000    0.00000000
     atom   18 type  2   force =     0.00000000    0.00000000    0.00000000
     atom   19 type  1   force =     0.00000000    0.00000000    0.00000000
     atom   20 type  2   force =     0.00000000    0.00000000    0.00000000
     atom   21 type  1   force =     0.00000000    0.00000000    0.00000000
     atom   22 type  2   force =     0.00000000    0.00000000    0.00000000
     atom   23 type  2   force =     0.00000000    0.00000000    0.00000000
     atom   24 type  1   force =     0.00000000    0.00000000    0.00000000
     atom   25 type  2   force =     0.00000000    0.00000000    0.00000000
     atom   26 type  2   force =     0.00000000    0.00000000    0.00000000
     atom   27 type  1   force =     0.00000000    0.00000000    0.00000000
     atom   28 type  2   force =     0.00000000    0.00000000    0.00000000
     atom   29 type  2   force =     0.00000000    0.00000000    0.00000000
     atom   30 type  1   force =     0.00000000    0.00000000    0.00000000
     atom   31 type  2   force =     0.00000000    0.00000000    0.00000000
     atom   32 type  2   force =     0.00000000    0.00000000    0.00000000
     atom   33 type  1   force =     0.00000000    0.00000000    0.00000000
     atom   34 type  2   force =     0.00000000    0.00000000    0.00000000
     atom   35 type  2   force =     0.00000000    0.00000000    0.00000000
     atom   36 type  3   force =     0.00000000    0.00000000    0.00000000
     The SCF correction term to forces
     atom    1 type  1   force =     0.00001076    0.00010330   -0.00002994
     atom    2 type  2   force =     0.00008848    0.00016450    0.00011905
     atom    3 type  2   force =     0.00004900    0.00008994   -0.00020142
     atom    4 type  1   force =     0.00013518   -0.00023747    0.00013349
     atom    5 type  2   force =     0.00002962    0.00002787    0.00017494
     atom    6 type  2   force =     0.00003396   -0.00005882   -0.00014891
     atom    7 type  1   force =    -0.00012239   -0.00036567    0.00001907
     atom    8 type  2   force =     0.00000727   -0.00018140    0.00018735
     atom    9 type  2   force =     0.00001385   -0.00010864   -0.00015775
     atom   10 type  1   force =     0.00013932    0.00031939   -0.00014822
     atom   11 type  2   force =     0.00004690   -0.00005023    0.00012314
     atom   12 type  2   force =     0.00004172    0.00008017   -0.00021761
     atom   13 type  1   force =    -0.00001326    0.00012876   -0.00001481
     atom   14 type  2   force =     0.00000355    0.00010256    0.00001731
     atom   15 type  2   force =     0.00001520    0.00010137   -0.00017042
     atom   16 type  1   force =    -0.00001614    0.00003003    0.00007799
     atom   17 type  2   force =    -0.00005724    0.00003835    0.00020902
     atom   18 type  2   force =    -0.00003632   -0.00003996   -0.00016097
     atom   19 type  1   force =     0.00010775   -0.00036924    0.00000805
     atom   20 type  2   force =    -0.00000214   -0.00010062   -0.00004899
     atom   21 type  1   force =     0.00000024    0.00027964   -0.00021356
     atom   22 type  2   force =    -0.00006730   -0.00003556    0.00013808
     atom   23 type  2   force =    -0.00004338    0.00007786   -0.00021497
     atom   24 type  1   force =    -0.00000596    0.00022092   -0.00003995
     atom   25 type  2   force =    -0.00007567    0.00014596    0.00017694
     atom   26 type  2   force =    -0.00007073    0.00007983   -0.00020566
     atom   27 type  1   force =    -0.00012860   -0.00022080    0.00013102
     atom   28 type  2   force =     0.00002444   -0.00002140    0.00020145
     atom   29 type  2   force =     0.00000567   -0.00008045   -0.00013679
     atom   30 type  1   force =     0.00000439   -0.00023427    0.00002255
     atom   31 type  2   force =     0.00000319   -0.00019118    0.00020541
     atom   32 type  2   force =    -0.00001065   -0.00011343   -0.00016311
     atom   33 type  1   force =    -0.00014613    0.00032110   -0.00011671
     atom   34 type  2   force =     0.00002156    0.00005920    0.00014649
     atom   35 type  2   force =     0.00000156    0.00011473   -0.00019075
     atom   36 type  3   force =    -0.00000036    0.00011017    0.00022222

     Total force =     1.360345     Total SCF correction =     0.001418

     BFGS Geometry Optimization
     Energy error            =      0.0E+00 Ry
     Gradient error          =      8.2E-01 Ry/Bohr

     number of scf cycles    =   1
     number of bfgs steps    =   0

     energy             new  =   -2246.1282199297 Ry

     new trust radius        =       0.5000000000 bohr
     new conv_thr            =       0.0000010000 Ry


ATOMIC_POSITIONS (angstrom)
Mo            6.5797999198        1.7810737066        2.8287621061
S             8.1726770582        0.8150005173        4.4343600599
S             8.1901529782        0.8128277259        1.2763967329
Mo            8.0965452729        4.4959193050        2.7174019375
S             6.4999072355        3.7223869725        4.3452974582
S             6.5531085608        3.5159285575        1.1206335360
Mo            6.4925247993        7.2130888208        2.6694290186
S             8.0819839774        6.3430678400        4.2472079696
S             8.0842757793        6.3066677085        1.0869663557
Mo            8.1570256675        9.9044817536        2.8363621830
S             6.5002046989        8.9365188611        4.3781742103
S             6.6182427831        9.0487217549        1.1422105944
Mo            3.4187043572        1.7467409197        2.7841576954
S             4.9366124700        0.9627248384        4.1467184262
S             5.0542881485        0.8468040600        1.2245391444
Mo            4.9800732326        4.5166804134        2.6347958721
S             3.4289216483        3.6740821054        4.2798190111
S             3.4372321324        3.5470234152        1.0610427799
Mo            3.4538450222        7.2125710425        2.6290578730
S             4.9840170996        6.3257280006        1.0374363618
Mo            5.0072137477        9.8991966849        2.7172179817
S             3.4692241988        8.9422923010        4.3246375361
S             3.4079663153        9.0651174489        1.0990762434
Mo            0.2932507383        1.7463826679        2.8455818341
S             1.8538571341        0.7981126351        4.3998211345
S             1.8580712247        0.8534247039        1.2072421044
Mo            1.8606229861        4.4955433399        2.6621065336
S             0.2723966007        3.6542980931        4.3363899704
S             0.2319956693        3.5273218185        1.1714077684
Mo            0.2702877676        7.2194862451        2.7008127734
S             1.9025454829        6.3128744693        4.2269919108
S             1.8598495653        6.3124592481        1.0468166639
Mo            1.8484316791        9.9377210079        2.7698680181
S             0.2965907125        9.0782827033        4.4113662182
S             0.2747653452        9.0457217022        1.1539345498
O             5.2988905579       -0.1353269776        5.4957837953



     Writing config-only to output data dir ./MoS2-V-O.save/
     NEW-OLD atomic charge density approx. for the potential

     negative rho (up, down):  1.850E-04 0.000E+00

     total cpu time spent up to now is      101.9 secs

     Self-consistent Calculation

     iteration #  1     ecut=    80.00 Ry     beta= 0.70
     Davidson diagonalization with overlap
     c_bands:  1 eigenvalues not converged
     ethr =  1.00E-06,  avg # of iterations = 20.0

     negative rho (up, down):  5.621E-03 0.000E+00

     total cpu time spent up to now is      119.0 secs

     total energy              =   -2246.22677358 Ry
     estimated scf accuracy    <       0.18883925 Ry

     iteration #  2     ecut=    80.00 Ry     beta= 0.70
     Davidson diagonalization with overlap
     ethr =  6.05E-05,  avg # of iterations =  5.0

     negative rho (up, down):  8.757E-03 0.000E+00

     total cpu time spent up to now is      136.1 secs

     total energy              =   -2246.24535119 Ry
     estimated scf accuracy    <       0.12278184 Ry

     iteration #  3     ecut=    80.00 Ry     beta= 0.70
     Davidson diagonalization with overlap
     ethr =  3.94E-05,  avg # of iterations =  3.0

     negative rho (up, down):  1.550E-02 0.000E+00

     total cpu time spent up to now is      149.1 secs

     total energy              =   -2246.24910379 Ry
     estimated scf accuracy    <       0.01798469 Ry

     iteration #  4     ecut=    80.00 Ry     beta= 0.70
     Davidson diagonalization with overlap
     ethr =  5.76E-06,  avg # of iterations =  3.0

     negative rho (up, down):  1.727E-02 0.000E+00

     total cpu time spent up to now is      159.1 secs

     total energy              =   -2246.25066956 Ry
     estimated scf accuracy    <       0.00682148 Ry

     iteration #  5     ecut=    80.00 Ry     beta= 0.70
     Davidson diagonalization with overlap
     ethr =  2.19E-06,  avg # of iterations =  2.0

     negative rho (up, down):  1.744E-02 0.000E+00

     total cpu time spent up to now is      169.9 secs

     total energy              =   -2246.25014645 Ry
     estimated scf accuracy    <       0.00331646 Ry

     iteration #  6     ecut=    80.00 Ry     beta= 0.70
     Davidson diagonalization with overlap
     ethr =  1.06E-06,  avg # of iterations =  4.0

     negative rho (up, down):  1.565E-02 0.000E+00

     total cpu time spent up to now is      180.3 secs

     total energy              =   -2246.25048821 Ry
     estimated scf accuracy    <       0.00034659 Ry

     iteration #  7     ecut=    80.00 Ry     beta= 0.70
     Davidson diagonalization with overlap
     ethr =  1.11E-07,  avg # of iterations = 15.0

     negative rho (up, down):  1.235E-02 0.000E+00

     total cpu time spent up to now is      191.0 secs

     total energy              =   -2246.25042765 Ry
     estimated scf accuracy    <       0.00020496 Ry

     iteration #  8     ecut=    80.00 Ry     beta= 0.70
     Davidson diagonalization with overlap
     ethr =  6.57E-08,  avg # of iterations =  4.0

     negative rho (up, down):  9.174E-03 0.000E+00

     total cpu time spent up to now is      201.2 secs

     total energy              =   -2246.25040354 Ry
     estimated scf accuracy    <       0.00007788 Ry

     iteration #  9     ecut=    80.00 Ry     beta= 0.70
     Davidson diagonalization with overlap
     ethr =  2.50E-08,  avg # of iterations =  2.0

     negative rho (up, down):  5.744E-03 0.000E+00

     total cpu time spent up to now is      211.4 secs

     total energy              =   -2246.25035790 Ry
     estimated scf accuracy    <       0.00003839 Ry

     iteration # 10     ecut=    80.00 Ry     beta= 0.70
     Davidson diagonalization with overlap
     ethr =  1.23E-08,  avg # of iterations =  2.0

     negative rho (up, down):  2.691E-03 0.000E+00

     total cpu time spent up to now is      217.6 secs

     total energy              =   -2246.25032929 Ry
     estimated scf accuracy    <       0.00001213 Ry

     iteration # 11     ecut=    80.00 Ry     beta= 0.70
     Davidson diagonalization with overlap
     ethr =  3.89E-09,  avg # of iterations =  5.0

     negative rho (up, down):  2.015E-03 0.000E+00

     total cpu time spent up to now is      226.6 secs

     total energy              =   -2246.25032488 Ry
     estimated scf accuracy    <       0.00000453 Ry

     iteration # 12     ecut=    80.00 Ry     beta= 0.70
     Davidson diagonalization with overlap
     ethr =  1.45E-09,  avg # of iterations =  2.0

     negative rho (up, down):  5.953E-04 0.000E+00

     total cpu time spent up to now is      236.2 secs

     total energy              =   -2246.25031501 Ry
     estimated scf accuracy    <       0.00000261 Ry

     iteration # 13     ecut=    80.00 Ry     beta= 0.70
     Davidson diagonalization with overlap
     ethr =  8.37E-10,  avg # of iterations =  2.0

     negative rho (up, down):  1.927E-04 0.000E+00

     total cpu time spent up to now is      239.6 secs

     End of self-consistent calculation

          k = 0.0000 0.0000 0.0000 (105382 PWs)   bands (ev):

   -63.0654 -63.0483 -63.0478 -63.0324 -62.9982 -62.9635 -62.9487 -62.9422
   -62.9281 -62.9251 -62.9107 -62.8889 -37.4523 -37.3737 -37.3369 -37.3234
   -37.3040 -37.2806 -37.2707 -37.2584 -37.2490 -37.2230 -37.2203 -37.2103
   -37.2045 -37.1982 -37.1893 -37.1728 -37.1646 -37.1544 -37.1330 -37.1292
   -37.1002 -37.0961 -37.0899 -37.0775 -37.0757 -37.0656 -37.0614 -37.0537
   -37.0480 -37.0377 -37.0246 -37.0128 -36.9991 -36.9496 -36.9180 -36.8489
   -19.6757 -16.1070 -15.4053 -15.2967 -15.1192 -15.0783 -14.8750 -14.7112
   -14.6377 -14.6000 -14.5855 -14.5451 -14.5164 -14.4417 -14.3792 -14.3119
   -14.2613 -14.2532 -14.2256 -14.1693 -14.0379 -14.0112 -13.9750 -13.8875
    -7.9809  -7.8809  -7.6832  -7.6021  -7.5087  -7.4420  -7.3909  -7.3092
    -7.1916  -6.9902  -6.9470  -6.9279  -6.8493  -6.8193  -6.7525  -6.6356
    -6.5952  -6.5492  -6.4720  -6.4018  -6.2529  -6.0896  -6.0410  -5.9811
    -5.9571  -5.9291  -5.8723  -5.8587  -5.8165  -5.7885  -5.7472  -5.6623
    -5.6098  -5.5835  -5.5394  -5.4040  -5.2935  -5.2448  -5.1926  -5.1658
    -5.1093  -5.0833  -4.9958  -4.9402  -4.8350  -4.6598  -4.5876  -4.4328
    -4.3959  -4.3595  -4.2401  -4.2110  -4.1128  -4.0493  -3.9356  -3.8879
    -3.8275  -3.7895  -3.7510  -3.6957  -3.6698  -3.6545  -3.6356  -3.6146
    -3.6008  -3.5028  -3.4272  -3.2903  -3.1739  -3.1202  -3.0436  -2.9864
    -2.9760  -2.8962  -2.8509  -2.8232  -2.8122  -2.7140  -2.4817  -2.4415
    -2.2394  -2.0838  -2.0405  -1.6589  -0.9845  -0.8790  -0.7112  -0.3380
    -0.3204  -0.1831  -0.1713  -0.1079  -0.0264   0.0091   0.0292   0.0751
     0.1482   0.2504   0.3068   0.3759   0.3901   0.4191   0.4510   0.4988
     0.5467   0.5773   0.6088   0.6163   0.7082   0.7478   0.7681   0.8185
     0.8993   1.0164   1.1149

     the Fermi energy is    -1.3218 ev

!    total energy              =   -2246.25031479 Ry
     estimated scf accuracy    <       0.00000052 Ry
     smearing contrib. (-TS)   =      -0.00002438 Ry
     internal energy E=F+TS    =   -2246.25029042 Ry

     The total energy is F=E-TS. E is the sum of the following terms:
     one-electron contribution =  -18458.11945383 Ry
     hartree contribution      =    9216.45751211 Ry
     xc contribution           =    -392.04751013 Ry
     ewald contribution        =    7397.32898455 Ry
     one-center paw contrib.   =      -9.86982312 Ry

     convergence has been achieved in  13 iterations

     negative rho (up, down):  1.927E-04 0.000E+00

     Forces acting on atoms (cartesian axes, Ry/au):

     atom    1 type  1   force =     0.05015565    0.00681336   -0.03195917
     atom    2 type  2   force =    -0.01496907    0.01418360   -0.00003962
     atom    3 type  2   force =    -0.00974577    0.00493650   -0.00617528
     atom    4 type  1   force =     0.00405528    0.00243506   -0.00153136
     atom    5 type  2   force =     0.00185440    0.00041140   -0.00196793
     atom    6 type  2   force =     0.00070493    0.01169682    0.00144940
     atom    7 type  1   force =     0.01137229   -0.01735491   -0.00497357
     atom    8 type  2   force =     0.00044996   -0.00182461    0.01632291
     atom    9 type  2   force =     0.01194218    0.00608763    0.00860867
     atom   10 type  1   force =    -0.01012661    0.00879851   -0.01580776
     atom   11 type  2   force =    -0.00039257    0.00071531   -0.02090202
     atom   12 type  2   force =    -0.00007134   -0.00199252    0.00109875
     atom   13 type  1   force =    -0.07318269    0.04328187   -0.05453202
     atom   14 type  2   force =     0.10340236   -0.18676859    0.20855415
     atom   15 type  2   force =    -0.01087506    0.00357522   -0.02417212
     atom   16 type  1   force =     0.00081392    0.00998610    0.00067678
     atom   17 type  2   force =     0.00223311    0.01263979    0.00582891
     atom   18 type  2   force =    -0.00297640   -0.00310588    0.01141960
     atom   19 type  1   force =    -0.00158941   -0.00961513   -0.00078097
     atom   20 type  2   force =     0.00229214   -0.00515895   -0.00255950
     atom   21 type  1   force =    -0.00811631   -0.01464370   -0.03302635
     atom   22 type  2   force =     0.00266568   -0.00097813   -0.00828675
     atom   23 type  2   force =    -0.00230124   -0.00120229    0.00288121
     atom   24 type  1   force =    -0.00725447   -0.00263447   -0.01454494
     atom   25 type  2   force =     0.00895511    0.01553007    0.00665920
     atom   26 type  2   force =    -0.01080134   -0.00665011   -0.00824542
     atom   27 type  1   force =     0.00099464    0.00037063    0.00457260
     atom   28 type  2   force =     0.00005383   -0.00148068   -0.00272958
     atom   29 type  2   force =     0.00290511    0.00043825   -0.00263129
     atom   30 type  1   force =    -0.00224748    0.00627960   -0.00007979
     atom   31 type  2   force =     0.00107914    0.00109014    0.01518670
     atom   32 type  2   force =    -0.00845941    0.00677299    0.00700095
     atom   33 type  1   force =     0.01048633   -0.00754427   -0.00710732
     atom   34 type  2   force =     0.00128656   -0.03746470   -0.01065565
     atom   35 type  2   force =    -0.00600505    0.00720447    0.00915516
     atom   36 type  3   force =    -0.04858838    0.13517160   -0.04670656
     The non-local contrib.  to forces
     atom    1 type  1   force =    -0.01031592    0.02018310   -0.00355568
     atom    2 type  2   force =    -0.00272543    0.00835247   -0.27764089
     atom    3 type  2   force =    -0.00943430   -0.00449088    0.25920581
     atom    4 type  1   force =     0.00425373    0.00734013    0.00617484
     atom    5 type  2   force =     0.00583158   -0.03825726   -0.26043584
     atom    6 type  2   force =    -0.00261037    0.01228467    0.26251839
     atom    7 type  1   force =    -0.01193687    0.01970394   -0.02327950
     atom    8 type  2   force =     0.00324274   -0.00059956   -0.25624234
     atom    9 type  2   force =     0.00657410   -0.01045882    0.27871758
     atom   10 type  1   force =     0.00627743   -0.00529572   -0.00115823
     atom   11 type  2   force =     0.01811638    0.00681275   -0.25011358
     atom   12 type  2   force =    -0.01205404   -0.01620890    0.26150165
     atom   13 type  1   force =     0.01218775   -0.00262568   -0.00223392
     atom   14 type  2   force =     0.08541733   -0.30964669    0.35338178
     atom   15 type  2   force =    -0.01152301    0.00004102    0.25778252
     atom   16 type  1   force =    -0.00029185    0.04336417   -0.02436168
     atom   17 type  2   force =    -0.00013730   -0.03016499   -0.25432675
     atom   18 type  2   force =    -0.00270851    0.00084787    0.27214350
     atom   19 type  1   force =     0.00952595    0.00936544   -0.01819372
     atom   20 type  2   force =    -0.00150253   -0.02276484    0.26585064
     atom   21 type  1   force =     0.00141261    0.02321990    0.02735788
     atom   22 type  2   force =    -0.02093518   -0.00615073   -0.26812505
     atom   23 type  2   force =     0.00693868   -0.01508724    0.26704437
     atom   24 type  1   force =     0.00038189    0.01577728   -0.00588503
     atom   25 type  2   force =     0.01304318    0.01113416   -0.26883289
     atom   26 type  2   force =    -0.00548939   -0.01533540    0.25887853
     atom   27 type  1   force =    -0.00720405    0.01347969    0.01031205
     atom   28 type  2   force =    -0.00461228   -0.02529564   -0.27782205
     atom   29 type  2   force =     0.00705453    0.00166911    0.26514460
     atom   30 type  1   force =    -0.00040179    0.02227104    0.00769043
     atom   31 type  2   force =    -0.00757366    0.00207272   -0.25524454
     atom   32 type  2   force =    -0.00244571   -0.01110624    0.27564599
     atom   33 type  1   force =    -0.00414437    0.00446871    0.00505102
     atom   34 type  2   force =     0.00005106   -0.03070518   -0.27672485
     atom   35 type  2   force =    -0.00200609   -0.01040028    0.26952904
     atom   36 type  3   force =    -0.33900251    1.00744595   -1.08862967
     The ionic contribution  to forces
     atom    1 type  1   force =     2.58974287    2.30841732    2.55743570
     atom    2 type  2   force =     0.72838981    0.77304378   38.76092875
     atom    3 type  2   force =     0.09274047    0.12971080  -36.93108088
     atom    4 type  1   force =     0.43534191    0.93613075   -0.32005772
     atom    5 type  2   force =    -0.61502840    2.30033148   38.47108956
     atom    6 type  2   force =     0.43501843   -0.30874687  -38.65182977
     atom    7 type  1   force =    -2.28310161   -3.64617972    1.07755820
     atom    8 type  2   force =    -0.77685610   -0.19289163   37.24914880
     atom    9 type  2   force =     0.42657179   -0.12696561  -38.49899580
     atom   10 type  1   force =     0.37432155   -0.95048186    3.49051684
     atom   11 type  2   force =     0.68819715   -3.68215019   37.64252803
     atom   12 type  2   force =     0.66234877    0.36340117  -38.72715122
     atom   13 type  1   force =    -2.18283454    2.78168538   -0.13896579
     atom   14 type  2   force =    -0.82037590    2.79867714   32.17251901
     atom   15 type  2   force =     0.15338352    0.21359673  -38.21520228
     atom   16 type  1   force =    -0.05119842    4.62483533   -0.71286715
     atom   17 type  2   force =     0.40551185    2.26741604   37.72533841
     atom   18 type  2   force =    -0.26648222   -0.43705201  -39.16801022
     atom   19 type  1   force =     2.26974012   -3.24135374   -0.67681436
     atom   20 type  2   force =     0.20498330   -0.30021479  -39.07382371
     atom   21 type  1   force =    -0.23043672   -1.96137580   -4.53214922
     atom   22 type  2   force =    -0.71423592   -3.04150789   37.49017045
     atom   23 type  2   force =    -0.35836056    0.34985202  -39.14362228
     atom   24 type  1   force =    -0.35332129    1.59741224    4.47472840
     atom   25 type  2   force =    -0.32890198    0.45882970   38.93116721
     atom   26 type  2   force =    -0.47708487    0.16541774  -38.06434522
     atom   27 type  1   force =    -0.29466326    0.79087298   -3.12458469
     atom   28 type  2   force =     0.08741835    1.26053333   38.03143963
     atom   29 type  2   force =    -0.23765667   -0.28547323  -37.77973248
     atom   30 type  1   force =    -0.23448427   -1.39343093   -0.99232326
     atom   31 type  2   force =     1.05898133   -0.21169262   37.18087079
     atom   32 type  2   force =    -0.54202728   -0.09392780  -39.09790982
     atom   33 type  1   force =    -0.34866784   -1.27487906    0.43830642
     atom   34 type  2   force =     0.33379910   -1.66024067   39.04905676
     atom   35 type  2   force =    -0.25699170    0.35466781  -38.37232082
     atom   36 type  3   force =     0.42621924   -1.66626732   47.47898372
     The local contribution  to forces
     atom    1 type  1   force =    -2.52943582   -2.32182267   -2.58567238
     atom    2 type  2   force =    -0.74042426   -0.76659978  -38.50442322
     atom    3 type  2   force =    -0.09351605   -0.12038263   36.68593512
     atom    4 type  1   force =    -0.43580500   -0.94116620    0.31239904
     atom    5 type  2   force =     0.61147421   -2.26395877  -38.23312615
     atom    6 type  2   force =    -0.43207200    0.30924814   38.41134771
     atom    7 type  1   force =     2.30625334    3.60930775   -1.05918225
     atom    8 type  2   force =     0.77401788    0.19132213  -36.99697080
     atom    9 type  2   force =    -0.42118314    0.14298642   38.24972301
     atom   10 type  1   force =    -0.39083300    0.96469044   -3.50490105
     atom   11 type  2   force =    -0.70534713    3.67580398  -37.43376180
     atom   12 type  2   force =    -0.65154740   -0.35049313   38.48733647
     atom   13 type  1   force =     2.09753859   -2.73588532    0.08691872
     atom   14 type  2   force =     0.84293980   -2.69205989  -32.30676257
     atom   15 type  2   force =    -0.15339744   -0.21021497   37.95346504
     atom   16 type  1   force =     0.05237680   -4.65844578    0.73800989
     atom   17 type  2   force =    -0.40310264   -2.22651468  -37.48543528
     atom   18 type  2   force =     0.26624179    0.43368533   38.92803260
     atom   19 type  1   force =    -2.28063266    3.22259653    0.69429777
     atom   20 type  2   force =    -0.20134134    0.31691282   38.82636016
     atom   21 type  1   force =     0.22090793    1.92355037    4.47196116
     atom   22 type  2   force =     0.73662717    3.04643820  -37.25137765
     atom   23 type  2   force =     0.34975019   -0.33715285   38.90010376
     atom   24 type  1   force =     0.34574035   -1.61609123   -4.48310624
     atom   25 type  2   force =     0.32535216   -0.45356736  -38.67661271
     atom   26 type  2   force =     0.47183361   -0.15750824   37.81765771
     atom   27 type  1   force =     0.30305700   -0.80417890    3.11892516
     atom   28 type  2   force =    -0.08301968   -1.23870431  -37.77730500
     atom   29 type  2   force =     0.23409788    0.28472534   37.53231332
     atom   30 type  1   force =     0.23258789    1.37762175    0.98454081
     atom   31 type  2   force =    -1.05069916    0.21065486  -36.93085986
     atom   32 type  2   force =     0.53620343    0.11118460   38.85006184
     atom   33 type  1   force =     0.36341900    1.26308184   -0.45014735
     atom   34 type  2   force =    -0.33284024    1.65269893  -38.80408395
     atom   35 type  2   force =     0.25307747   -0.33793902   38.13271493
     atom   36 type  3   force =    -0.13975094    0.80565255  -46.44849559
     The core correction contribution to forces
     atom    1 type  1   force =     0.00000000    0.00000000    0.00000000
     atom    2 type  2   force =    -0.00028445   -0.00065242    0.02144290
     atom    3 type  2   force =     0.00041732    0.00010007   -0.02045316
     atom    4 type  1   force =     0.00000000    0.00000000    0.00000000
     atom    5 type  2   force =    -0.00052398    0.00213767    0.02075029
     atom    6 type  2   force =     0.00031835   -0.00116000   -0.02082297
     atom    7 type  1   force =     0.00000000    0.00000000    0.00000000
     atom    8 type  2   force =    -0.00007315    0.00042307    0.02052734
     atom    9 type  2   force =    -0.00010396    0.00059358   -0.02113742
     atom   10 type  1   force =     0.00000000    0.00000000    0.00000000
     atom   11 type  2   force =    -0.00143814    0.00031388    0.02073962
     atom   12 type  2   force =     0.00115816    0.00127276   -0.02081823
     atom   13 type  1   force =     0.00000000    0.00000000    0.00000000
     atom   14 type  2   force =    -0.00459990    0.01626780   -0.01025626
     atom   15 type  2   force =     0.00065099    0.00018830   -0.02041320
     atom   16 type  1   force =     0.00000000    0.00000000    0.00000000
     atom   17 type  2   force =     0.00004912    0.00172644    0.02048034
     atom   18 type  2   force =     0.00001871   -0.00067395   -0.02098937
     atom   19 type  1   force =     0.00000000    0.00000000    0.00000000
     atom   20 type  2   force =     0.00021328    0.00095665   -0.02121535
     atom   21 type  1   force =     0.00000000    0.00000000    0.00000000
     atom   22 type  2   force =     0.00128365    0.00036750    0.02141680
     atom   23 type  2   force =    -0.00060307    0.00121392   -0.02092393
     atom   24 type  1   force =     0.00000000    0.00000000    0.00000000
     atom   25 type  2   force =    -0.00044172   -0.00090562    0.02123473
     atom   26 type  2   force =    -0.00000209    0.00077458   -0.02063937
     atom   27 type  1   force =     0.00000000    0.00000000    0.00000000
     atom   28 type  2   force =     0.00027473    0.00185158    0.02117519
     atom   29 type  2   force =    -0.00058655   -0.00056392   -0.02066292
     atom   30 type  1   force =     0.00000000    0.00000000    0.00000000
     atom   31 type  2   force =     0.00043789    0.00010584    0.02060944
     atom   32 type  2   force =    -0.00016837    0.00066540   -0.02114599
     atom   33 type  1   force =     0.00000000    0.00000000    0.00000000
     atom   34 type  2   force =     0.00029224    0.00091650    0.02131762
     atom   35 type  2   force =    -0.00009411    0.00091255   -0.02104824
     atom   36 type  3   force =     0.00391835   -0.01162432    0.01185774
     The Hubbard contrib.    to forces
     atom    1 type  1   force =     0.00000000    0.00000000    0.00000000
     atom    2 type  2   force =     0.00000000    0.00000000    0.00000000
     atom    3 type  2   force =     0.00000000    0.00000000    0.00000000
     atom    4 type  1   force =     0.00000000    0.00000000    0.00000000
     atom    5 type  2   force =     0.00000000    0.00000000    0.00000000
     atom    6 type  2   force =     0.00000000    0.00000000    0.00000000
     atom    7 type  1   force =     0.00000000    0.00000000    0.00000000
     atom    8 type  2   force =     0.00000000    0.00000000    0.00000000
     atom    9 type  2   force =     0.00000000    0.00000000    0.00000000
     atom   10 type  1   force =     0.00000000    0.00000000    0.00000000
     atom   11 type  2   force =     0.00000000    0.00000000    0.00000000
     atom   12 type  2   force =     0.00000000    0.00000000    0.00000000
     atom   13 type  1   force =     0.00000000    0.00000000    0.00000000
     atom   14 type  2   force =     0.00000000    0.00000000    0.00000000
     atom   15 type  2   force =     0.00000000    0.00000000    0.00000000
     atom   16 type  1   force =     0.00000000    0.00000000    0.00000000
     atom   17 type  2   force =     0.00000000    0.00000000    0.00000000
     atom   18 type  2   force =     0.00000000    0.00000000    0.00000000
     atom   19 type  1   force =     0.00000000    0.00000000    0.00000000
     atom   20 type  2   force =     0.00000000    0.00000000    0.00000000
     atom   21 type  1   force =     0.00000000    0.00000000    0.00000000
     atom   22 type  2   force =     0.00000000    0.00000000    0.00000000
     atom   23 type  2   force =     0.00000000    0.00000000    0.00000000
     atom   24 type  1   force =     0.00000000    0.00000000    0.00000000
     atom   25 type  2   force =     0.00000000    0.00000000    0.00000000
     atom   26 type  2   force =     0.00000000    0.00000000    0.00000000
     atom   27 type  1   force =     0.00000000    0.00000000    0.00000000
     atom   28 type  2   force =     0.00000000    0.00000000    0.00000000
     atom   29 type  2   force =     0.00000000    0.00000000    0.00000000
     atom   30 type  1   force =     0.00000000    0.00000000    0.00000000
     atom   31 type  2   force =     0.00000000    0.00000000    0.00000000
     atom   32 type  2   force =     0.00000000    0.00000000    0.00000000
     atom   33 type  1   force =     0.00000000    0.00000000    0.00000000
     atom   34 type  2   force =     0.00000000    0.00000000    0.00000000
     atom   35 type  2   force =     0.00000000    0.00000000    0.00000000
     atom   36 type  3   force =     0.00000000    0.00000000    0.00000000
     The SCF correction term to forces
     atom    1 type  1   force =     0.00016386    0.00003446   -0.00017836
     atom    2 type  2   force =     0.00007461    0.00003840   -0.00035870
     atom    3 type  2   force =     0.00004614   -0.00000202    0.00020629
     atom    4 type  1   force =     0.00026399    0.00012922   -0.00005907
     atom    5 type  2   force =     0.00010034    0.00015712   -0.00025733
     atom    6 type  2   force =     0.00004988    0.00006971    0.00022449
     atom    7 type  1   force =     0.00015678   -0.00018805   -0.00008156
     atom    8 type  2   force =     0.00011795   -0.00007978   -0.00015163
     atom    9 type  2   force =     0.00008275   -0.00006910    0.00028977
     atom   10 type  1   force =     0.00010677   -0.00011552   -0.00027687
     atom   11 type  2   force =     0.00007852   -0.00006627   -0.00030584
     atom   12 type  2   force =     0.00002253    0.00003442    0.00021853
     atom   13 type  1   force =    -0.00007514    0.00010632   -0.00026257
     atom   14 type  2   force =     0.00002039   -0.00000811   -0.00033935
     atom   15 type  2   force =     0.00001024   -0.00003701    0.00018425
     atom   16 type  1   force =    -0.00007326    0.00023122   -0.00011582
     atom   17 type  2   force =    -0.00008856    0.00017582   -0.00023934
     atom   18 type  2   force =    -0.00004681    0.00008571    0.00023154
     atom   19 type  1   force =    -0.00022346   -0.00022453   -0.00008220
     atom   20 type  2   force =    -0.00006120   -0.00004995    0.00025721
     atom   21 type  1   force =    -0.00000078   -0.00003933   -0.00020772
     atom   22 type  2   force =    -0.00007468   -0.00012638   -0.00038285
     atom   23 type  2   force =    -0.00002713   -0.00002929    0.00026775
     atom   24 type  1   force =    -0.00005607    0.00026609   -0.00029361
     atom   25 type  2   force =    -0.00009718    0.00003803   -0.00030868
     atom   26 type  2   force =    -0.00005924    0.00000005    0.00019139
     atom   27 type  1   force =    -0.00019569    0.00019570   -0.00009147
     atom   28 type  2   force =    -0.00000793    0.00013321   -0.00022889
     atom   29 type  2   force =    -0.00000472    0.00007978    0.00029465
     atom   30 type  1   force =     0.00005005   -0.00018343    0.00000069
     atom   31 type  2   force =    -0.00006790   -0.00005182   -0.00020067
     atom   32 type  2   force =    -0.00002212   -0.00004412    0.00033738
     atom   33 type  1   force =    -0.00012111   -0.00021693   -0.00032895
     atom   34 type  2   force =    -0.00001624   -0.00013544   -0.00023276
     atom   35 type  2   force =     0.00000874   -0.00003775    0.00026869
     atom   36 type  3   force =     0.00002684   -0.00003643   -0.00043430

     Total force =     0.366471     Total SCF correction =     0.001773
     Energy error            =      1.2E-01 Ry
     Gradient error          =      2.1E-01 Ry/Bohr

     number of scf cycles    =   2
     number of bfgs steps    =   1

     energy             old  =   -2246.1282199297 Ry
     energy             new  =   -2246.2503147948 Ry

     CASE: energy            _new < energy            _old

     new trust radius        =       0.1548828883 bohr
     new conv_thr            =       0.0000002086 Ry


ATOMIC_POSITIONS (angstrom)
Mo            6.6029310421        1.7827040014        2.8157418925
S             8.1652729976        0.8223157364        4.4343064269
S             8.1852401259        0.8153214653        1.2733781856
Mo            8.0986100642        4.4971656569        2.7166436883
S             6.5007226235        3.7225629801        4.3441549119
S             6.5533696912        3.5219253011        1.1211398520
Mo            6.4980441575        7.2043679071        2.6667424210
S             8.0822339609        6.3421020635        4.2553526271
S             8.0902113414        6.3097448995        1.0913836895
Mo            8.1518410509        9.9088197457        2.8279663260
S             6.5010548086        8.9355323728        4.3679775341
S             6.6182714178        9.0478473351        1.1431616584
Mo            3.3859092964        1.7657380954        2.7617284379
S             4.9742734416        0.9101626968        4.1970810632
S             5.0487839692        0.8484869389        1.2134748599
Mo            4.9804955732        4.5217847435        2.6354817121
S             3.4301233512        3.6801467460        4.2824055190
S             3.4357829435        3.5454123178        1.0666130013
Mo            3.4531424048        7.2075789267        2.6283855604
S             4.9851844469        6.3232139094        1.0363474539
Mo            5.0026177033        9.8922665226        2.6973722254
S             3.4700448194        8.9415657430        4.3207983075
S             3.4068599544        9.0646144148        1.1009545438
Mo            0.2894826791        1.7449948806        2.8383987572
S             1.8584860769        0.8060450002        4.4030779522
S             1.8527653325        0.8502958461        1.2031763843
Mo            1.8610466823        4.4956813303        2.6645058023
S             0.2724573899        3.6536262509        4.3349466822
S             0.2334289316        3.5275293572        1.1701263068
Mo            0.2691235265        7.2228255130        2.7005982387
S             1.9030826098        6.3133694077        4.2345963904
S             1.8556430240        6.3158684157        1.0503549361
Mo            1.8538743727        9.9339110674        2.7661162705
S             0.2972943361        9.0594221856        4.4061702228
S             0.2717162270        9.0493370459        1.1586796942
O             5.2866801939       -0.1033404098        5.5204848271



     Writing config-only to output data dir ./MoS2-V-O.save/
     NEW-OLD atomic charge density approx. for the potential

     negative rho (up, down):  1.704E-04 0.000E+00

     total cpu time spent up to now is      246.9 secs

     Self-consistent Calculation

     iteration #  1     ecut=    80.00 Ry     beta= 0.70
     Davidson diagonalization with overlap
     ethr =  1.00E-06,  avg # of iterations = 16.0

     negative rho (up, down):  1.191E-04 0.000E+00

     total cpu time spent up to now is      259.7 secs

     total energy              =   -2246.30963555 Ry
     estimated scf accuracy    <       0.00870446 Ry

     iteration #  2     ecut=    80.00 Ry     beta= 0.70
     Davidson diagonalization with overlap
     ethr =  2.79E-06,  avg # of iterations =  3.0

     negative rho (up, down):  1.095E-04 0.000E+00

     total cpu time spent up to now is      274.1 secs

     total energy              =   -2246.31010341 Ry
     estimated scf accuracy    <       0.00245271 Ry

     iteration #  3     ecut=    80.00 Ry     beta= 0.70
     Davidson diagonalization with overlap
     ethr =  7.86E-07,  avg # of iterations =  2.0

     negative rho (up, down):  9.519E-05 0.000E+00

     total cpu time spent up to now is      294.3 secs

     total energy              =   -2246.31018369 Ry
     estimated scf accuracy    <       0.00046097 Ry

     iteration #  4     ecut=    80.00 Ry     beta= 0.70
     Davidson diagonalization with overlap
     ethr =  1.48E-07,  avg # of iterations =  5.0

     negative rho (up, down):  9.192E-05 0.000E+00

     total cpu time spent up to now is      311.4 secs

     total energy              =   -2246.31025016 Ry
     estimated scf accuracy    <       0.00003908 Ry

     iteration #  5     ecut=    80.00 Ry     beta= 0.70
     Davidson diagonalization with overlap
     ethr =  1.25E-08,  avg # of iterations =  5.0

     negative rho (up, down):  8.730E-05 0.000E+00

     total cpu time spent up to now is      327.9 secs

     total energy              =   -2246.31025732 Ry
     estimated scf accuracy    <       0.00001348 Ry

     iteration #  6     ecut=    80.00 Ry     beta= 0.70
     Davidson diagonalization with overlap
     ethr =  4.32E-09,  avg # of iterations =  2.0

     negative rho (up, down):  8.216E-05 0.000E+00

     total cpu time spent up to now is      340.1 secs

     total energy              =   -2246.31025804 Ry
     estimated scf accuracy    <       0.00000446 Ry

     iteration #  7     ecut=    80.00 Ry     beta= 0.70
     Davidson diagonalization with overlap
     ethr =  1.43E-09,  avg # of iterations =  4.0

     negative rho (up, down):  8.331E-05 0.000E+00

     total cpu time spent up to now is      353.5 secs

     total energy              =   -2246.31025873 Ry
     estimated scf accuracy    <       0.00000118 Ry

     iteration #  8     ecut=    80.00 Ry     beta= 0.70
     Davidson diagonalization with overlap
     ethr =  3.78E-10,  avg # of iterations =  3.0

     negative rho (up, down):  1.004E-04 0.000E+00

     total cpu time spent up to now is      364.0 secs

     total energy              =   -2246.31025905 Ry
     estimated scf accuracy    <       0.00000053 Ry

     iteration #  9     ecut=    80.00 Ry     beta= 0.70
     Davidson diagonalization with overlap
     ethr =  1.69E-10,  avg # of iterations =  5.0

     negative rho (up, down):  1.929E-04 0.000E+00

     total cpu time spent up to now is      367.5 secs

     End of self-consistent calculation

          k = 0.0000 0.0000 0.0000 (105382 PWs)   bands (ev):

   -63.0571 -63.0385 -63.0331 -63.0242 -62.9846 -62.9556 -62.9448 -62.9416
   -62.9244 -62.9176 -62.9043 -62.8914 -37.3974 -37.3520 -37.3248 -37.3165
   -37.2953 -37.2757 -37.2585 -37.2418 -37.2319 -37.2123 -37.2067 -37.2005
   -37.1955 -37.1877 -37.1770 -37.1642 -37.1578 -37.1449 -37.1253 -37.1227
   -37.1017 -37.0880 -37.0850 -37.0725 -37.0705 -37.0637 -37.0587 -37.0477
   -37.0385 -37.0277 -37.0181 -37.0124 -36.9913 -36.9369 -36.9177 -36.8547
   -20.3289 -16.0898 -15.3542 -15.2741 -15.1150 -15.0490 -14.8538 -14.6691
   -14.6225 -14.5823 -14.5717 -14.5348 -14.5087 -14.4398 -14.3441 -14.3017
   -14.2576 -14.2528 -14.2299 -14.1121 -14.0247 -14.0210 -13.9723 -13.8793
    -7.9110  -7.8205  -7.6743  -7.5561  -7.5100  -7.4359  -7.3971  -7.3100
    -7.1910  -6.9976  -6.9359  -6.9292  -6.8385  -6.8058  -6.7625  -6.6703
    -6.5970  -6.5611  -6.4779  -6.3929  -6.2332  -6.0902  -6.0484  -5.9763
    -5.9495  -5.9190  -5.8776  -5.8521  -5.8202  -5.7818  -5.7683  -5.6431
    -5.5937  -5.5792  -5.5236  -5.3946  -5.2808  -5.2309  -5.1885  -5.1658
    -5.1102  -5.0731  -4.9937  -4.9423  -4.8429  -4.6576  -4.5631  -4.4392
    -4.3903  -4.3708  -4.2553  -4.2203  -4.1087  -4.0692  -3.9407  -3.9023
    -3.8215  -3.7949  -3.7294  -3.6807  -3.6667  -3.6529  -3.6292  -3.6178
    -3.5929  -3.4973  -3.4364  -3.3084  -3.1886  -3.0963  -3.0185  -3.0073
    -2.9857  -2.8851  -2.8482  -2.8326  -2.7981  -2.6990  -2.5589  -2.4526
    -2.2307  -2.0867  -2.0633  -1.7961  -0.9695  -0.8835  -0.6162  -0.3382
    -0.3140  -0.1777  -0.1712  -0.0873  -0.0209   0.0215   0.0404   0.1242
     0.1556   0.2716   0.3092   0.3858   0.4059   0.4324   0.4731   0.5225
     0.5751   0.5864   0.6200   0.6349   0.7288   0.7488   0.7742   0.8183
     0.8950   0.9920   1.1073

     the Fermi energy is    -1.3829 ev

!    total energy              =   -2246.31025906 Ry
     estimated scf accuracy    <       0.00000009 Ry
     smearing contrib. (-TS)   =      -0.00000112 Ry
     internal energy E=F+TS    =   -2246.31025794 Ry

     The total energy is F=E-TS. E is the sum of the following terms:
     one-electron contribution =  -18448.23788253 Ry
     hartree contribution      =    9211.58743851 Ry
     xc contribution           =    -392.04095008 Ry
     ewald contribution        =    7392.24839359 Ry
     one-center paw contrib.   =      -9.86725743 Ry

     convergence has been achieved in   9 iterations

     negative rho (up, down):  1.929E-04 0.000E+00

     Forces acting on atoms (cartesian axes, Ry/au):

     atom    1 type  1   force =     0.01843568    0.00109956   -0.01242404
     atom    2 type  2   force =    -0.00885330    0.01103021   -0.00219986
     atom    3 type  2   force =    -0.00605435    0.00368384   -0.01328833
     atom    4 type  1   force =     0.00431007    0.00405313    0.00087907
     atom    5 type  2   force =     0.00268109   -0.00155976   -0.00456420
     atom    6 type  2   force =     0.00167175    0.01152790   -0.00140374
     atom    7 type  1   force =     0.00748476   -0.01140489   -0.00180267
     atom    8 type  2   force =     0.00168268   -0.00349391    0.01210816
     atom    9 type  2   force =     0.01176868    0.00478612    0.00516687
     atom   10 type  1   force =    -0.00483083    0.00807156   -0.00709181
     atom   11 type  2   force =    -0.00173540   -0.00106783   -0.02181237
     atom   12 type  2   force =     0.00234911   -0.00444388   -0.00496291
     atom   13 type  1   force =    -0.00537850    0.01135862   -0.00257859
     atom   14 type  2   force =     0.06076379   -0.15512765    0.13802637
     atom   15 type  2   force =    -0.01147193    0.00791273   -0.01379394
     atom   16 type  1   force =     0.00027601    0.00436088    0.00336004
     atom   17 type  2   force =     0.00148997    0.00754117    0.00359550
     atom   18 type  2   force =    -0.00388302    0.00111374    0.00524882
     atom   19 type  1   force =    -0.00140814   -0.00748399    0.00101996
     atom   20 type  2   force =     0.00217137   -0.00409593   -0.00394352
     atom   21 type  1   force =    -0.00515547   -0.00724989   -0.01861867
     atom   22 type  2   force =     0.00429820   -0.00027574   -0.00975779
     atom   23 type  2   force =    -0.00487190   -0.00514704   -0.00367544
     atom   24 type  1   force =    -0.00675616   -0.00479376   -0.00684234
     atom   25 type  2   force =     0.00559212    0.01325309   -0.00003772
     atom   26 type  2   force =    -0.01359562   -0.00589025   -0.01170427
     atom   27 type  1   force =    -0.00105319    0.00389423    0.00595460
     atom   28 type  2   force =     0.00004197   -0.00197030   -0.00370266
     atom   29 type  2   force =     0.00250007    0.00178590   -0.00372306
     atom   30 type  1   force =    -0.00173007    0.00072866    0.00381347
     atom   31 type  2   force =     0.00001445    0.00030072    0.01064330
     atom   32 type  2   force =    -0.00767045    0.00530796    0.00552523
     atom   33 type  1   force =     0.00575710   -0.00000162    0.00133398
     atom   34 type  2   force =    -0.00041542   -0.02770072   -0.01309150
     atom   35 type  2   force =    -0.00513359    0.00662080    0.00559103
     atom   36 type  3   force =    -0.04329149    0.13327634   -0.04124698
     The non-local contrib.  to forces
     atom    1 type  1   force =    -0.00646301    0.02052207   -0.00383835
     atom    2 type  2   force =     0.00128887    0.00623328   -0.27727110
     atom    3 type  2   force =    -0.00682901   -0.00502487    0.25607528
     atom    4 type  1   force =     0.00492818    0.00753865    0.00561739
     atom    5 type  2   force =     0.00631694   -0.03767427   -0.26045033
     atom    6 type  2   force =    -0.00094910    0.01195127    0.26148244
     atom    7 type  1   force =    -0.01124341    0.01549340   -0.02486520
     atom    8 type  2   force =     0.00393697   -0.00274264   -0.25871621
     atom    9 type  2   force =     0.00618727   -0.01126459    0.27608526
     atom   10 type  1   force =     0.00450378   -0.00413972   -0.00273033
     atom   11 type  2   force =     0.02111557   -0.00143469   -0.25841086
     atom   12 type  2   force =    -0.00999715   -0.01868939    0.25872955
     atom   13 type  1   force =    -0.00072387    0.00790955   -0.00611442
     atom   14 type  2   force =     0.05706835   -0.27802340    0.32914810
     atom   15 type  2   force =    -0.01286931    0.00050274    0.26666460
     atom   16 type  1   force =    -0.00031923    0.03914179   -0.02695043
[...]
     atom   28 type  2   force =     0.00053518   -0.01413480   -0.27961709
     atom   29 type  2   force =    -0.00086076   -0.00963254    0.26997335
     atom   30 type  1   force =    -0.00010638    0.02033863    0.00498265
     atom   31 type  2   force =    -0.00382501   -0.00106562   -0.26723159
     atom   32 type  2   force =     0.00535629   -0.01269024    0.26915006
     atom   33 type  1   force =    -0.00169130    0.00651692    0.00226425
     atom   34 type  2   force =     0.00050336   -0.00604749   -0.27500718
     atom   35 type  2   force =    -0.00062782   -0.01285390    0.26721482
     atom   36 type  3   force =    -0.00508857    0.04433169   -2.32533638
     The ionic contribution  to forces
     atom    1 type  1   force =     0.72307570    1.32280509   -1.58066008
     atom    2 type  2   force =     0.81930549   -0.01795359   38.15211306
     atom    3 type  2   force =     0.12797003   -0.04225164  -38.35953927
     atom    4 type  1   force =     0.25310621    0.83923885   -0.42731773
     atom    5 type  2   force =    -0.36376528    2.14433481   37.79752969
     atom    6 type  2   force =     0.17125526   -0.18588494  -38.76402853
     atom    7 type  1   force =    -2.54686792   -2.39461786    1.23155461
     atom    8 type  2   force =    -1.07527345    0.16960200   38.04981600
     atom    9 type  2   force =     0.37834437   -0.05103125  -38.46186798
     atom   10 type  1   force =     0.14350077   -0.98892868    0.95558346
     atom   11 type  2   force =     0.11345104   -2.41099261   37.81838980
     atom   12 type  2   force =     0.25353565    0.22625699  -38.80851353
     atom   13 type  1   force =    -0.72231166    1.28454300   -1.31613599
     atom   14 type  2   force =    -0.00008480    0.01426051   28.34375133
     atom   15 type  2   force =    -0.02178072   -0.08993799  -38.11851329
     atom   16 type  1   force =     0.02218305    4.25655413    1.01099852
     atom   17 type  2   force =     0.39568753    2.15589165   37.89021216
     atom   18 type  2   force =    -0.18887407   -0.16945623  -38.70140514
     atom   19 type  1   force =     2.57611003   -2.41605764    1.80338880
     atom   20 type  2   force =    -0.02693183   -0.06019710  -38.95937810
     atom   21 type  1   force =     0.01639512   -1.38953838   -3.13581761
     atom   22 type  2   force =    -0.09530874   -2.40228730   37.91858552
     atom   23 type  2   force =    -0.27982777    0.21179028  -38.71898039
     atom   24 type  1   force =    -0.00607109    0.80880318    1.35214274
     atom   25 type  2   force =    -0.83761944   -0.01296461   38.21128907
     atom   26 type  2   force =    -0.10643588   -0.06980709  -38.26109868
     atom   27 type  1   force =    -0.26651145    0.85786683    0.04930217
     atom   28 type  2   force =    -0.02599875    0.80767499   37.92300023
     atom   29 type  2   force =     0.02183988    0.00005285  -37.94827690
     atom   30 type  1   force =     0.00661464   -0.79282220    0.98468209
     atom   31 type  2   force =     1.02790658    0.18111593   38.13273933
     atom   32 type  2   force =    -0.35754842   -0.05052435  -38.34801576
     atom   33 type  1   force =    -0.15521261   -0.96228423    1.37614916
     atom   34 type  2   force =    -0.02628076   -0.76898740   38.50123797
     atom   35 type  2   force =     0.02420488    0.05025744  -38.01366722
     atom   36 type  3   force =     0.02821842   -0.05452346   50.42075046
     The local contribution  to forces
     atom    1 type  1   force =    -0.71482077   -1.33666729    1.56762846
     atom    2 type  2   force =    -0.81888385    0.02258199  -37.90056943
     atom    3 type  2   force =    -0.12523710    0.05265139   38.11658712
     atom    4 type  1   force =    -0.25948870   -0.84630139    0.42175437
     atom    5 type  2   force =     0.36108736   -2.12278319  -37.56007951
     atom    6 type  2   force =    -0.17231120    0.18838621   38.51975078
     atom    7 type  1   force =     2.55625235    2.39363698   -1.20817389
     atom    8 type  2   force =     1.07050037   -0.16908673  -37.80340445
     atom    9 type  2   force =    -0.37208823    0.06305979   38.21455944
     atom   10 type  1   force =    -0.14505445    0.98205627   -0.95777718
     atom   11 type  2   force =    -0.11942981    2.41130523  -37.57523660
     atom   12 type  2   force =    -0.24538169   -0.21292435   38.56581833
     atom   13 type  1   force =     0.71593579   -1.30199145    1.30491624
     atom   14 type  2   force =    -0.00051023   -0.00243438  -28.63176767
     atom   15 type  2   force =     0.02159238    0.10091830   37.86557707
     atom   16 type  1   force =    -0.02280194   -4.28618576   -0.97717121
     atom   17 type  2   force =    -0.39261035   -2.13470349  -37.65308139
     atom   18 type  2   force =     0.18944404    0.17230062   38.45692417
     atom   19 type  1   force =    -2.58584580    2.41544597   -1.77976343
     atom   20 type  2   force =     0.02637168    0.07280657   38.71534273
     atom   21 type  1   force =    -0.01560278    1.35168068    3.11851656
     atom   22 type  2   force =     0.10191282    2.40274866  -37.67546358
     atom   23 type  2   force =     0.27137657   -0.19823966   38.47601009
     atom   24 type  1   force =     0.00662662   -0.82570759   -1.36072676
     atom   25 type  2   force =     0.83669179    0.01779102  -37.95981656
     atom   26 type  2   force =     0.10400019    0.08015795   38.01748489
     atom   27 type  1   force =     0.27226339   -0.86477501   -0.05495705
     atom   28 type  2   force =     0.02540209   -0.79425225  -37.66536391
     atom   29 type  2   force =    -0.02136682    0.00964328   37.69834982
     atom   30 type  1   force =    -0.00626396    0.77254375   -0.98852366
     atom   31 type  2   force =    -1.02384040   -0.18064235  -37.88630302
     atom   32 type  2   force =     0.35174090    0.06251043   38.10045471
     atom   33 type  1   force =     0.15622403    0.95662796   -1.37824299
     atom   34 type  2   force =     0.02573685    0.77546966  -38.24644101
     atom   35 type  2   force =    -0.02370103   -0.03760584   37.76785740
     atom   36 type  3   force =    -0.02327190    0.01066640  -48.12018458
     The core correction contribution to forces
     atom    1 type  1   force =     0.00000000    0.00000000    0.00000000
     atom    2 type  2   force =    -0.00006525    0.00005908    0.02133873
     atom    3 type  2   force =     0.00016031    0.00045123   -0.02078526
     atom    4 type  1   force =     0.00000000    0.00000000    0.00000000
     atom    5 type  2   force =    -0.00032513    0.00096418    0.02068760
     atom    6 type  2   force =     0.00006110   -0.00020425   -0.02082980
     atom    7 type  1   force =     0.00000000    0.00000000    0.00000000
     atom    8 type  2   force =    -0.00027848    0.00031838    0.02099212
     atom    9 type  2   force =     0.00060648    0.00064691   -0.02100739
     atom   10 type  1   force =     0.00000000    0.00000000    0.00000000
     atom   11 type  2   force =    -0.00008241   -0.00019227    0.02103006
     atom   12 type  2   force =     0.00073466    0.00101517   -0.02085738
     atom   13 type  1   force =     0.00000000    0.00000000    0.00000000
     atom   14 type  2   force =    -0.00004723    0.00033519   -0.00990560
     atom   15 type  2   force =    -0.00003260    0.00054909   -0.02112079
     atom   16 type  1   force =     0.00000000    0.00000000    0.00000000
     atom   17 type  2   force =     0.00042198    0.00095197    0.02069808
     atom   18 type  2   force =    -0.00010598   -0.00021865   -0.02080610
     atom   19 type  1   force =     0.00000000    0.00000000    0.00000000
     atom   20 type  2   force =    -0.00008795    0.00054029   -0.02126194
     atom   21 type  1   force =     0.00000000    0.00000000    0.00000000
     atom   22 type  2   force =     0.00015631   -0.00015046    0.02103190
     atom   23 type  2   force =    -0.00079867    0.00096698   -0.02084972
     atom   24 type  1   force =     0.00000000    0.00000000    0.00000000
     atom   25 type  2   force =     0.00005874    0.00008463    0.02134357
     atom   26 type  2   force =    -0.00012479    0.00041996   -0.02075586
     atom   27 type  1   force =     0.00000000    0.00000000    0.00000000
     atom   28 type  2   force =    -0.00005223    0.00086686    0.02136030
     atom   29 type  2   force =     0.00006971    0.00025788   -0.02086446
     atom   30 type  1   force =     0.00000000    0.00000000    0.00000000
     atom   31 type  2   force =     0.00017237    0.00035327    0.02099815
     atom   32 type  2   force =    -0.00055573    0.00063925   -0.02099780
     atom   33 type  1   force =     0.00000000    0.00000000    0.00000000
     atom   34 type  2   force =    -0.00005420    0.00021074    0.02126962
     atom   35 type  2   force =     0.00004940    0.00075510   -0.02092079
     atom   36 type  3   force =     0.00005410   -0.00048731    0.02466352
     The Hubbard contrib.    to forces
     atom    1 type  1   force =     0.00000000    0.00000000    0.00000000
     atom    2 type  2   force =     0.00000000    0.00000000    0.00000000
     atom    3 type  2   force =     0.00000000    0.00000000    0.00000000
     atom    4 type  1   force =     0.00000000    0.00000000    0.00000000
     atom    5 type  2   force =     0.00000000    0.00000000    0.00000000
     atom    6 type  2   force =     0.00000000    0.00000000    0.00000000
     atom    7 type  1   force =     0.00000000    0.00000000    0.00000000
     atom    8 type  2   force =     0.00000000    0.00000000    0.00000000
     atom    9 type  2   force =     0.00000000    0.00000000    0.00000000
     atom   10 type  1   force =     0.00000000    0.00000000    0.00000000
     atom   11 type  2   force =     0.00000000    0.00000000    0.00000000
     atom   12 type  2   force =     0.00000000    0.00000000    0.00000000
     atom   13 type  1   force =     0.00000000    0.00000000    0.00000000
     atom   14 type  2   force =     0.00000000    0.00000000    0.00000000
     atom   15 type  2   force =     0.00000000    0.00000000    0.00000000
     atom   16 type  1   force =     0.00000000    0.00000000    0.00000000
     atom   17 type  2   force =     0.00000000    0.00000000    0.00000000
     atom   18 type  2   force =     0.00000000    0.00000000    0.00000000
     atom   19 type  1   force =     0.00000000    0.00000000    0.00000000
     atom   20 type  2   force =     0.00000000    0.00000000    0.00000000
     atom   21 type  1   force =     0.00000000    0.00000000    0.00000000
     atom   22 type  2   force =     0.00000000    0.00000000    0.00000000
     atom   23 type  2   force =     0.00000000    0.00000000    0.00000000
     atom   24 type  1   force =     0.00000000    0.00000000    0.00000000
     atom   25 type  2   force =     0.00000000    0.00000000    0.00000000
     atom   26 type  2   force =     0.00000000    0.00000000    0.00000000
     atom   27 type  1   force =     0.00000000    0.00000000    0.00000000
     atom   28 type  2   force =     0.00000000    0.00000000    0.00000000
     atom   29 type  2   force =     0.00000000    0.00000000    0.00000000
     atom   30 type  1   force =     0.00000000    0.00000000    0.00000000
     atom   31 type  2   force =     0.00000000    0.00000000    0.00000000
     atom   32 type  2   force =     0.00000000    0.00000000    0.00000000
     atom   33 type  1   force =     0.00000000    0.00000000    0.00000000
     atom   34 type  2   force =     0.00000000    0.00000000    0.00000000
     atom   35 type  2   force =     0.00000000    0.00000000    0.00000000
     atom   36 type  3   force =     0.00000000    0.00000000    0.00000000
     The SCF correction term to forces
     atom    1 type  1   force =    -0.00001783   -0.00002140    0.00003601
     atom    2 type  2   force =     0.00000215    0.00000314    0.00001159
     atom    3 type  2   force =     0.00001359   -0.00000986   -0.00000440
     atom    4 type  1   force =    -0.00000675    0.00000462    0.00001169
     atom    5 type  2   force =    -0.00000010    0.00000344    0.00000309
     atom    6 type  2   force =     0.00000045    0.00001536    0.00000083
     atom    7 type  1   force =     0.00000995    0.00000420   -0.00002138
     atom    8 type  2   force =     0.00000467   -0.00000575    0.00000086
     atom    9 type  2   force =     0.00000273    0.00001068   -0.00001329
     atom   10 type  1   force =     0.00000775   -0.00000295   -0.00000198
     atom   11 type  2   force =    -0.00000213    0.00001042    0.00001370
     atom   12 type  2   force =    -0.00000328    0.00000089   -0.00001664
     atom   13 type  1   force =     0.00001788   -0.00004338    0.00005859
     atom   14 type  2   force =    -0.00000430   -0.00000961   -0.00000482
     atom   15 type  2   force =    -0.00000161   -0.00000937    0.00001395
     atom   16 type  1   force =     0.00000696    0.00001449    0.00001010
     atom   17 type  2   force =     0.00000396   -0.00000335    0.00000476
     atom   18 type  2   force =     0.00000416    0.00001556    0.00000320
     atom   19 type  1   force =    -0.00000380    0.00000927   -0.00001511
     atom   20 type  2   force =     0.00000260    0.00000060   -0.00000983
     atom   21 type  1   force =     0.00000232    0.00002431   -0.00000049
     atom   22 type  2   force =     0.00000166    0.00000846    0.00000665
     atom   23 type  2   force =    -0.00000020   -0.00000234   -0.00000766
     atom   24 type  1   force =    -0.00000389   -0.00000529    0.00000738
     atom   25 type  2   force =     0.00000850    0.00000916   -0.00000076
     atom   26 type  2   force =    -0.00001672   -0.00001412    0.00000658
     atom   27 type  1   force =    -0.00001012    0.00000209    0.00000518
     atom   28 type  2   force =    -0.00000194   -0.00000806    0.00000336
     atom   29 type  2   force =    -0.00000201   -0.00000718    0.00000780
     atom   30 type  1   force =     0.00000339    0.00000511   -0.00001633
     atom   31 type  2   force =    -0.00000620   -0.00000162   -0.00000028
     atom   32 type  2   force =    -0.00000428    0.00001393   -0.00000946
     atom   33 type  1   force =    -0.00000422   -0.00000253   -0.00001189
     atom   34 type  2   force =     0.00000070    0.00000378    0.00000371
     atom   35 type  2   force =     0.00000098   -0.00000306   -0.00000877
     atom   36 type  3   force =     0.00002356   -0.00004319   -0.00002984

     Total force =     0.007012     Total SCF correction =     0.000134
     Energy error            =      8.9E-05 Ry
     Gradient error          =      2.7E-03 Ry/Bohr

     bfgs converged in  22 scf cycles and  21 bfgs steps
     (criteria: energy <  1.0E-04 Ry, force <  1.0E-02 Ry/Bohr)

     End of BFGS Geometry Optimization

     Final energy             =   -2246.4490843665 Ry

     File ./MoS2-V-O.bfgs deleted, as requested
Begin final coordinates

ATOMIC_POSITIONS (angstrom)
Mo            6.5958296199        1.7538662012        2.7422852249
S             8.1347931590        0.8248557515        4.3635098360
S             8.1599880320        0.8180034493        1.1615205471
Mo            8.1303539186        4.4773722810        2.7114770764
S             6.5385188874        3.6428117508        4.3140117623
S             6.5649340131        3.5634332847        1.1028675321
Mo            6.5337916417        7.1662556168        2.6594697687
S             8.0920470653        6.2856379376        4.2975513831
S             8.1512911537        6.3014133213        1.1038296334
Mo            8.1436889855        9.9161040032        2.7565140311
S             6.5295122079        8.9274873142        4.3162249852
S             6.6098582982        9.0027839808        1.1040672588
Mo            3.4070464240        1.7585683158        2.7472453525
S             5.0019281520        0.7954023670        4.2462700166
S             4.9985829682        0.8258705638        1.1785396464
Mo            5.0048102336        4.5179713539        2.6647383159
S             3.4750774814        3.6470040870        4.3212020346
S             3.4403163720        3.5632236774        1.1097891226
Mo            3.4730173116        7.1645333153        2.6702048187
S             4.9992317611        6.2949098478        1.0497463804
Mo            5.0008134405        9.8543303504        2.7091069841
S             3.4790795562        8.9288358095        4.3238651606
S             3.3904487708        8.9972823721        1.1126345349
Mo            0.2734984234        1.7123996724        2.7705678959
S             1.8687226987        0.8275182362        4.3694807020
S             1.8466404723        0.8159852876        1.1696576285
Mo            1.8778431245        4.4778654833        2.7205817700
S             0.2727394307        3.5855775951        4.3208166245
S             0.2792808301        3.5358734322        1.1559933187
Mo            0.2728830432        7.1921527967        2.7314491194
S             1.9071326803        6.2880858334        4.3050788437
S             1.8574712542        6.3000163533        1.1130470039
Mo            1.8616598411        9.9142643671        2.7645766729
S             0.2712054015        9.0042758337        4.3521022460
S             0.2768231487        9.0264970878        1.1653227969
O             5.0052427649        0.7724774793        5.7444783335
End final coordinates



     Writing all to output data dir ./MoS2-V-O.save/
 
     init_run     :      4.70s CPU      5.19s WALL (       1 calls)
     electrons    :   1992.83s CPU   2250.05s WALL (      22 calls)
     update_pot   :     66.20s CPU     70.52s WALL (      21 calls)
     forces       :     60.44s CPU     68.85s WALL (      22 calls)

     Called by init_run:
     wfcinit      :      0.48s CPU      0.54s WALL (       1 calls)
     potinit      :      2.45s CPU      2.68s WALL (       1 calls)
     hinit0       :      0.45s CPU      0.47s WALL (       1 calls)

     Called by electrons:
     c_bands      :    290.82s CPU    297.91s WALL (     203 calls)
     sum_band     :    114.64s CPU    147.14s WALL (     203 calls)
     v_of_rho     :    189.81s CPU    231.00s WALL (     217 calls)
     newd         :     66.65s CPU     97.68s WALL (     217 calls)
     PAW_pot      :      8.63s CPU      8.66s WALL (     238 calls)
     mix_rho      :   1344.36s CPU   1491.99s WALL (     203 calls)

     Called by c_bands:
     init_us_2    :      4.67s CPU      5.06s WALL (     428 calls)
     init_us_2:cp :      4.67s CPU      5.05s WALL (     428 calls)
     regterg      :    275.56s CPU    282.25s WALL (     203 calls)

     Called by *egterg:
     rdiaghg      :     18.80s CPU     19.00s WALL (    1074 calls)
     h_psi        :    178.48s CPU    180.09s WALL (    1104 calls)
     s_psi        :     17.14s CPU     17.22s WALL (    1104 calls)
     g_psi        :      0.86s CPU      0.88s WALL (     900 calls)

     Called by h_psi:
     h_psi:calbec :     19.30s CPU     19.39s WALL (    1104 calls)
     vloc_psi     :    139.86s CPU    141.24s WALL (    1104 calls)
     add_vuspsi   :     17.10s CPU     17.21s WALL (    1104 calls)

     General routines
     calbec       :     28.14s CPU     28.29s WALL (    1416 calls)
     fft          :    131.32s CPU    152.00s WALL (   14520 calls)
     ffts         :    605.64s CPU    747.73s WALL (  330257 calls)
     fftw         :     89.05s CPU     89.84s WALL (  124066 calls)
     interpolate  :      2.71s CPU      3.09s WALL (     217 calls)
 
     Parallel routines
 
     PWSCF        :  35m33.69s CPU  40m 8.52s WALL

 
   This run was terminated on:  19:23:13   1Nov2023            

=------------------------------------------------------------------------------=
   JOB DONE.
=------------------------------------------------------------------------------=
