
     Program PWSCF v.7.2 starts on  1Nov2023 at 14: 9:36 

     This program is part of the open-source Quantum ESPRESSO suite
     for quantum simulation of materials; please cite
         "P. Giannozzi et al., J. Phys.:Condens. Matter 21 395502 (2009);
         "P. Giannozzi et al., J. Phys.:Condens. Matter 29 465901 (2017);
         "P. Giannozzi et al., J. Chem. Phys. 152 154105 (2020);
          URL http://www.quantum-espresso.org", 
     in publications or presentations arising from this work. More details at
     http://www.quantum-espresso.org/quote

     Parallel version (MPI & OpenMP), running on      48 processor cores
     Number of MPI processes:                48
     Threads/MPI process:                     1

     MPI processes distributed on     1 nodes
     77016 MiB available memory on the printing compute node when the environment starts
 
     Waiting for input...
     Reading input from standard input
Warning: card &CELL ignored
Warning: card CELL_DYNAMICS = 'BFGS', ignored
Warning: card CELL_DOFREE = '2DXY' ignored
Warning: card / ignored

     Current dimensions of program PWSCF are:
     Max number of different atomic species (ntypx) = 10
     Max number of k-points (npk) =  40000
     Max angular momentum in pseudopotentials (lmaxx) =  4
     file O.pbe-n-kjpaw_psl.0.1.UPF: wavefunction(s)  2P renormalized

     IMPORTANT: XC functional enforced from input :
     Exchange-correlation= RVV10
                           (   1   4  13   4  26   0   0)
     Any further DFT definition will be discarded
     Please, verify this is what you really want


     gamma-point specific algorithms are used
     signal trapping enabled: kill the code with -SIGUSR1 to stop cleanly the simulation 
 
     R & G space division:  proc/nbgrp/npool/nimage =      48
     Subspace diagonalization in iterative solution of the eigenvalue problem:
     one sub-group per band group will be used
     scalapack distributed-memory algorithm (size of sub-group:  2*  2 procs)

 
     Parallelization info
     --------------------
     sticks:   dense  smooth     PW     G-vecs:    dense   smooth      PW
     Min         396     194     47               101632    35090    4376
     Max         398     196     50               101674    35128    4410
     Sum       19091    9389   2349              4879585  1685513  210763
 
     Using Slab Decomposition
 


     bravais-lattice index     =            0
     lattice parameter (alat)  =      17.8707  a.u.
     unit-cell volume          =   17436.2743 (a.u.)^3
     number of atoms/cell      =           36
     number of atomic types    =            3
     number of electrons       =       312.00
     number of Kohn-Sham states=          187
     kinetic-energy cutoff     =      80.0000  Ry
     charge density cutoff     =     650.0000  Ry
     scf convergence threshold =      1.0E-06
     mixing beta               =       0.7000
     number of iterations used =            8  local-TF  mixing
     energy convergence thresh.=      1.0E-04
     force convergence thresh. =      1.0E-02
     Exchange-correlation= RVV10
                           (   1   4  13   4  26   0   0)
     nstep                     =          200


     celldm(1)=  17.870686  celldm(2)=   0.000000  celldm(3)=   0.000000
     celldm(4)=   0.000000  celldm(5)=   0.000000  celldm(6)=   0.000000

     crystal axes: (cart. coord. in units of alat)
               a(1) = (   1.000000   0.000000   0.000000 )  
               a(2) = (   0.000000   1.155671   0.000000 )  
               a(3) = (   0.000000   0.000000   2.643601 )  

     reciprocal axes: (cart. coord. in units 2 pi/alat)
               b(1) = (  1.000000  0.000000  0.000000 )  
               b(2) = (  0.000000  0.865298  0.000000 )  
               b(3) = (  0.000000  0.000000  0.378272 )  


     PseudoPot. # 1 for Mo read from file:
     ../pseudo/Mo_ONCV_PBE-1.0.oncvpsp.upf
     MD5 check sum: 1b5d28e075c9ccadda658a603575cd1f
     Pseudo is Norm-conserving, Zval = 14.0
     Generated using ONCVPSP code by D. R. Hamann
     Using radial grid of 1526 points,  6 beta functions with: 
                l(1) =   0
                l(2) =   0
                l(3) =   1
                l(4) =   1
                l(5) =   2
                l(6) =   2

     PseudoPot. # 2 for S  read from file:
     ../pseudo/s_pbe_v1.4.uspp.F.UPF
     MD5 check sum: 88d86576ff6df21479756cfb9bdac1df
     Pseudo is Ultrasoft + core correction, Zval =  6.0
     Generated by new atomic code, or converted to UPF format
     Using radial grid of  907 points,  6 beta functions with: 
                l(1) =   0
                l(2) =   0
                l(3) =   1
                l(4) =   1
                l(5) =   2
                l(6) =   2
     Q(r) pseudized with  8 coefficients,  rinner =    1.300   1.300   1.300
                                                       1.300   1.300

     PseudoPot. # 3 for O  read from file:
     ../pseudo/O.pbe-n-kjpaw_psl.0.1.UPF
     MD5 check sum: 0234752ac141de4415c5fc33072bef88
     Pseudo is Projector augmented-wave + core cor, Zval =  6.0
     Generated using "atomic" code by A. Dal Corso  v.5.0.99 svn rev. 10869
     Shape of augmentation charge: BESSEL
     Using radial grid of 1095 points,  4 beta functions with: 
                l(1) =   0
                l(2) =   0
                l(3) =   1
                l(4) =   1
     Q(r) pseudized with 0 coefficients 


     atomic species   valence    mass     pseudopotential
        Mo            14.00    95.94000     Mo( 1.00)
        S              6.00    32.06500     S ( 1.00)
        O              6.00    15.99940     O ( 1.00)

     No symmetry found



   Cartesian axes

     site n.     atom                  positions (alat units)
         1           Mo  tau(   1) = (   0.6952221   0.1890506   0.2985846  )
         2           S   tau(   2) = (   0.8646417   0.0856217   0.4689279  )
         3           S   tau(   3) = (   0.8663890   0.0857843   0.1351291  )
         4           Mo  tau(   4) = (   0.8560186   0.4753274   0.2873942  )
         5           S   tau(   5) = (   0.6873294   0.3936244   0.4596353  )
         6           S   tau(   6) = (   0.6929804   0.3713468   0.1185692  )
         7           Mo  tau(   7) = (   0.6862796   0.7633098   0.2825370  )
         8           S   tau(   8) = (   0.8545980   0.6708292   0.4486168  )
         9           S   tau(   9) = (   0.8545123   0.6666874   0.1146125  )
        10           Mo  tau(  10) = (   0.8629403   1.0471007   0.3006803  )
        11           S   tau(  11) = (   0.6868280   0.9456650   0.4634891  )
        12           S   tau(  12) = (   0.6998113   0.9568511   0.1205389  )
        13           Mo  tau(  13) = (   0.3618216   0.1847309   0.2935964  )
        14           S   tau(  14) = (   0.5260962   0.0863870   0.4600448  )
        15           S   tau(  15) = (   0.5348379   0.0894875   0.1297123  )
        16           Mo  tau(  16) = (   0.5265817   0.4772436   0.2784130  )
        17           S   tau(  17) = (   0.3624753   0.3882513   0.4525556  )
        18           S   tau(  18) = (   0.3635411   0.3752055   0.1119148  )
        19           Mo  tau(  19) = (   0.3652268   0.7630864   0.2781795  )
        20           S   tau(  20) = (   0.5269494   0.6690381   0.1096838  )
        21           Mo  tau(  21) = (   0.5300192   1.0470394   0.2900995  )
        22           S   tau(  22) = (   0.3670346   0.9457522   0.4574073  )
        23           S   tau(  23) = (   0.3604225   0.9585725   0.1159032  )
        24           Mo  tau(  24) = (   0.0313099   0.1847895   0.3013130  )
        25           S   tau(  25) = (   0.1956761   0.0838230   0.4650863  )
        26           S   tau(  26) = (   0.1967693   0.0903508   0.1278874  )
        27           Mo  tau(  27) = (   0.1967578   0.4753919   0.2813011  )
        28           S   tau(  28) = (   0.0287851   0.3864324   0.4586755  )
        29           S   tau(  29) = (   0.0244514   0.3729871   0.1239344  )
        30           Mo  tau(  30) = (   0.0286728   0.7631204   0.2856894  )
        31           S   tau(  31) = (   0.2011512   0.6675435   0.4465001  )
        32           S   tau(  32) = (   0.1969214   0.6672839   0.1104564  )
        33           Mo  tau(  33) = (   0.1950294   1.0511147   0.2932237  )
        34           S   tau(  34) = (   0.0312912   0.9612169   0.4667423  )
        35           S   tau(  35) = (   0.0292670   0.9563028   0.1216485  )
        36           O   tau(  36) = (   0.6666667   0.2568157   0.5407634  )

     number of k points=     1  Gaussian smearing, width (Ry)=  0.0100
                       cart. coord. in units 2pi/alat
        k(    1) = (   0.0000000   0.0000000   0.0000000), wk =   2.0000000

     Dense  grid:  2439793 G-vectors     FFT dimensions: ( 150, 180, 384)

     Smooth grid:   842757 G-vectors     FFT dimensions: ( 108, 120, 270)

     Estimated max dynamical RAM per process >     269.22 MB

     Estimated total dynamical RAM >      12.62 GB

     Initial potential from superposition of free atoms

     starting charge     311.9873, renormalised to     312.0000

     negative rho (up, down):  2.740E-04 0.000E+00


---------------------------------------------------------------------------------
Carrying out rVV10 run using the following parameters:
Nqs =      20    Nr_points =    1024   r_max =   100.000
b_value =  6.30000    beta =  0.00901
     q_mesh =  0.00010000  0.00030000  0.00058939  0.00100810
               0.00161396  0.00249058  0.00375900  0.00559430
               0.00824984  0.01209221  0.01765183  0.02569619
               0.03733578  0.05417739  0.07854596  0.11380545
               0.16482331  0.23864234  0.34545298  0.50000000

Gradients computed in Reciprocal space

---------------------------------------------------------------------------------


     Starting wfcs are  216 randomized atomic wfcs
     Checking if some PAW data can be deallocated... 

     total cpu time spent up to now is        5.3 secs

     Self-consistent Calculation

     iteration #  1     ecut=    80.00 Ry     beta= 0.70
     Davidson diagonalization with overlap
     ethr =  1.00E-02,  avg # of iterations =  2.0

     Threshold (ethr) on eigenvalues was too large:
     Diagonalizing with lowered threshold

     Davidson diagonalization with overlap
     ethr =  4.24E-04,  avg # of iterations =  3.0

     negative rho (up, down):  2.837E-08 0.000E+00

     total cpu time spent up to now is       20.0 secs

     total energy              =   -2246.23191471 Ry
     estimated scf accuracy    <       1.57182614 Ry

     iteration #  2     ecut=    80.00 Ry     beta= 0.70
     Davidson diagonalization with overlap
     ethr =  5.04E-04,  avg # of iterations =  3.0

     total cpu time spent up to now is       25.3 secs

     total energy              =   -2246.21570461 Ry
     estimated scf accuracy    <       0.66907948 Ry

     iteration #  3     ecut=    80.00 Ry     beta= 0.70
     Davidson diagonalization with overlap
     ethr =  2.14E-04,  avg # of iterations =  4.0

     total cpu time spent up to now is       29.6 secs

     total energy              =   -2246.21438616 Ry
     estimated scf accuracy    <       0.18851840 Ry

     iteration #  4     ecut=    80.00 Ry     beta= 0.70
     Davidson diagonalization with overlap
     c_bands:  2 eigenvalues not converged
     ethr =  6.04E-05,  avg # of iterations = 20.0

     total cpu time spent up to now is       34.9 secs

     total energy              =   -2246.24494020 Ry
     estimated scf accuracy    <       0.03182769 Ry

     iteration #  5     ecut=    80.00 Ry     beta= 0.70
     Davidson diagonalization with overlap
     ethr =  1.02E-05,  avg # of iterations = 14.0

     total cpu time spent up to now is       40.0 secs

     total energy              =   -2246.24610131 Ry
     estimated scf accuracy    <       0.01849417 Ry

     iteration #  6     ecut=    80.00 Ry     beta= 0.70
     Davidson diagonalization with overlap
     ethr =  5.93E-06,  avg # of iterations =  2.0

     total cpu time spent up to now is       44.0 secs

     total energy              =   -2246.24527727 Ry
     estimated scf accuracy    <       0.01188715 Ry

     iteration #  7     ecut=    80.00 Ry     beta= 0.70
     Davidson diagonalization with overlap
     ethr =  3.81E-06,  avg # of iterations =  2.0

     total cpu time spent up to now is       48.2 secs

     total energy              =   -2246.24414330 Ry
     estimated scf accuracy    <       0.00745771 Ry

     iteration #  8     ecut=    80.00 Ry     beta= 0.70
     Davidson diagonalization with overlap
     ethr =  2.39E-06,  avg # of iterations =  2.0

     negative rho (up, down):  7.829E-03 0.000E+00

     total cpu time spent up to now is       54.4 secs

     total energy              =   -2246.24284692 Ry
     estimated scf accuracy    <       0.00451977 Ry

     iteration #  9     ecut=    80.00 Ry     beta= 0.70
     Davidson diagonalization with overlap
     ethr =  1.45E-06,  avg # of iterations =  2.0

     negative rho (up, down):  2.111E-02 0.000E+00

     total cpu time spent up to now is       61.0 secs

     total energy              =   -2246.24255947 Ry
     estimated scf accuracy    <       0.00233637 Ry

     iteration # 10     ecut=    80.00 Ry     beta= 0.70
     Davidson diagonalization with overlap
     ethr =  7.49E-07,  avg # of iterations =  1.0

     negative rho (up, down):  2.694E-02 0.000E+00

     total cpu time spent up to now is       67.7 secs

     total energy              =   -2246.24257873 Ry
     estimated scf accuracy    <       0.00113365 Ry

     iteration # 11     ecut=    80.00 Ry     beta= 0.70
     Davidson diagonalization with overlap
     ethr =  3.63E-07,  avg # of iterations =  2.0

     negative rho (up, down):  1.847E-02 0.000E+00

     total cpu time spent up to now is       75.9 secs

     total energy              =   -2246.24257407 Ry
     estimated scf accuracy    <       0.00022348 Ry

     iteration # 12     ecut=    80.00 Ry     beta= 0.70
     Davidson diagonalization with overlap
     ethr =  7.16E-08,  avg # of iterations =  5.0

     negative rho (up, down):  5.488E-03 0.000E+00

     total cpu time spent up to now is       83.3 secs

     total energy              =   -2246.24256792 Ry
     estimated scf accuracy    <       0.00004340 Ry

     iteration # 13     ecut=    80.00 Ry     beta= 0.70
     Davidson diagonalization with overlap
     ethr =  1.39E-08,  avg # of iterations = 13.0

     negative rho (up, down):  1.451E-03 0.000E+00

     total cpu time spent up to now is       93.0 secs

     total energy              =   -2246.24259230 Ry
     estimated scf accuracy    <       0.00000545 Ry

     iteration # 14     ecut=    80.00 Ry     beta= 0.70
     Davidson diagonalization with overlap
     ethr =  1.75E-09,  avg # of iterations =  4.0

     negative rho (up, down):  2.867E-04 0.000E+00

     total cpu time spent up to now is      102.8 secs

     total energy              =   -2246.24259406 Ry
     estimated scf accuracy    <       0.00000107 Ry

     iteration # 15     ecut=    80.00 Ry     beta= 0.70
     Davidson diagonalization with overlap
     ethr =  3.42E-10,  avg # of iterations =  5.0

     negative rho (up, down):  1.873E-04 0.000E+00

     total cpu time spent up to now is      107.3 secs

     End of self-consistent calculation

          k = 0.0000 0.0000 0.0000 (105382 PWs)   bands (ev):

   -63.2082 -62.9239 -62.9034 -62.8905 -62.8577 -62.8063 -62.7940 -62.7847
   -62.7747 -62.7667 -62.7201 -62.6718 -37.5429 -37.3574 -37.3057 -37.2187
   -37.1799 -37.1553 -37.1393 -37.1163 -37.1030 -37.0809 -37.0772 -37.0690
   -37.0577 -37.0398 -37.0381 -37.0231 -37.0175 -37.0058 -36.9782 -36.9746
   -36.9702 -36.9582 -36.9494 -36.9459 -36.9343 -36.9194 -36.9092 -36.8804
   -36.8708 -36.8459 -36.8345 -36.8309 -36.8209 -36.7987 -36.7170 -36.6520
   -23.4193 -15.9447 -15.2638 -15.1274 -14.9737 -14.9398 -14.7891 -14.5936
   -14.5090 -14.4654 -14.4462 -14.3706 -14.3487 -14.3291 -14.2467 -14.1734
   -14.1256 -14.1176 -14.0727 -13.8998 -13.8553 -13.8474 -13.8206 -13.6453
    -8.8342  -8.2354  -8.1025  -7.5954  -7.4445  -7.2858  -7.2574  -7.1902
    -7.1229  -7.0325  -6.8894  -6.7876  -6.7661  -6.7448  -6.6421  -6.6028
    -6.5079  -6.4395  -6.3688  -6.2978  -6.1517  -6.0341  -5.9237  -5.9052
    -5.8202  -5.7853  -5.7588  -5.6927  -5.6831  -5.6704  -5.6007  -5.5938
    -5.5110  -5.4325  -5.3987  -5.2948  -5.2555  -5.1814  -5.0819  -5.0327
    -4.9816  -4.9658  -4.9043  -4.8181  -4.7835  -4.5946  -4.4249  -4.3596
    -4.2848  -4.2058  -4.1862  -4.1309  -4.0771  -3.9598  -3.9041  -3.8386
    -3.7469  -3.6731  -3.6605  -3.6238  -3.6016  -3.5245  -3.5052  -3.4605
    -3.4468  -3.4120  -3.3361  -3.2608  -3.1646  -2.9412  -2.9122  -2.8648
    -2.8001  -2.7413  -2.6947  -2.6847  -2.6537  -2.6099  -2.4881  -2.2876
    -2.0723  -2.0335  -1.8900  -1.4543  -1.1011  -0.6663  -0.5450  -0.1933
    -0.1311  -0.0572  -0.0146   0.0238   0.1097   0.1652   0.2056   0.2428
     0.3527   0.3968   0.4572   0.4875   0.5322   0.5409   0.5785   0.6288
     0.6610   0.6778   0.7423   0.7543   0.7946   0.8657   0.9125   0.9663
     1.0293   1.0993   1.2195

     the Fermi energy is    -1.2777 ev

!    total energy              =   -2246.24259500 Ry
     estimated scf accuracy    <       0.00000018 Ry
     smearing contrib. (-TS)   =      -0.00209282 Ry
     internal energy E=F+TS    =   -2246.24050218 Ry

     The total energy is F=E-TS. E is the sum of the following terms:
     one-electron contribution =  -18500.35810901 Ry
     hartree contribution      =    9238.67796989 Ry
     xc contribution           =    -392.20976232 Ry
     ewald contribution        =    7417.50916088 Ry
     one-center paw contrib.   =      -9.85976162 Ry

     convergence has been achieved in  15 iterations

     negative rho (up, down):  1.873E-04 0.000E+00

     Forces acting on atoms (cartesian axes, Ry/au):

     atom    1 type  1   force =     0.01197139   -0.07022317   -0.00438142
     atom    2 type  2   force =     0.00832905   -0.01261614   -0.01667408
     atom    3 type  2   force =    -0.01994374    0.01215491   -0.00722408
     atom    4 type  1   force =     0.03292196   -0.01770150   -0.01858150
     atom    5 type  2   force =    -0.01999557    0.18013379   -0.00567930
     atom    6 type  2   force =     0.00388407    0.01008059   -0.00119969
     atom    7 type  1   force =     0.00373852   -0.02242087   -0.00867450
     atom    8 type  2   force =     0.00211842   -0.00176311    0.02047699
     atom    9 type  2   force =     0.01122836    0.00712438    0.00964172
     atom   10 type  1   force =    -0.00514714    0.00431035   -0.02124393
     atom   11 type  2   force =     0.00633607    0.00154317   -0.00721299
     atom   12 type  2   force =    -0.00128966    0.00049402    0.00535246
     atom   13 type  1   force =     0.01375581    0.01183901   -0.00551698
     atom   14 type  2   force =    -0.03118271   -0.06238043   -0.02692100
     atom   15 type  2   force =    -0.00738526    0.00415571   -0.01122338
     atom   16 type  1   force =    -0.00091714   -0.01969669    0.01365680
     atom   17 type  2   force =     0.00261560    0.00128720    0.00111131
     atom   18 type  2   force =    -0.00185335   -0.00355869    0.01093077
     atom   19 type  1   force =     0.01049254    0.00032063   -0.00849048
     atom   20 type  2   force =     0.00379275    0.00009418    0.00063384
     atom   21 type  1   force =    -0.02190545   -0.00958109    0.00058454
     atom   22 type  2   force =    -0.00106290    0.00060442   -0.00366174
     atom   23 type  2   force =    -0.00328250    0.00310019    0.00936619
     atom   24 type  1   force =    -0.01011177    0.00282500   -0.02486215
     atom   25 type  2   force =     0.01830950    0.01810050    0.00777984
     atom   26 type  2   force =    -0.01250378   -0.00261332   -0.00322389
     atom   27 type  1   force =    -0.00723327    0.00119278    0.00771992
     atom   28 type  2   force =     0.00332945    0.00172045   -0.00420283
     atom   29 type  2   force =    -0.00103439   -0.00088709   -0.00226912
     atom   30 type  1   force =    -0.00581379    0.01026921   -0.00610475
     atom   31 type  2   force =     0.00224592   -0.00071871    0.01656789
     atom   32 type  2   force =    -0.00842462    0.00479063    0.01049958
     atom   33 type  1   force =     0.01347529   -0.00581567   -0.01271712
     atom   34 type  2   force =     0.00224131   -0.04184183   -0.00861531
     atom   35 type  2   force =    -0.00854501    0.00712297    0.01608947
     atom   36 type  3   force =     0.01684604   -0.01144579    0.07826894
     The non-local contrib.  to forces
     atom    1 type  1   force =    -0.00573817    0.01890933   -0.04564280
     atom    2 type  2   force =     0.04534238   -0.02593741   -0.27613108
     atom    3 type  2   force =    -0.02814989    0.00383509    0.27445586
     atom    4 type  1   force =    -0.01670626   -0.00473112    0.01305365
     atom    5 type  2   force =    -0.04365994   -0.44362732   -0.03724731
     atom    6 type  2   force =    -0.01022700    0.00848253    0.25564552
     atom    7 type  1   force =    -0.02498487    0.02051135   -0.01639957
     atom    8 type  2   force =    -0.00502310    0.01421149   -0.24671696
     atom    9 type  2   force =     0.00592997   -0.01101864    0.27713907
     atom   10 type  1   force =     0.00378471   -0.00285948    0.00019346
     atom   11 type  2   force =     0.01540868   -0.00193936   -0.25937493
     atom   12 type  2   force =    -0.01120230   -0.01785264    0.26035014
     atom   13 type  1   force =    -0.01263491    0.00796896   -0.00908694
     atom   14 type  2   force =    -0.04614319   -0.02256631   -0.26857555
     atom   15 type  2   force =     0.00069991    0.00171069    0.26758106
     atom   16 type  1   force =     0.02682721    0.03569001   -0.02806222
     atom   17 type  2   force =     0.00407751   -0.03042829   -0.25422267
     atom   18 type  2   force =    -0.00105914    0.00595282    0.27073082
     atom   19 type  1   force =     0.01404685   -0.01010738   -0.00944400
     atom   20 type  2   force =     0.00113414   -0.02079628    0.26342143
     atom   21 type  1   force =    -0.00924184    0.03624048    0.00367600
     atom   22 type  2   force =    -0.00507412    0.00936944   -0.25812485
     atom   23 type  2   force =     0.00548164   -0.01493995    0.26715137
     atom   24 type  1   force =     0.01546130    0.00769350   -0.00629909
     atom   25 type  2   force =     0.01475388    0.01370027   -0.25599142
     atom   26 type  2   force =    -0.00312505   -0.01040432    0.26475021
     atom   27 type  1   force =    -0.00319561    0.01599286    0.01035028
     atom   28 type  2   force =    -0.00616290   -0.02451805   -0.28032778
     atom   29 type  2   force =    -0.00033104    0.00937617    0.26497132
     atom   30 type  1   force =     0.00595001    0.01943079    0.00892542
     atom   31 type  2   force =    -0.00716473   -0.00224115   -0.25365818
     atom   32 type  2   force =    -0.00268291   -0.00844341    0.27253965
     atom   33 type  1   force =    -0.00613390    0.00382538    0.00307119
     atom   34 type  2   force =    -0.00384042   -0.03258004   -0.27288938
     atom   35 type  2   force =    -0.00184708   -0.00943800    0.26939293
     atom   36 type  3   force =     0.26591261    1.70562180   -1.33065675
     The ionic contribution  to forces
     atom    1 type  1   force =     1.25395005   -1.88761732   -2.33908225
     atom    2 type  2   force =     1.36675831   -1.44060717   38.45018871
     atom    3 type  2   force =     0.09809501   -0.25776070  -37.04377761
     atom    4 type  1   force =     1.48239215    2.35347012   -1.92997785
     atom    5 type  2   force =     0.14176922    8.88763440   34.29777389
     atom    6 type  2   force =     0.39825400   -0.24557942  -39.28021758
     atom    7 type  1   force =    -2.57152871   -2.27387383    1.38974555
     atom    8 type  2   force =    -0.66948152    0.66343696   37.13196250
     atom    9 type  2   force =     0.43707639    0.15389564  -38.60244084
     atom   10 type  1   force =    -0.44684630   -1.55425759    4.22699904
     atom   11 type  2   force =    -0.52737306   -2.16745548   38.93032760
     atom   12 type  2   force =     0.46196098    0.51997891  -38.45628381
     atom   13 type  1   force =    -1.31584521    0.43025919    0.48315441
     atom   14 type  2   force =    -2.23738804   -2.86433080   37.09794544
     atom   15 type  2   force =    -0.05357781   -0.37129611  -37.87439024
     atom   16 type  1   force =    -1.21587820    5.96203114   -2.48119272
     atom   17 type  2   force =    -0.53518423    2.19816890   37.39412058
     atom   18 type  2   force =    -0.38502661   -0.50805097  -39.37281519
     atom   19 type  1   force =     2.41284506   -2.14306988   -0.31412622
     atom   20 type  2   force =     0.15122437    0.00062466  -39.09462703
     atom   21 type  1   force =    -0.49050985   -1.33490883   -0.44554027
     atom   22 type  2   force =     0.23522904   -2.00814381   38.27067981
     atom   23 type  2   force =    -0.16754597    0.55156198  -38.80596354
     atom   24 type  1   force =     0.73612498    0.71654117    3.98904542
     atom   25 type  2   force =     0.50561971   -0.08136883   39.05303634
     atom   26 type  2   force =    -0.32906463   -0.07170926  -37.97207773
     atom   27 type  1   force =    -0.15305299    1.04043413   -3.53367296
     atom   28 type  2   force =     0.93857487    1.47381324   37.84785888
     atom   29 type  2   force =    -0.07505501   -0.30375622  -38.01189146
     atom   30 type  1   force =    -0.09555423   -0.63589532   -0.93307518
     atom   31 type  2   force =     1.16763221    0.22457081   37.16000146
     atom   32 type  2   force =    -0.49841033    0.11001740  -39.13183818
     atom   33 type  1   force =     0.69503282   -1.43889130    1.08074110
     atom   34 type  2   force =     0.42037371   -1.71370978   39.22250525
     atom   35 type  2   force =    -0.23469080    0.37459970  -38.31043911
     atom   36 type  3   force =    -0.90089938   -2.35875574   47.90734382
     The local contribution  to forces
     atom    1 type  1   force =    -1.23631836    1.79842056    2.38007439
     atom    2 type  2   force =    -1.40116641    1.45251701  -38.21210785
     atom    3 type  2   force =    -0.09136783    0.26644978   36.78304488
     atom    4 type  1   force =    -1.43275333   -2.36623230    1.89794852
     atom    5 type  2   force =    -0.12034190   -8.28821026  -34.27377627
     atom    6 type  2   force =    -0.38483031    0.24815856   39.04362925
     atom    7 type  1   force =     2.60037002    2.23100452   -1.38254405
     atom    8 type  2   force =     0.67627238   -0.67916903  -36.88495726
     atom    9 type  2   force =    -0.43177582   -0.13637629   38.35578339
     atom   10 type  1   force =     0.43782388    1.56122168   -4.24874233
     atom   11 type  2   force =     0.51904847    2.17114512  -38.69890559
     atom   12 type  2   force =    -0.45312103   -0.50312131   38.22185260
     atom   13 type  1   force =     1.34235144   -0.42633803   -0.47993641
     atom   14 type  2   force =     2.24975589    2.82320809  -36.87771158
     atom   15 type  2   force =     0.04556133    0.37384278   37.61635690
     atom   16 type  1   force =     1.18815439   -6.01732918    2.52239014
     atom   17 type  2   force =     0.53398166   -2.16811110  -37.15933163
     atom   18 type  2   force =     0.38432563    0.49950654   39.13366555
     atom   19 type  1   force =    -2.41646184    2.15349731    0.31452178
     atom   20 type  2   force =    -0.14856923    0.01944226   38.85266536
     atom   21 type  1   force =     0.47797833    1.28901646    0.44210600
     atom   22 type  2   force =    -0.23130026    2.00015696  -38.03680002
     atom   23 type  2   force =     0.15922796   -0.53481568   38.56876076
     atom   24 type  1   force =    -0.76174374   -0.72138103   -4.00790115
     atom   25 type  2   force =    -0.50165792    0.08664127  -38.80984931
     atom   26 type  2   force =     0.31985254    0.07897779   37.72485283
     atom   27 type  1   force =     0.14897022   -1.05506165    3.53060722
     atom   28 type  2   force =    -0.92963340   -1.44938585  -37.59305060
     atom   29 type  2   force =     0.07454356    0.29449872   37.76507531
     atom   30 type  1   force =     0.08372124    0.62667159    0.91758408
     atom   31 type  2   force =    -1.15868584   -0.22327265  -36.91044755
     atom   32 type  2   force =     0.49278509   -0.09732671   38.89056812
     atom   33 type  1   force =    -0.67544227    1.42906950   -1.09690304
     atom   34 type  2   force =    -0.41481869    1.70345936  -38.97942310
     atom   35 type  2   force =     0.22807639   -0.35898388   38.07794908
     atom   36 type  3   force =     0.65482000    0.66016103  -46.51226842
     The core correction contribution to forces
     atom    1 type  1   force =     0.00000000    0.00000000    0.00000000
     atom    2 type  2   force =    -0.00264798    0.00137795    0.02129911
     atom    3 type  2   force =     0.00144042   -0.00040461   -0.02109975
     atom    4 type  1   force =     0.00000000    0.00000000    0.00000000
     atom    5 type  2   force =     0.00228515    0.02441850    0.00755603
     atom    6 type  2   force =     0.00067125   -0.00089736   -0.02048736
     atom    7 type  1   force =     0.00000000    0.00000000    0.00000000
     atom    8 type  2   force =     0.00033244   -0.00022166    0.02003699
     atom    9 type  2   force =    -0.00003685    0.00066182   -0.02102210
     atom   10 type  1   force =     0.00000000    0.00000000    0.00000000
     atom   11 type  2   force =    -0.00072621   -0.00022567    0.02062482
     atom   12 type  2   force =     0.00107039    0.00137228   -0.02072814
     atom   13 type  1   force =     0.00000000    0.00000000    0.00000000
     atom   14 type  2   force =     0.00260706    0.00128667    0.02132810
     atom   15 type  2   force =    -0.00006471   -0.00010970   -0.02091894
     atom   16 type  1   force =     0.00000000    0.00000000    0.00000000
     atom   17 type  2   force =    -0.00024375    0.00164636    0.02045418
     atom   18 type  2   force =    -0.00006763   -0.00091528   -0.02086671
     atom   19 type  1   force =     0.00000000    0.00000000    0.00000000
     atom   20 type  2   force =     0.00002904    0.00085384   -0.02107865
     atom   21 type  1   force =     0.00000000    0.00000000    0.00000000
     atom   22 type  2   force =     0.00008539   -0.00079340    0.02047763
     atom   23 type  2   force =    -0.00044007    0.00119912   -0.02079635
     atom   24 type  1   force =     0.00000000    0.00000000    0.00000000
     atom   25 type  2   force =    -0.00038110   -0.00091090    0.02050259
     atom   26 type  2   force =    -0.00012875    0.00049165   -0.02093878
     atom   27 type  1   force =     0.00000000    0.00000000    0.00000000
     atom   28 type  2   force =     0.00050681    0.00187010    0.02120630
     atom   29 type  2   force =    -0.00021088   -0.00090645   -0.02061676
     atom   30 type  1   force =     0.00000000    0.00000000    0.00000000
     atom   31 type  2   force =     0.00043837    0.00025933    0.02051598
     atom   32 type  2   force =    -0.00010037    0.00058181   -0.02096173
     atom   33 type  1   force =     0.00000000    0.00000000    0.00000000
     atom   34 type  2   force =     0.00050562    0.00094812    0.02109544
     atom   35 type  2   force =    -0.00008872    0.00085550   -0.02100425
     atom   36 type  3   force =    -0.00295153   -0.01831196    0.01369988
     The Hubbard contrib.    to forces
     atom    1 type  1   force =     0.00000000    0.00000000    0.00000000
     atom    2 type  2   force =     0.00000000    0.00000000    0.00000000
     atom    3 type  2   force =     0.00000000    0.00000000    0.00000000
     atom    4 type  1   force =     0.00000000    0.00000000    0.00000000
     atom    5 type  2   force =     0.00000000    0.00000000    0.00000000
     atom    6 type  2   force =     0.00000000    0.00000000    0.00000000
     atom    7 type  1   force =     0.00000000    0.00000000    0.00000000
     atom    8 type  2   force =     0.00000000    0.00000000    0.00000000
     atom    9 type  2   force =     0.00000000    0.00000000    0.00000000
     atom   10 type  1   force =     0.00000000    0.00000000    0.00000000
     atom   11 type  2   force =     0.00000000    0.00000000    0.00000000
     atom   12 type  2   force =     0.00000000    0.00000000    0.00000000
     atom   13 type  1   force =     0.00000000    0.00000000    0.00000000
     atom   14 type  2   force =     0.00000000    0.00000000    0.00000000
     atom   15 type  2   force =     0.00000000    0.00000000    0.00000000
     atom   16 type  1   force =     0.00000000    0.00000000    0.00000000
     atom   17 type  2   force =     0.00000000    0.00000000    0.00000000
     atom   18 type  2   force =     0.00000000    0.00000000    0.00000000
     atom   19 type  1   force =     0.00000000    0.00000000    0.00000000
     atom   20 type  2   force =     0.00000000    0.00000000    0.00000000
     atom   21 type  1   force =     0.00000000    0.00000000    0.00000000
     atom   22 type  2   force =     0.00000000    0.00000000    0.00000000
     atom   23 type  2   force =     0.00000000    0.00000000    0.00000000
     atom   24 type  1   force =     0.00000000    0.00000000    0.00000000
     atom   25 type  2   force =     0.00000000    0.00000000    0.00000000
     atom   26 type  2   force =     0.00000000    0.00000000    0.00000000
     atom   27 type  1   force =     0.00000000    0.00000000    0.00000000
     atom   28 type  2   force =     0.00000000    0.00000000    0.00000000
     atom   29 type  2   force =     0.00000000    0.00000000    0.00000000
     atom   30 type  1   force =     0.00000000    0.00000000    0.00000000
     atom   31 type  2   force =     0.00000000    0.00000000    0.00000000
     atom   32 type  2   force =     0.00000000    0.00000000    0.00000000
     atom   33 type  1   force =     0.00000000    0.00000000    0.00000000
     atom   34 type  2   force =     0.00000000    0.00000000    0.00000000
     atom   35 type  2   force =     0.00000000    0.00000000    0.00000000
     atom   36 type  3   force =     0.00000000    0.00000000    0.00000000
     The SCF correction term to forces
     atom    1 type  1   force =     0.00007730    0.00006448    0.00026375
     atom    2 type  2   force =     0.00004218    0.00003369    0.00007155
     atom    3 type  2   force =     0.00003798    0.00003557    0.00014705
     atom    4 type  1   force =    -0.00001117   -0.00020798    0.00038869
     atom    5 type  2   force =    -0.00004867   -0.00008133    0.00000887
     atom    6 type  2   force =     0.00001556   -0.00008352    0.00022498
     atom    7 type  1   force =    -0.00011849   -0.00006270    0.00051809
     atom    8 type  2   force =     0.00001764   -0.00002065    0.00014623
     atom    9 type  2   force =     0.00003410   -0.00003794    0.00017671
     atom   10 type  1   force =     0.00009000    0.00020595    0.00030042
     atom   11 type  2   force =    -0.00002238    0.00001877    0.00010964
     atom   12 type  2   force =     0.00000173    0.00011699    0.00015617
     atom   13 type  1   force =    -0.00011609   -0.00005089    0.00034647
     atom   14 type  2   force =    -0.00001500    0.00002214    0.00008711
     atom   15 type  2   force =    -0.00000454    0.00000826    0.00014235
     atom   16 type  1   force =    -0.00002110   -0.00008846    0.00051611
     atom   17 type  2   force =    -0.00001616    0.00001155    0.00008537
     atom   18 type  2   force =    -0.00002616   -0.00005159    0.00021081
     atom   19 type  1   force =     0.00006190    0.00000079    0.00055247
     atom   20 type  2   force =    -0.00002614   -0.00003008    0.00024724
     atom   21 type  1   force =    -0.00013266    0.00007101    0.00033732
     atom   22 type  2   force =    -0.00000353    0.00001544    0.00010020
     atom   23 type  2   force =    -0.00000663    0.00009492    0.00020847
     atom   24 type  1   force =     0.00004513   -0.00002844    0.00028718
     atom   25 type  2   force =    -0.00002564    0.00003891    0.00007616
     atom   26 type  2   force =    -0.00003847    0.00003102    0.00018410
     atom   27 type  1   force =     0.00004454   -0.00017235    0.00042990
     atom   28 type  2   force =     0.00004351   -0.00005878    0.00010488
     atom   29 type  2   force =     0.00001842   -0.00009910    0.00018698
     atom   30 type  1   force =     0.00006862    0.00006236    0.00045543
     atom   31 type  2   force =     0.00002535   -0.00003486    0.00015070
     atom   32 type  2   force =    -0.00001667   -0.00003825    0.00018624
     atom   33 type  1   force =     0.00001808    0.00018096    0.00036815
     atom   34 type  2   force =     0.00002052    0.00004073    0.00009101
     atom   35 type  2   force =     0.00000464    0.00008986    0.00018532
     atom   36 type  3   force =    -0.00003622   -0.00016071    0.00014492

     Total force =     0.249352     Total SCF correction =     0.001711

     BFGS Geometry Optimization
     Energy error            =      0.0E+00 Ry
     Gradient error          =      1.8E-01 Ry/Bohr

     number of scf cycles    =   1
     number of bfgs steps    =   0

     energy             new  =   -2246.2425949951 Ry

     new trust radius        =       0.1813291457 bohr
     new conv_thr            =       0.0000010000 Ry


ATOMIC_POSITIONS (angstrom)
Mo            6.5808833954        1.7506457286        2.8213244836
S             8.1811168840        0.8030278500        4.4257148073
S             8.1826793143        0.8176738485        1.2740606062
Mo            8.1125841164        4.4856897165        2.7079854891
S             6.4893280572        3.8177341835        4.3436552899
S             6.5554051605        3.5170719715        1.1206453781
Mo            6.4919600366        7.2065726694        2.6672941372
S             8.0828487477        6.3429379953        4.2532975189
S             8.0868594373        6.3084723739        1.0889651762
Mo            8.1578952978        9.9044613530        2.8322199572
S             6.4985204983        8.9437434253        4.3792885859
S             6.6172647396        9.0489726382        1.1427397016
Mo            3.4289389230        1.7532207868        2.7735517012
S             4.9586643130        0.7839309095        4.3362871136
S             5.0539256440        0.8484612162        1.2207193014
Mo            4.9792713516        4.5027549621        2.6401114164
S             3.4292257791        3.6722808450        4.2802976595
S             3.4369398315        3.5463455197        1.0641359971
Mo            3.4594141540        7.2164942092        2.6261838906
S             4.9852412308        6.3269821241        1.0375891463
Mo            5.0006720536        9.8965299573        2.7437102834
S             3.4703956521        8.9440711122        4.3236536040
S             3.4066921389        9.0666305313        1.1010246713
Mo            0.2907395713        1.7490044566        2.8362882270
S             1.8601511837        0.8022723782        4.4023263512
S             1.8541833183        0.8530430066        1.2076948465
Mo            1.8568636264        4.4962979556        2.6642825846
S             0.2739757158        3.6553092493        4.3353600589
S             0.2306838346        3.5267797983        1.1708171171
Mo            0.2680756250        7.2220803251        2.6984659329
S             1.9034267383        6.3124185076        4.2312114736
S             1.8577800967        6.3128789069        1.0501154210
Mo            1.8514774808        9.9370616346        2.7662166426
S             0.2970989487        9.0678560859        4.4093104406
S             0.2722495776        9.0472950305        1.1589149583
O             6.3134212048        2.4225875927        5.1552876059



     Writing config-only to output data dir ./MoS2-V-O.save/
     NEW-OLD atomic charge density approx. for the potential

     negative rho (up, down):  1.784E-04 0.000E+00

     total cpu time spent up to now is      115.5 secs

     Self-consistent Calculation

     iteration #  1     ecut=    80.00 Ry     beta= 0.70
     Davidson diagonalization with overlap
     ethr =  1.00E-06,  avg # of iterations = 14.0

     negative rho (up, down):  7.245E-04 0.000E+00

     total cpu time spent up to now is      130.1 secs

     total energy              =   -2246.28346142 Ry
     estimated scf accuracy    <       0.00708896 Ry

     iteration #  2     ecut=    80.00 Ry     beta= 0.70
     Davidson diagonalization with overlap
     ethr =  2.27E-06,  avg # of iterations =  2.0

     negative rho (up, down):  1.525E-03 0.000E+00

     total cpu time spent up to now is      142.0 secs

     total energy              =   -2246.28326155 Ry
     estimated scf accuracy    <       0.00175320 Ry

     iteration #  3     ecut=    80.00 Ry     beta= 0.70
     Davidson diagonalization with overlap
     ethr =  5.62E-07,  avg # of iterations =  2.0

     negative rho (up, down):  1.794E-03 0.000E+00

     total cpu time spent up to now is      156.1 secs

     total energy              =   -2246.28337537 Ry
     estimated scf accuracy    <       0.00027924 Ry

     iteration #  4     ecut=    80.00 Ry     beta= 0.70
     Davidson diagonalization with overlap
     ethr =  8.95E-08,  avg # of iterations =  5.0

     negative rho (up, down):  1.724E-03 0.000E+00

     total cpu time spent up to now is      168.9 secs

     total energy              =   -2246.28340061 Ry
     estimated scf accuracy    <       0.00006898 Ry

     iteration #  5     ecut=    80.00 Ry     beta= 0.70
     Davidson diagonalization with overlap
     ethr =  2.21E-08,  avg # of iterations =  2.0

     negative rho (up, down):  1.510E-03 0.000E+00

     total cpu time spent up to now is      180.9 secs

     total energy              =   -2246.28340706 Ry
     estimated scf accuracy    <       0.00001503 Ry

     iteration #  6     ecut=    80.00 Ry     beta= 0.70
     Davidson diagonalization with overlap
     ethr =  4.82E-09,  avg # of iterations =  6.0

     negative rho (up, down):  1.232E-03 0.000E+00

     total cpu time spent up to now is      191.9 secs

     total energy              =   -2246.28340894 Ry
     estimated scf accuracy    <       0.00000509 Ry

     iteration #  7     ecut=    80.00 Ry     beta= 0.70
     Davidson diagonalization with overlap
     ethr =  1.63E-09,  avg # of iterations =  2.0

     negative rho (up, down):  8.662E-04 0.000E+00

     total cpu time spent up to now is      203.7 secs

     total energy              =   -2246.28340760 Ry
     estimated scf accuracy    <       0.00000264 Ry

     iteration #  8     ecut=    80.00 Ry     beta= 0.70
     Davidson diagonalization with overlap
     ethr =  8.47E-10,  avg # of iterations =  2.0

     negative rho (up, down):  1.809E-04 0.000E+00

     total cpu time spent up to now is      208.1 secs

     End of self-consistent calculation

          k = 0.0000 0.0000 0.0000 (105382 PWs)   bands (ev):

   -63.2077 -62.9462 -62.9259 -62.9088 -62.8691 -62.8340 -62.8214 -62.8124
   -62.8038 -62.7937 -62.7404 -62.7031 -37.5053 -37.3677 -37.3056 -37.2424
   -37.1991 -37.1796 -37.1634 -37.1353 -37.1187 -37.1044 -37.1011 -37.0963
   -37.0838 -37.0589 -37.0523 -37.0487 -37.0425 -37.0295 -37.0055 -36.9982
   -36.9977 -36.9851 -36.9758 -36.9715 -36.9657 -36.9499 -36.9375 -36.9095
   -36.8974 -36.8752 -36.8625 -36.8549 -36.8487 -36.8282 -36.7387 -36.6814
   -21.9636 -15.9721 -15.2859 -15.1557 -15.0011 -14.9556 -14.7934 -14.6016
   -14.5286 -14.4868 -14.4656 -14.4023 -14.3696 -14.3639 -14.2727 -14.1948
   -14.1614 -14.1497 -14.0966 -13.9212 -13.8817 -13.8781 -13.8691 -13.7158
    -8.3434  -7.8450  -7.7335  -7.5881  -7.4592  -7.3148  -7.2713  -7.2159
    -7.1127  -6.9954  -6.9132  -6.8136  -6.7787  -6.7581  -6.6119  -6.6001
    -6.5369  -6.4631  -6.4001  -6.3159  -6.1402  -6.0490  -5.9589  -5.9117
    -5.8336  -5.8142  -5.7829  -5.7051  -5.7020  -5.6803  -5.6219  -5.6142
    -5.5316  -5.4446  -5.4215  -5.2749  -5.2458  -5.2197  -5.0877  -5.0395
    -4.9992  -4.9780  -4.9033  -4.8461  -4.7638  -4.6137  -4.4294  -4.3826
    -4.3145  -4.2527  -4.2006  -4.1218  -4.0969  -3.9888  -3.9208  -3.8613
    -3.7649  -3.7108  -3.6870  -3.6485  -3.6306  -3.5570  -3.5397  -3.4805
    -3.4630  -3.4332  -3.3599  -3.2641  -3.1661  -2.9466  -2.9306  -2.8864
    -2.8123  -2.7616  -2.7358  -2.7130  -2.6604  -2.6336  -2.4899  -2.2980
    -2.1137  -2.0765  -1.9355  -1.5391  -1.0651  -0.7030  -0.5586  -0.2015
    -0.1435  -0.0866  -0.0158   0.0256   0.0978   0.1438   0.1757   0.2239
     0.3387   0.3696   0.4242   0.4687   0.5150   0.5236   0.5520   0.5987
     0.6369   0.6575   0.7138   0.7443   0.7693   0.8639   0.8973   0.9427
     1.0059   1.0601   1.2296

     the Fermi energy is    -1.3021 ev

!    total energy              =   -2246.28340554 Ry
     estimated scf accuracy    <       0.00000087 Ry
     smearing contrib. (-TS)   =      -0.00054240 Ry
     internal energy E=F+TS    =   -2246.28286313 Ry

     The total energy is F=E-TS. E is the sum of the following terms:
     one-electron contribution =  -18494.56084533 Ry
     hartree contribution      =    9235.64334841 Ry
     xc contribution           =    -392.11218370 Ry
     ewald contribution        =    7414.61201367 Ry
     one-center paw contrib.   =      -9.86519618 Ry

     convergence has been achieved in   8 iterations

     negative rho (up, down):  1.809E-04 0.000E+00

     Forces acting on atoms (cartesian axes, Ry/au):

     atom    1 type  1   force =     0.00100272   -0.04203989    0.02473811
     atom    2 type  2   force =     0.00432931   -0.01006500   -0.01567628
     atom    3 type  2   force =    -0.01411966    0.00685513   -0.01370484
     atom    4 type  1   force =     0.01765119   -0.00164994   -0.01244459
     atom    5 type  2   force =    -0.02388846    0.05675525    0.06105345
     atom    6 type  2   force =     0.00401843    0.00107065    0.00414983
     atom    7 type  1   force =     0.00369302   -0.01470415   -0.00232076
     atom    8 type  2   force =     0.00475682   -0.00444187    0.01200498
     atom    9 type  2   force =     0.01091087    0.00406774    0.00468109
     atom   10 type  1   force =     0.00070484    0.00567782   -0.01053129
     atom   11 type  2   force =     0.00386200   -0.00178121   -0.00925204
     atom   12 type  2   force =    -0.00333591   -0.00166055    0.00261870
     atom   13 type  1   force =     0.00355130    0.00615938   -0.00642267
     atom   14 type  2   force =    -0.01110196   -0.03640784   -0.01518535
     atom   15 type  2   force =    -0.00793404   -0.00043628   -0.01235327
     atom   16 type  1   force =    -0.00133968   -0.00613656    0.00187514
     atom   17 type  2   force =     0.00175512   -0.00094828    0.00244059
     atom   18 type  2   force =    -0.00227030   -0.00275256    0.00866586
     atom   19 type  1   force =     0.00472310   -0.00257774   -0.00132520
     atom   20 type  2   force =     0.00378612   -0.00473435   -0.00033339
     atom   21 type  1   force =    -0.01219606   -0.00740626   -0.00522467
     atom   22 type  2   force =    -0.00204960   -0.00296954   -0.00269094
     atom   23 type  2   force =    -0.00311851    0.00092944    0.00309190
     atom   24 type  1   force =    -0.00537289    0.00072513   -0.01146891
     atom   25 type  2   force =     0.01228944    0.01532702   -0.00064034
     atom   26 type  2   force =    -0.00693307   -0.00112143   -0.00357124
     atom   27 type  1   force =    -0.00534761   -0.00059173    0.00538236
     atom   28 type  2   force =     0.00257121   -0.00218715   -0.00398313
     atom   29 type  2   force =     0.00442736   -0.00194816   -0.00782984
     atom   30 type  1   force =    -0.00182625    0.00135631    0.00357230
     atom   31 type  2   force =     0.00190722    0.00152525    0.00972037
     atom   32 type  2   force =    -0.00646099    0.00466154    0.00833591
     atom   33 type  1   force =     0.00532056   -0.00320339   -0.00184727
     atom   34 type  2   force =     0.00111069   -0.03194226   -0.01341891
     atom   35 type  2   force =    -0.00670723    0.00732376    0.00864982
     atom   36 type  3   force =     0.02163091    0.06927173   -0.01075548
     The non-local contrib.  to forces
     atom    1 type  1   force =    -0.00524759    0.00980821   -0.04132477
     atom    2 type  2   force =     0.03880678   -0.01955246   -0.27589881
     atom    3 type  2   force =    -0.02249567   -0.00411693    0.26845516
     atom    4 type  1   force =    -0.01085855   -0.00645690    0.01413354
     atom    5 type  2   force =    -0.03680841   -0.52545799   -0.03845820
     atom    6 type  2   force =    -0.00844323    0.00078800    0.26207797
     atom    7 type  1   force =    -0.02534409    0.01861021   -0.01613064
     atom    8 type  2   force =    -0.00441526    0.01355730   -0.25413974
     atom    9 type  2   force =     0.00567523   -0.01522261    0.27529790
     atom   10 type  1   force =     0.00500300   -0.00263886   -0.00043556
     atom   11 type  2   force =     0.01336220   -0.00529974   -0.26269809
     atom   12 type  2   force =    -0.01291503   -0.02033377    0.25971637
     atom   13 type  1   force =    -0.00970816    0.01029698   -0.00981616
     atom   14 type  2   force =    -0.03008200   -0.00331453   -0.26672073
     atom   15 type  2   force =     0.00129617   -0.00634279    0.26650712
     atom   16 type  1   force =     0.02501793    0.02862640   -0.02948042
     atom   17 type  2   force =    -0.00098855   -0.03170796   -0.25208441
     atom   18 type  2   force =    -0.00197308    0.00475279    0.26828711
     atom   19 type  1   force =     0.01641616   -0.01020322   -0.00862636
     atom   20 type  2   force =     0.00014024   -0.02509302    0.26334635
     atom   21 type  1   force =    -0.01218243    0.03645678    0.00376275
     atom   22 type  2   force =    -0.00490841    0.00630556   -0.25850142
     atom   23 type  2   force =     0.00468954   -0.01685391    0.26207057
     atom   24 type  1   force =     0.01285001    0.00840235   -0.00523404
     atom   25 type  2   force =     0.00998812    0.00992710   -0.26415722
     atom   26 type  2   force =     0.00097976   -0.00864348    0.26591747
     atom   27 type  1   force =    -0.00455179    0.01430228    0.00970945
     atom   28 type  2   force =    -0.00328193   -0.02677513   -0.27868639
     atom   29 type  2   force =     0.00386836    0.00590470    0.25972727
     atom   30 type  1   force =     0.00336054    0.02183360    0.00806003
     atom   31 type  2   force =    -0.00705250   -0.00057556   -0.25857527
     atom   32 type  2   force =    -0.00102940   -0.00817438    0.27168708
     atom   33 type  1   force =    -0.00397201    0.00267229    0.00160878
     atom   34 type  2   force =    -0.00594331   -0.02491362   -0.27829291
     atom   35 type  2   force =    -0.00060543   -0.00914532    0.26522588
     atom   36 type  3   force =     0.19890415    1.47877620   -1.26861391
     The ionic contribution  to forces
     atom    1 type  1   force =     0.95446460   -0.79470131   -1.42501847
     atom    2 type  2   force =     1.40648984   -1.32353612   38.47511427
     atom    3 type  2   force =     0.17486487   -0.24859473  -37.19704253
     atom    4 type  1   force =     1.10198904    2.11390095   -2.29966561
     atom    5 type  2   force =    -0.07240237    7.47303916   34.77485165
     atom    6 type  2   force =     0.31448315   -0.31167658  -39.05026388
     atom    7 type  1   force =    -2.55432677   -2.17349284    1.26157852
     atom    8 type  2   force =    -0.63741268    0.64729736   37.19469332
     atom    9 type  2   force =     0.39591016    0.11541173  -38.57466393
     atom   10 type  1   force =    -0.29217986   -1.63577104    3.95783688
     atom   11 type  2   force =    -0.47872974   -2.17769396   38.85340986
     atom   12 type  2   force =     0.39715458    0.46233919  -38.39971152
     atom   13 type  1   force =    -1.37821257    0.49449765    0.46510375
     atom   14 type  2   force =    -1.99465856   -2.43536456   37.08176221
     atom   15 type  2   force =    -0.08797135   -0.31626738  -37.95978955
     atom   16 type  1   force =    -1.14729838    5.75133575   -2.36026538
     atom   17 type  2   force =    -0.51965357    2.10861232   37.44817047
     atom   18 type  2   force =    -0.37000138   -0.42951040  -39.31714764
     atom   19 type  1   force =     2.30384086   -2.39095888   -0.47120986
     atom   20 type  2   force =     0.12682659   -0.12451732  -39.09543984
     atom   21 type  1   force =    -0.25754869   -1.44749829   -0.45568363
     atom   22 type  2   force =     0.16452927   -2.06389430   38.35990834
     atom   23 type  2   force =    -0.16711723    0.50540938  -38.87892371
     atom   24 type  1   force =     0.91092667    0.55706195    3.68733066
     atom   25 type  2   force =     0.35542359   -0.09126862   39.00458976
     atom   26 type  2   force =    -0.26664827   -0.03769578  -37.91584791
     atom   27 type  1   force =     0.03892924    1.09346477   -3.28293441
     atom   28 type  2   force =     0.87462717    1.32517780   37.91666296
     atom   29 type  2   force =     0.02669363   -0.29773505  -38.12969774
     atom   30 type  1   force =    -0.01440816   -0.77297696   -0.96202863
     atom   31 type  2   force =     1.18670685    0.25712659   37.20149697
     atom   32 type  2   force =    -0.44298132    0.06757104  -39.05617595
     atom   33 type  1   force =     0.40363182   -1.15226004    1.07256891
     atom   34 type  2   force =     0.40340649   -1.51251319   39.16358866
     atom   35 type  2   force =    -0.19464786    0.38309827  -38.26184532
     atom   36 type  3   force =    -0.66469964   -1.61741656   47.17468830
     The local contribution  to forces
     atom    1 type  1   force =    -0.94814191    0.74268024    1.49212105
     atom    2 type  2   force =    -1.43874343    1.33186589  -38.23579977
     atom    3 type  2   force =    -0.16775116    0.25956722   36.93603657
     atom    4 type  1   force =    -1.07321064   -2.10909325    2.27402487
     atom    5 type  2   force =     0.08307878   -6.91989388  -34.68191576
     atom    6 type  2   force =    -0.30255911    0.31264549   38.81307744
     atom    7 type  1   force =     2.58326426    2.14020844   -1.24690572
     atom    8 type  2   force =     0.64638957   -0.66502975  -36.94831605
     atom    9 type  2   force =    -0.39058745   -0.09697246   38.32520390
     atom   10 type  1   force =     0.28784805    1.64411180   -3.96708629
     atom   11 type  2   force =     0.46975344    2.18134248  -38.62013241
     atom   12 type  2   force =    -0.38868980   -0.44509596   38.16343108
     atom   13 type  1   force =     1.39159160   -0.49857240   -0.46066823
     atom   14 type  2   force =     2.01182265    2.40167894  -36.85110600
     atom   15 type  2   force =     0.07885701    0.32182792   37.70199857
     atom   16 type  1   force =     1.12075749   -5.78613727    2.39264568
     atom   17 type  2   force =     0.52239387   -2.07946098  -37.21356086
     atom   18 type  2   force =     0.36977928    0.42283941   39.07851456
     atom   19 type  1   force =    -2.31558773    2.39877285    0.47936185
     atom   20 type  2   force =    -0.12327989    0.14393755   38.85298238
     atom   21 type  1   force =     0.25729436    1.40360117    0.44768377
     atom   22 type  2   force =    -0.16166892    2.05535046  -38.12428174
     atom   23 type  2   force =     0.15968615   -0.48890085   38.64092649
     atom   24 type  1   force =    -0.92930524   -0.56454746   -3.69259273
     atom   25 type  2   force =    -0.35285435    0.09737382  -38.76120451
     atom   26 type  2   force =     0.25899544    0.04469653   37.66741091
     atom   27 type  1   force =    -0.03975835   -1.10829922    3.27963237
     atom   28 type  2   force =    -0.86909638   -1.30240758  -37.66269378
     atom   29 type  2   force =    -0.02587138    0.29067342   37.88287327
     atom   30 type  1   force =     0.00933310    0.75251034    0.95840115
     atom   31 type  2   force =    -1.17819039   -0.25528935  -36.95333198
     atom   32 type  2   force =     0.43771408   -0.05523965   38.81391883
     atom   33 type  1   force =    -0.39409533    1.14604787   -1.07531212
     atom   34 type  2   force =    -0.39688551    1.50471544  -38.91954073
     atom   35 type  2   force =     0.18872516   -0.36752019   38.02637495
     atom   36 type  3   force =     0.48973034    0.22425236  -45.93000343
     The core correction contribution to forces
     atom    1 type  1   force =     0.00000000    0.00000000    0.00000000
     atom    2 type  2   force =    -0.00227169    0.00119064    0.02151898
     atom    3 type  2   force =     0.00124537   -0.00002645   -0.02098618
     atom    4 type  1   force =     0.00000000    0.00000000    0.00000000
     atom    5 type  2   force =     0.00220907    0.02896565    0.00701181
     atom    6 type  2   force =     0.00054242   -0.00062122   -0.02062647
     atom    7 type  1   force =     0.00000000    0.00000000    0.00000000
     atom    8 type  2   force =     0.00029645   -0.00028671    0.02030415
     atom    9 type  2   force =    -0.00002777    0.00083929   -0.02099674
     atom   10 type  1   force =     0.00000000    0.00000000    0.00000000
     atom   11 type  2   force =    -0.00059331   -0.00008817    0.02070009
     atom   12 type  2   force =     0.00107579    0.00147131   -0.02066845
     atom   13 type  1   force =     0.00000000    0.00000000    0.00000000
     atom   14 type  2   force =     0.00182721    0.00053424    0.02143702
     atom   15 type  2   force =    -0.00012912    0.00025478   -0.02090038
     atom   16 type  1   force =     0.00000000    0.00000000    0.00000000
     atom   17 type  2   force =    -0.00000358    0.00167371    0.02046416
     atom   18 type  2   force =    -0.00006758   -0.00078261   -0.02081915
     atom   19 type  1   force =     0.00000000    0.00000000    0.00000000
     atom   20 type  2   force =     0.00005066    0.00095225   -0.02108494
     atom   21 type  1   force =     0.00000000    0.00000000    0.00000000
     atom   22 type  2   force =     0.00001792   -0.00071180    0.02058332
     atom   23 type  2   force =    -0.00039671    0.00127967   -0.02070365
     atom   24 type  1   force =     0.00000000    0.00000000    0.00000000
     atom   25 type  2   force =    -0.00022529   -0.00071343    0.02073955
     atom   26 type  2   force =    -0.00026151    0.00043150   -0.02094543
     atom   27 type  1   force =     0.00000000    0.00000000    0.00000000
     atom   28 type  2   force =     0.00033098    0.00188880    0.02125866
     atom   29 type  2   force =    -0.00028170   -0.00073424   -0.02052323
     atom   30 type  1   force =     0.00000000    0.00000000    0.00000000
     atom   31 type  2   force =     0.00043279    0.00023048    0.02065086
     atom   32 type  2   force =    -0.00017397    0.00053860   -0.02092214
     atom   33 type  1   force =     0.00000000    0.00000000    0.00000000
     atom   34 type  2   force =     0.00058549    0.00068325    0.02131907
     atom   35 type  2   force =    -0.00011842    0.00085879   -0.02089491
     atom   36 type  3   force =    -0.00228005   -0.01643429    0.01356317
     The Hubbard contrib.    to forces
     atom    1 type  1   force =     0.00000000    0.00000000    0.00000000
     atom    2 type  2   force =     0.00000000    0.00000000    0.00000000
     atom    3 type  2   force =     0.00000000    0.00000000    0.00000000
     atom    4 type  1   force =     0.00000000    0.00000000    0.00000000
     atom    5 type  2   force =     0.00000000    0.00000000    0.00000000
     atom    6 type  2   force =     0.00000000    0.00000000    0.00000000
     atom    7 type  1   force =     0.00000000    0.00000000    0.00000000
     atom    8 type  2   force =     0.00000000    0.00000000    0.00000000
     atom    9 type  2   force =     0.00000000    0.00000000    0.00000000
     atom   10 type  1   force =     0.00000000    0.00000000    0.00000000
     atom   11 type  2   force =     0.00000000    0.00000000    0.00000000
     atom   12 type  2   force =     0.00000000    0.00000000    0.00000000
     atom   13 type  1   force =     0.00000000    0.00000000    0.00000000
     atom   14 type  2   force =     0.00000000    0.00000000    0.00000000
     atom   15 type  2   force =     0.00000000    0.00000000    0.00000000
     atom   16 type  1   force =     0.00000000    0.00000000    0.00000000
     atom   17 type  2   force =     0.00000000    0.00000000    0.00000000
     atom   18 type  2   force =     0.00000000    0.00000000    0.00000000
     atom   19 type  1   force =     0.00000000    0.00000000    0.00000000
     atom   20 type  2   force =     0.00000000    0.00000000    0.00000000
     atom   21 type  1   force =     0.00000000    0.00000000    0.00000000
     atom   22 type  2   force =     0.00000000    0.00000000    0.00000000
     atom   23 type  2   force =     0.00000000    0.00000000    0.00000000
     atom   24 type  1   force =     0.00000000    0.00000000    0.00000000
     atom   25 type  2   force =     0.00000000    0.00000000    0.00000000
     atom   26 type  2   force =     0.00000000    0.00000000    0.00000000
     atom   27 type  1   force =     0.00000000    0.00000000    0.00000000
     atom   28 type  2   force =     0.00000000    0.00000000    0.00000000
     atom   29 type  2   force =     0.00000000    0.00000000    0.00000000
     atom   30 type  1   force =     0.00000000    0.00000000    0.00000000
     atom   31 type  2   force =     0.00000000    0.00000000    0.00000000
     atom   32 type  2   force =     0.00000000    0.00000000    0.00000000
     atom   33 type  1   force =     0.00000000    0.00000000    0.00000000
     atom   34 type  2   force =     0.00000000    0.00000000    0.00000000
     atom   35 type  2   force =     0.00000000    0.00000000    0.00000000
     atom   36 type  3   force =     0.00000000    0.00000000    0.00000000
     The SCF correction term to forces
     atom    1 type  1   force =    -0.00007314    0.00017325   -0.00101529
     atom    2 type  2   force =     0.00004705   -0.00003266   -0.00058655
     atom    3 type  2   force =     0.00001615    0.00002630   -0.00014346
     atom    4 type  1   force =    -0.00026943   -0.00000046   -0.00091299
     atom    5 type  2   force =     0.00003371    0.00010259   -0.00041165
     atom    6 type  2   force =    -0.00000558   -0.00006476   -0.00009083
     atom    7 type  1   force =     0.00009886   -0.00002968   -0.00083851
     atom    8 type  2   force =    -0.00010203    0.00002020   -0.00051231
     atom    9 type  2   force =    -0.00006006    0.00001207   -0.00013562
     atom   10 type  1   force =     0.00003288   -0.00002381   -0.00082192
     atom   11 type  2   force =     0.00006863   -0.00004154   -0.00050707
     atom   12 type  2   force =     0.00003778   -0.00004103   -0.00012437
     atom   13 type  1   force =    -0.00012034   -0.00006257   -0.00101763
     atom   14 type  2   force =    -0.00001204    0.00005835   -0.00053344
     atom   15 type  2   force =     0.00001248    0.00009148   -0.00014463
     atom   16 type  1   force =     0.00018252    0.00003883   -0.00100034
     atom   17 type  2   force =     0.00000619   -0.00006510   -0.00052436
     atom   18 type  2   force =    -0.00000831   -0.00005148   -0.00014461
     atom   19 type  1   force =     0.00005304   -0.00018821   -0.00082643
     atom   20 type  2   force =     0.00004776   -0.00001354   -0.00011294
     atom   21 type  1   force =     0.00023993    0.00003436   -0.00096316
     atom   22 type  2   force =    -0.00002023   -0.00001917   -0.00037504
     atom   23 type  2   force =     0.00001897   -0.00000457   -0.00025339
     atom   24 type  1   force =     0.00015490   -0.00019143   -0.00094840
     atom   25 type  2   force =    -0.00004341    0.00000842   -0.00058352
     atom   26 type  2   force =     0.00000074    0.00009008   -0.00008187
     atom   27 type  1   force =     0.00003251   -0.00005927   -0.00100065
     atom   28 type  2   force =    -0.00000940   -0.00007077   -0.00050018
     atom   29 type  2   force =     0.00001769   -0.00005671   -0.00018501
     atom   30 type  1   force =    -0.00011250   -0.00001040   -0.00083585
     atom   31 type  2   force =     0.00000970    0.00003337   -0.00049580
     atom   32 type  2   force =     0.00000885   -0.00003378   -0.00014750
     atom   33 type  1   force =    -0.00024469    0.00033677   -0.00068844
     atom   34 type  2   force =    -0.00005325    0.00008615   -0.00046859
     atom   35 type  2   force =    -0.00006146    0.00003249   -0.00018638
     atom   36 type  3   force =    -0.00002466    0.00009430   -0.00036520

     Total force =     0.149489     Total SCF correction =     0.003715
     Energy error            =      4.1E-02 Ry
     Gradient error          =      6.9E-02 Ry/Bohr

     number of scf cycles    =   2
     number of bfgs steps    =   1

     energy             old  =   -2246.2425949951 Ry
     energy             new  =   -2246.2834055361 Ry

     CASE: energy            _new < energy            _old

     new trust radius        =       0.2158057403 bohr
     new conv_thr            =       0.0000000693 Ry


ATOMIC_POSITIONS (angstrom)
Mo            6.5852622601        1.6952204590        2.8403702899
S             8.1871504402        0.7910040333        4.4078710717
S             8.1651451515        0.8269206869        1.2606439188
Mo            8.1368759492        4.4790773347        2.6922334672
S             6.4637438726        3.9178935384        4.3921843977
S             6.5598633643        3.5209453526        1.1237023538
Mo            6.4961073888        7.1878223446        2.6628100164
S             8.0873900632        6.3387612036        4.2692507110
S             8.0991669579        6.3139331413        1.0956777780
Mo            8.1569468990        9.9104109271        2.8172511504
S             6.5035780062        8.9427365593        4.3695375340
S             6.6141381347        9.0477535417        1.1464826049
Mo            3.4359437145        1.7618015934        2.7666312666
S             4.9402754462        0.7354662893        4.3158049868
S             5.0452074697        0.8493361621        1.2072269168
Mo            4.9778972032        4.4918600799        2.6457082041
S             3.4314458706        3.6718830555        4.2826349284
S             3.4345223239        3.5430250654        1.0745086930
Mo            3.4664139064        7.2144692607        2.6225732308
S             4.9894812532        6.3231161784        1.0375031195
Mo            4.9841376083        9.8875939589        2.7395866358
S             3.4683943396        8.9418081668        4.3203532364
S             3.4031526944        9.0683153773        1.1063483913
Mo            0.2833184299        1.7504395650        2.8194740397
S             1.8756948457        0.8202523325        4.4041094120
S             1.8447688021        0.8513447917        1.2038004479
Mo            1.8503178656        4.4961653950        2.6710014071
S             0.2770789476        3.6540211413        4.3308362520
S             0.2340181548        3.5249141128        1.1637035629
Mo            0.2648475310        7.2262446499        2.6995916547
S             1.9056621700        6.3134596152        4.2441250661
S             1.8499649031        6.3181352054        1.0600887242
Mo            1.8598541662        9.9327003188        2.7609217579
S             0.2986778798        9.0291619520        4.3957158942
S             0.2641961164        9.0554333913        1.1708060028
O             6.3362135489        2.4761640736        5.1696784519



     Writing config-only to output data dir ./MoS2-V-O.save/
     NEW-OLD atomic charge density approx. for the potential

     negative rho (up, down):  1.981E-04 0.000E+00

     total cpu time spent up to now is      216.2 secs

     Self-consistent Calculation

     iteration #  1     ecut=    80.00 Ry     beta= 0.70
     Davidson diagonalization with overlap
     c_bands:  1 eigenvalues not converged
     ethr =  1.00E-06,  avg # of iterations = 20.0

     negative rho (up, down):  3.645E-04 0.000E+00

     total cpu time spent up to now is      233.0 secs

     total energy              =   -2246.31673073 Ry
     estimated scf accuracy    <       0.00980691 Ry

     iteration #  2     ecut=    80.00 Ry     beta= 0.70
     Davidson diagonalization with overlap
     ethr =  3.14E-06,  avg # of iterations =  4.0

     negative rho (up, down):  4.857E-04 0.000E+00

     total cpu time spent up to now is      257.1 secs

     total energy              =   -2246.31748374 Ry
     estimated scf accuracy    <       0.00240588 Ry

     iteration #  3     ecut=    80.00 Ry     beta= 0.70
     Davidson diagonalization with overlap
     ethr =  7.71E-07,  avg # of iterations =  4.0

     negative rho (up, down):  6.575E-04 0.000E+00

     total cpu time spent up to now is      271.9 secs

     total energy              =   -2246.31769950 Ry
     estimated scf accuracy    <       0.00061787 Ry

     iteration #  4     ecut=    80.00 Ry     beta= 0.70
     Davidson diagonalization with overlap
     ethr =  1.98E-07,  avg # of iterations =  2.0

     negative rho (up, down):  6.625E-04 0.000E+00

     total cpu time spent up to now is      286.6 secs

     total energy              =   -2246.31775671 Ry
     estimated scf accuracy    <       0.00006190 Ry

     iteration #  5     ecut=    80.00 Ry     beta= 0.70
     Davidson diagonalization with overlap
     ethr =  1.98E-08,  avg # of iterations =  5.0

     negative rho (up, down):  6.087E-04 0.000E+00

     total cpu time spent up to now is      298.9 secs

     total energy              =   -2246.31776942 Ry
     estimated scf accuracy    <       0.00001672 Ry

     iteration #  6     ecut=    80.00 Ry     beta= 0.70
     Davidson diagonalization with overlap
     ethr =  5.36E-09,  avg # of iterations =  2.0

     negative rho (up, down):  5.241E-04 0.000E+00

     total cpu time spent up to now is      313.6 secs

     total energy              =   -2246.31777060 Ry
     estimated scf accuracy    <       0.00000400 Ry

     iteration #  7     ecut=    80.00 Ry     beta= 0.70
     Davidson diagonalization with overlap
     ethr =  1.28E-09,  avg # of iterations =  5.0

     negative rho (up, down):  4.515E-04 0.000E+00

     total cpu time spent up to now is      323.7 secs

     total energy              =   -2246.31777101 Ry
     estimated scf accuracy    <       0.00000083 Ry

     iteration #  8     ecut=    80.00 Ry     beta= 0.70
     Davidson diagonalization with overlap
     ethr =  2.66E-10,  avg # of iterations =  5.0

     negative rho (up, down):  3.685E-04 0.000E+00

     total cpu time spent up to now is      336.0 secs

     total energy              =   -2246.31777103 Ry
     estimated scf accuracy    <       0.00000031 Ry

     iteration #  9     ecut=    80.00 Ry     beta= 0.70
     Davidson diagonalization with overlap
     ethr =  9.93E-11,  avg # of iterations =  2.0

     negative rho (up, down):  2.858E-04 0.000E+00

     total cpu time spent up to now is      347.4 secs

     total energy              =   -2246.31777106 Ry
     estimated scf accuracy    <       0.00000012 Ry

     iteration # 10     ecut=    80.00 Ry     beta= 0.70
     Davidson diagonalization with overlap
     ethr =  3.84E-11,  avg # of iterations =  4.0

     negative rho (up, down):  1.794E-04 0.000E+00

     total cpu time spent up to now is      351.8 secs

     End of self-consistent calculation

          k = 0.0000 0.0000 0.0000 (105382 PWs)   bands (ev):

   -63.1798 -62.9528 -62.9355 -62.9120 -62.8861 -62.8602 -62.8451 -62.8391
   -62.8258 -62.8112 -62.7531 -62.7431 -37.4477 -37.3657 -37.2906 -37.2446
   -37.2151 -37.1927 -37.1770 -37.1403 -37.1374 -37.1221 -37.1088 -37.1000
   -37.0954 -37.0770 -37.0687 -37.0667 -37.0640 -37.0499 -37.0316 -37.0195
   -37.0163 -37.0024 -36.9917 -36.9857 -36.9836 -36.9746 -36.9608 -36.9401
   -36.9259 -36.9042 -36.8930 -36.8794 -36.8657 -36.8560 -36.7509 -36.7160
   -21.5347 -16.0000 -15.2870 -15.1852 -15.0268 -14.9545 -14.8143 -14.5738
   -14.5438 -14.5091 -14.4842 -14.4321 -14.3958 -14.3771 -14.2937 -14.2006
   -14.1923 -14.1732 -14.1106 -13.9563 -13.9176 -13.8898 -13.8880 -13.6274
    -8.1117  -7.7478  -7.6049  -7.5747  -7.4522  -7.3287  -7.2843  -7.2428
    -7.1193  -6.9762  -6.9564  -6.8504  -6.7967  -6.7526  -6.6342  -6.5561
    -6.5443  -6.4807  -6.4321  -6.3398  -6.1435  -6.0703  -5.9882  -5.9186
    -5.8474  -5.8330  -5.8053  -5.7305  -5.7061  -5.6839  -5.6383  -5.6287
    -5.5458  -5.4533  -5.4320  -5.2846  -5.2400  -5.2262  -5.1027  -5.0448
    -5.0276  -4.9771  -4.9119  -4.8532  -4.7398  -4.6414  -4.4686  -4.3867
    -4.3257  -4.2901  -4.2240  -4.1182  -4.0776  -4.0218  -3.9337  -3.8750
    -3.7926  -3.7400  -3.7126  -3.6752  -3.6522  -3.5987  -3.5583  -3.4818
    -3.4746  -3.4539  -3.3790  -3.2542  -3.1835  -2.9750  -2.9050  -2.8836
    -2.8154  -2.7825  -2.7656  -2.7197  -2.6660  -2.6286  -2.4999  -2.3055
    -2.1860  -2.1100  -1.9748  -1.6841  -0.9951  -0.7488  -0.5372  -0.2043
    -0.1450  -0.1236  -0.0141   0.0420   0.0956   0.1188   0.1635   0.2105
     0.3149   0.3337   0.3924   0.4382   0.4991   0.5129   0.5354   0.5869
     0.6038   0.6462   0.6994   0.7450   0.7645   0.8603   0.8942   0.9245
     1.0083   1.0237   1.2719

     the Fermi energy is    -1.3396 ev

!    total energy              =   -2246.31777113 Ry
     estimated scf accuracy    <       0.00000003 Ry
     smearing contrib. (-TS)   =      -0.00001852 Ry
     internal energy E=F+TS    =   -2246.31775261 Ry

     The total energy is F=E-TS. E is the sum of the following terms:
     one-electron contribution =  -18490.23506811 Ry
     hartree contribution      =    9233.40474797 Ry
     xc contribution           =    -392.08985003 Ry
     ewald contribution        =    7412.46754953 Ry
     one-center paw contrib.   =      -9.86513197 Ry

     convergence has been achieved in  10 iterations

     negative rho (up, down):  1.794E-04 0.000E+00

     Forces acting on atoms (cartesian axes, Ry/au):

     atom    1 type  1   force =    -0.00849659   -0.00197604    0.02503088
     atom    2 type  2   force =     0.00236671   -0.00817968   -0.00375542
     atom    3 type  2   force =    -0.00753483    0.00089831   -0.01530096
     atom    4 type  1   force =    -0.00936571    0.01151012    0.00810039
     atom    5 type  2   force =    -0.00598740    0.02198377    0.06040292
     atom    6 type  2   force =     0.00328000   -0.01062814    0.01366399
     atom    7 type  1   force =     0.00459632   -0.00400024    0.00397553
     atom    8 type  2   force =     0.00586840   -0.00817887    0.00192199
     atom    9 type  2   force =     0.00910046    0.00118062   -0.00161892
     atom   10 type  1   force =     0.00401761    0.00112073   -0.00217920
     atom   11 type  2   force =     0.00098699   -0.00548363   -0.01093643
     atom   12 type  2   force =    -0.00423585   -0.00443744   -0.00020459
     atom   13 type  1   force =    -0.00443290   -0.00267158   -0.00546150
     atom   14 type  2   force =     0.00115358   -0.00982021    0.00492817
     atom   15 type  2   force =    -0.00463421   -0.00438790   -0.00762959
     atom   16 type  1   force =     0.00053101    0.00960581   -0.00345672
     atom   17 type  2   force =     0.00030001   -0.00307712    0.00234442
     atom   18 type  2   force =    -0.00321603   -0.00075660    0.00354250
     atom   19 type  1   force =    -0.00254950   -0.00742070    0.00560019
     atom   20 type  2   force =     0.00323252   -0.00928404   -0.00196102
     atom   21 type  1   force =     0.00177881   -0.00757917   -0.01246151
     atom   22 type  2   force =    -0.00302386   -0.00691563   -0.00054666
     atom   23 type  2   force =    -0.00342700   -0.00306231   -0.00501749
     atom   24 type  1   force =    -0.00303904   -0.00151438   -0.00026412
     atom   25 type  2   force =     0.00376870    0.00932840   -0.00830214
     atom   26 type  2   force =    -0.00040125    0.00000120   -0.00316759
     atom   27 type  1   force =     0.00097901   -0.00268923    0.00311376
     atom   28 type  2   force =    -0.00050124   -0.00573631   -0.00342077
     atom   29 type  2   force =     0.00967744   -0.00233111   -0.01270275
     atom   30 type  1   force =     0.00206719   -0.00720981    0.00903306
     atom   31 type  2   force =     0.00189209    0.00200036    0.00253351
     atom   32 type  2   force =    -0.00311896    0.00414630    0.00489814
     atom   33 type  1   force =    -0.00398368    0.00071944    0.00828551
     atom   34 type  2   force =    -0.00036378   -0.01481326   -0.01349260
     atom   35 type  2   force =    -0.00250677    0.00510493   -0.00060058
     atom   36 type  3   force =     0.01522175    0.06455341   -0.04489438
     The non-local contrib.  to forces
     atom    1 type  1   force =    -0.00411177    0.00238232   -0.03635662
     atom    2 type  2   force =     0.03390702   -0.01367265   -0.26681074
     atom    3 type  2   force =    -0.01318159   -0.01326917    0.26447781
     atom    4 type  1   force =    -0.00588054   -0.00778847    0.01753483
     atom    5 type  2   force =    -0.01686879   -0.54548584   -0.07623289
     atom    6 type  2   force =    -0.00557844   -0.00668776    0.27092650
     atom    7 type  1   force =    -0.02504938    0.01328899   -0.01639581
     atom    8 type  2   force =    -0.00664071    0.01254441   -0.26128734
     atom    9 type  2   force =     0.00352046   -0.01956764    0.27182423
     atom   10 type  1   force =     0.00636988   -0.00169832   -0.00091404
     atom   11 type  2   force =     0.01028172   -0.00845626   -0.26617735
     atom   12 type  2   force =    -0.01384448   -0.02351108    0.25966006
     atom   13 type  1   force =    -0.00564861    0.01483037   -0.00905110
     atom   14 type  2   force =    -0.02308326    0.00558103   -0.26273709
     atom   15 type  2   force =     0.00207799   -0.01507799    0.26731930
     atom   16 type  1   force =     0.02542136    0.02004104   -0.02879817
     atom   17 type  2   force =    -0.00618974   -0.03257330   -0.25069945
     atom   18 type  2   force =    -0.00387029    0.00443731    0.26357634
     atom   19 type  1   force =     0.01914152   -0.00737380   -0.00951632
     atom   20 type  2   force =    -0.00211282   -0.02892912    0.26302770
     atom   21 type  1   force =    -0.01467538    0.03381056    0.00425090
     atom   22 type  2   force =    -0.00570583    0.00149278   -0.25748426
     atom   23 type  2   force =     0.00341232   -0.01995333    0.25546998
     atom   24 type  1   force =     0.00813980    0.01033231   -0.00412721
     atom   25 type  2   force =     0.00255986    0.00224552   -0.27160075
     atom   26 type  2   force =     0.00585829   -0.00665523    0.26711542
     atom   27 type  1   force =    -0.00613986    0.01191809    0.00942192
     atom   28 type  2   force =    -0.00195380   -0.02806316   -0.27524356
     atom   29 type  2   force =     0.00883240    0.00200674    0.25415823
     atom   30 type  1   force =    -0.00018212    0.02489446    0.00628092
     atom   31 type  2   force =    -0.00639950    0.00034608   -0.26345232
[...]
     atom   28 type  2   force =    -0.00110475   -0.01697964   -0.26798169
     atom   29 type  2   force =     0.00775229   -0.00584554    0.26664342
     atom   30 type  1   force =    -0.00092550    0.02055659    0.00502149
     atom   31 type  2   force =    -0.00614547    0.00014676   -0.26264723
     atom   32 type  2   force =     0.00443302   -0.01421425    0.26718210
     atom   33 type  1   force =    -0.00283864    0.00835310    0.00394209
     atom   34 type  2   force =    -0.00409107   -0.00598010   -0.27393076
     atom   35 type  2   force =     0.00162267   -0.01472038    0.26263177
     atom   36 type  3   force =     0.00524705    1.52526304   -1.10397283
     The ionic contribution  to forces
     atom    1 type  1   force =     0.28308578    0.45164252    2.58130310
     atom    2 type  2   force =     1.34125072   -1.25044363   38.91020832
     atom    3 type  2   force =    -0.02362573    0.43842331  -37.85395066
     atom    4 type  1   force =     0.90401457   -1.22430205   -1.23678971
     atom    5 type  2   force =    -0.98792753    6.97104712   38.61508418
     atom    6 type  2   force =     0.22478799   -1.03191099  -36.59836596
     atom    7 type  1   force =    -2.88448609   -0.71194597   -1.43486794
     atom    8 type  2   force =    -0.26660652    1.25878313   38.08125167
     atom    9 type  2   force =     0.37868401   -0.28219571  -39.47023014
     atom   10 type  1   force =    -0.03979484   -0.75237300    1.07526926
     atom   11 type  2   force =    -0.56214622   -1.54576973   38.27497970
     atom   12 type  2   force =     0.13765230    0.66669267  -38.94692242
     atom   13 type  1   force =    -0.81751416    0.70104688    0.79628627
     atom   14 type  2   force =    -1.53195029   -1.69592025   38.27646874
     atom   15 type  2   force =     0.05328798    0.33006140  -37.93661862
     atom   16 type  1   force =    -1.48420827    2.38750284   -0.77675349
     atom   17 type  2   force =    -0.51454105    1.22490398   37.57651442
     atom   18 type  2   force =     0.08652985   -0.60957908  -38.52267417
     atom   19 type  1   force =     2.10054665   -1.43831220   -0.72891845
     atom   20 type  2   force =    -0.01744497   -0.25300980  -39.98115535
     atom   21 type  1   force =    -0.38203221   -0.71058643   -1.28442900
     atom   22 type  2   force =     0.17750313   -1.56096716   38.20633889
     atom   23 type  2   force =    -0.23765601    0.58963800  -39.00845279
     atom   24 type  1   force =     0.83394446    0.66403369    1.80319970
     atom   25 type  2   force =     0.11440817   -0.18125623   38.54399095
     atom   26 type  2   force =    -0.08417788    0.26152970  -37.88766424
     atom   27 type  1   force =     0.07668106    0.00108739   -1.65190282
     atom   28 type  2   force =     0.93682164    0.47663622   37.76735037
     atom   29 type  2   force =    -0.21615031   -0.46638085  -38.05341721
     atom   30 type  1   force =     0.89134645   -0.33394967   -1.73375300
     atom   31 type  2   force =     1.18627828    0.35693117   37.65335408
     atom   32 type  2   force =    -0.28506804   -0.28682990  -39.02491491
     atom   33 type  1   force =     0.56991327   -0.01747591    0.67506028
     atom   34 type  2   force =     0.31404485   -0.54126610   38.61958702
     atom   35 type  2   force =     0.01982693    0.50148840  -38.61986131
     atom   36 type  3   force =    -0.29527798   -2.38697376   43.29539525
     The local contribution  to forces
     atom    1 type  1   force =    -0.28285245   -0.46177421   -2.53716189
     atom    2 type  2   force =    -1.36396478    1.26235833  -38.67615555
     atom    3 type  2   force =     0.02075150   -0.41544636   37.60762889
     atom    4 type  1   force =    -0.89108820    1.22260482    1.21765269
     atom    5 type  2   force =     0.97910465   -6.55338359  -38.42214564
     atom    6 type  2   force =    -0.22168856    1.02782053   36.34694452
     atom    7 type  1   force =     2.89976576    0.70785477    1.44426330
     atom    8 type  2   force =     0.29521602   -1.25742979  -37.83041563
     atom    9 type  2   force =    -0.37802018    0.28969417   39.22316268
     atom   10 type  1   force =     0.03119755    0.74960406   -1.07494360
     atom   11 type  2   force =     0.55506859    1.54352133  -38.03594969
     atom   12 type  2   force =    -0.12842486   -0.64587104   38.70416507
     atom   13 type  1   force =     0.81810206   -0.71439921   -0.78899306
     atom   14 type  2   force =     1.54926851    1.71324167  -38.04263075
     atom   15 type  2   force =    -0.05101138   -0.30715545   37.69297093
     atom   16 type  1   force =     1.47875396   -2.41630651    0.80042682
     atom   17 type  2   force =     0.52128014   -1.20096263  -37.34351385
     atom   18 type  2   force =    -0.08041158    0.61100589   38.28194630
     atom   19 type  1   force =    -2.11224139    1.43495289    0.74801670
     atom   20 type  2   force =     0.02378614    0.26333826   39.74131719
     atom   21 type  1   force =     0.39126761    0.68545232    1.28058999
     atom   22 type  2   force =    -0.17234356    1.55769915  -37.97465224
     atom   23 type  2   force =     0.23068183   -0.57295191   38.76896449
     atom   24 type  1   force =    -0.83566418   -0.66890950   -1.80087015
     atom   25 type  2   force =    -0.11437597    0.18954548  -38.29446411
     atom   26 type  2   force =     0.08169816   -0.25268474   37.64148730
     atom   27 type  1   force =    -0.07257799   -0.00096024    1.64263158
     atom   28 type  2   force =    -0.93678270   -0.46079498  -37.52050491
     atom   29 type  2   force =     0.20950453    0.47240345   37.80864222
     atom   30 type  1   force =    -0.89040531    0.31394017    1.72868126
     atom   31 type  2   force =    -1.18038715   -0.35699056  -37.41145717
     atom   32 type  2   force =     0.28131953    0.29999125   38.77794516
     atom   33 type  1   force =    -0.56666342    0.00863954   -0.67895416
     atom   34 type  2   force =    -0.31041792    0.54738520  -38.36747227
     atom   35 type  2   force =    -0.02035901   -0.48782617   38.37780054
     atom   36 type  3   force =     0.28987308    0.87821699  -42.20329632
     The core correction contribution to forces
     atom    1 type  1   force =     0.00000000    0.00000000    0.00000000
     atom    2 type  2   force =    -0.00087112    0.00070492    0.02076764
     atom    3 type  2   force =    -0.00035079    0.00135864   -0.02100372
     atom    4 type  1   force =     0.00000000    0.00000000    0.00000000
     atom    5 type  2   force =    -0.00028235    0.02506730    0.01492915
     atom    6 type  2   force =     0.00042360   -0.00144990   -0.02097132
     atom    7 type  1   force =     0.00000000    0.00000000    0.00000000
     atom    8 type  2   force =     0.00154770    0.00100972    0.02123289
     atom    9 type  2   force =     0.00047320    0.00036551   -0.02110485
     atom   10 type  1   force =     0.00000000    0.00000000    0.00000000
     atom   11 type  2   force =    -0.00023654   -0.00036891    0.02063488
     atom   12 type  2   force =     0.00072805    0.00150806   -0.02077135
     atom   13 type  1   force =     0.00000000    0.00000000    0.00000000
     atom   14 type  2   force =     0.00059701    0.00082237    0.02075232
     atom   15 type  2   force =     0.00037104    0.00134403   -0.02081865
     atom   16 type  1   force =     0.00000000    0.00000000    0.00000000
     atom   17 type  2   force =     0.00049508    0.00110939    0.02031209
     atom   18 type  2   force =     0.00050032   -0.00038622   -0.02052094
     atom   19 type  1   force =     0.00000000    0.00000000    0.00000000
     atom   20 type  2   force =     0.00032934    0.00041894   -0.02118071
     atom   21 type  1   force =     0.00000000    0.00000000    0.00000000
     atom   22 type  2   force =    -0.00006866   -0.00043947    0.02042961
     atom   23 type  2   force =    -0.00062638    0.00122433   -0.02066429
     atom   24 type  1   force =     0.00000000    0.00000000    0.00000000
     atom   25 type  2   force =     0.00003811    0.00028167    0.02088563
     atom   26 type  2   force =    -0.00024145    0.00061834   -0.02085484
     atom   27 type  1   force =     0.00000000    0.00000000    0.00000000
     atom   28 type  2   force =     0.00011026    0.00095002    0.02083605
     atom   29 type  2   force =    -0.00066110   -0.00000969   -0.02067690
     atom   30 type  1   force =     0.00000000    0.00000000    0.00000000
     atom   31 type  2   force =     0.00031158    0.00025617    0.02072018
     atom   32 type  2   force =    -0.00049831    0.00050416   -0.02085979
     atom   33 type  1   force =     0.00000000    0.00000000    0.00000000
     atom   34 type  2   force =     0.00021446    0.00015808    0.02129190
     atom   35 type  2   force =    -0.00017118    0.00101303   -0.02080112
     atom   36 type  3   force =    -0.00003523   -0.01649983    0.01219885
     The Hubbard contrib.    to forces
     atom    1 type  1   force =     0.00000000    0.00000000    0.00000000
     atom    2 type  2   force =     0.00000000    0.00000000    0.00000000
     atom    3 type  2   force =     0.00000000    0.00000000    0.00000000
     atom    4 type  1   force =     0.00000000    0.00000000    0.00000000
     atom    5 type  2   force =     0.00000000    0.00000000    0.00000000
     atom    6 type  2   force =     0.00000000    0.00000000    0.00000000
     atom    7 type  1   force =     0.00000000    0.00000000    0.00000000
     atom    8 type  2   force =     0.00000000    0.00000000    0.00000000
     atom    9 type  2   force =     0.00000000    0.00000000    0.00000000
     atom   10 type  1   force =     0.00000000    0.00000000    0.00000000
     atom   11 type  2   force =     0.00000000    0.00000000    0.00000000
     atom   12 type  2   force =     0.00000000    0.00000000    0.00000000
     atom   13 type  1   force =     0.00000000    0.00000000    0.00000000
     atom   14 type  2   force =     0.00000000    0.00000000    0.00000000
     atom   15 type  2   force =     0.00000000    0.00000000    0.00000000
     atom   16 type  1   force =     0.00000000    0.00000000    0.00000000
     atom   17 type  2   force =     0.00000000    0.00000000    0.00000000
     atom   18 type  2   force =     0.00000000    0.00000000    0.00000000
     atom   19 type  1   force =     0.00000000    0.00000000    0.00000000
     atom   20 type  2   force =     0.00000000    0.00000000    0.00000000
     atom   21 type  1   force =     0.00000000    0.00000000    0.00000000
     atom   22 type  2   force =     0.00000000    0.00000000    0.00000000
     atom   23 type  2   force =     0.00000000    0.00000000    0.00000000
     atom   24 type  1   force =     0.00000000    0.00000000    0.00000000
     atom   25 type  2   force =     0.00000000    0.00000000    0.00000000
     atom   26 type  2   force =     0.00000000    0.00000000    0.00000000
     atom   27 type  1   force =     0.00000000    0.00000000    0.00000000
     atom   28 type  2   force =     0.00000000    0.00000000    0.00000000
     atom   29 type  2   force =     0.00000000    0.00000000    0.00000000
     atom   30 type  1   force =     0.00000000    0.00000000    0.00000000
     atom   31 type  2   force =     0.00000000    0.00000000    0.00000000
     atom   32 type  2   force =     0.00000000    0.00000000    0.00000000
     atom   33 type  1   force =     0.00000000    0.00000000    0.00000000
     atom   34 type  2   force =     0.00000000    0.00000000    0.00000000
     atom   35 type  2   force =     0.00000000    0.00000000    0.00000000
     atom   36 type  3   force =     0.00000000    0.00000000    0.00000000
     The SCF correction term to forces
     atom    1 type  1   force =     0.00004642    0.00006394    0.00001903
     atom    2 type  2   force =     0.00000028    0.00003084   -0.00000012
     atom    3 type  2   force =     0.00001197    0.00001865   -0.00000272
     atom    4 type  1   force =    -0.00002534   -0.00004770    0.00001789
     atom    5 type  2   force =     0.00000236    0.00001308   -0.00000144
     atom    6 type  2   force =     0.00000976    0.00000440    0.00001557
     atom    7 type  1   force =     0.00000637   -0.00004512    0.00002224
     atom    8 type  2   force =    -0.00001419   -0.00002178    0.00002388
     atom    9 type  2   force =     0.00000477   -0.00001268    0.00000349
     atom   10 type  1   force =    -0.00003816    0.00002119    0.00000146
     atom   11 type  2   force =     0.00000589   -0.00002210    0.00000502
     atom   12 type  2   force =     0.00001240   -0.00000513    0.00000455
     atom   13 type  1   force =    -0.00003115    0.00007446   -0.00006365
     atom   14 type  2   force =     0.00000209    0.00002967    0.00000693
     atom   15 type  2   force =    -0.00001596    0.00002049   -0.00001331
     atom   16 type  1   force =     0.00001942   -0.00004450    0.00002026
     atom   17 type  2   force =     0.00001198    0.00000707   -0.00000750
     atom   18 type  2   force =    -0.00001574   -0.00000354   -0.00000249
     atom   19 type  1   force =    -0.00000843   -0.00004792    0.00002146
     atom   20 type  2   force =     0.00000058   -0.00001506    0.00000662
     atom   21 type  1   force =     0.00004488   -0.00001464   -0.00000098
     atom   22 type  2   force =     0.00000731   -0.00001337    0.00000486
     atom   23 type  2   force =    -0.00001629   -0.00000392    0.00000155
     atom   24 type  1   force =     0.00001063    0.00007498   -0.00007464
     atom   25 type  2   force =    -0.00000422    0.00001667   -0.00000567
     atom   26 type  2   force =    -0.00000506    0.00002752   -0.00001069
     atom   27 type  1   force =     0.00000833   -0.00005109   -0.00007505
     atom   28 type  2   force =    -0.00002169    0.00000542   -0.00001189
     atom   29 type  2   force =     0.00000139   -0.00000314    0.00001066
     atom   30 type  1   force =    -0.00004123   -0.00006387    0.00002930
     atom   31 type  2   force =    -0.00000557   -0.00002435    0.00001105
     atom   32 type  2   force =    -0.00000415   -0.00002152   -0.00000853
     atom   33 type  1   force =    -0.00002531    0.00004082   -0.00000109
     atom   34 type  2   force =    -0.00000203   -0.00001591    0.00001104
     atom   35 type  2   force =     0.00000783    0.00000363   -0.00000593
     atom   36 type  3   force =     0.00000923    0.00000789    0.00001670

     Total force =     0.006172     Total SCF correction =     0.000270
     Energy error            =      8.4E-05 Ry
     Gradient error          =      2.7E-03 Ry/Bohr

     bfgs converged in  16 scf cycles and  15 bfgs steps
     (criteria: energy <  1.0E-04 Ry, force <  1.0E-02 Ry/Bohr)

     End of BFGS Geometry Optimization

     Final energy             =   -2246.3940014604 Ry

     File ./MoS2-V-O.bfgs deleted, as requested
Begin final coordinates

ATOMIC_POSITIONS (angstrom)
Mo            6.5521651305        1.6590388913        2.9003621227
S             8.1741623118        0.7345172870        4.4126548981
S             8.1059051112        0.8333829242        1.2232423223
Mo            8.1280203450        4.5633324366        2.7493448052
S             6.4450296571        4.3141739472        4.5668214414
S             6.5438128440        3.5149119129        1.2789958232
Mo            6.5487368930        7.1677336538        2.6327774099
S             8.1688909806        6.3871545869        4.3094431156
S             8.1639876514        6.3105611916        1.0805907362
Mo            8.1425150977        9.8981444521        2.7694264483
S             6.5107454935        8.8943422307        4.3161789640
S             6.5968152012        9.0198468489        1.1090229571
Mo            3.4314171678        1.7261499147        2.7819188519
S             4.9265331037        0.6831327198        4.3685463765
S             5.0265195971        0.8230976441        1.2113555811
Mo            4.9724457281        4.5882570884        2.6928327361
S             3.4447842406        3.6286470382        4.3092733870
S             3.4323199490        3.5303928082        1.1292440240
Mo            3.4716395118        7.1606537008        2.6308013265
S             5.0145467771        6.2964421362        1.0186997993
Mo            4.9817196332        9.8491254615        2.7227996518
S             3.4505150999        8.8926907771        4.3000087313
S             3.3914177509        9.0160600042        1.0961963631
Mo            0.2407702148        1.7218130593        2.8038301411
S             1.8524131665        0.8137020992        4.3712445161
S             1.8317568591        0.8429049020        1.1946792671
Mo            1.8471824573        4.4536801281        2.7050841630
S             0.2405151036        3.6054136144        4.3355375131
S             0.2183286588        3.5282496335        1.1707843507
Mo            0.2951880012        7.2106821601        2.6945688190
S             1.9194462920        6.2762298431        4.2670685790
S             1.8633627161        6.2780552204        1.0782486864
Mo            1.8500225776        9.9139326263        2.7498927344
S             0.2895544447        8.9931426302        4.3427279412
S             0.2639360527        9.0499634751        1.1435132489
O             6.4397318582        2.7300318073        4.8230297437
End final coordinates



     Writing all to output data dir ./MoS2-V-O.save/
 
     init_run     :      4.56s CPU      5.10s WALL (       1 calls)
     electrons    :   1461.10s CPU   1665.16s WALL (      16 calls)
     update_pot   :     48.80s CPU     52.36s WALL (      15 calls)
     forces       :     48.82s CPU     56.72s WALL (      16 calls)

     Called by init_run:
     wfcinit      :      0.49s CPU      0.54s WALL (       1 calls)
     potinit      :      2.33s CPU      2.59s WALL (       1 calls)
     hinit0       :      0.44s CPU      0.47s WALL (       1 calls)

     Called by electrons:
     c_bands      :    222.92s CPU    227.94s WALL (     144 calls)
     sum_band     :     88.69s CPU    126.54s WALL (     144 calls)
     v_of_rho     :    181.90s CPU    219.98s WALL (     153 calls)
     newd         :     56.19s CPU     86.65s WALL (     153 calls)
     PAW_pot      :      6.15s CPU      6.20s WALL (     168 calls)
     mix_rho      :    925.17s CPU   1020.79s WALL (     144 calls)

     Called by c_bands:
     init_us_2    :      3.31s CPU      3.56s WALL (     304 calls)
     init_us_2:cp :      3.31s CPU      3.56s WALL (     304 calls)
     regterg      :    212.20s CPU    216.96s WALL (     144 calls)

     Called by *egterg:
     rdiaghg      :     14.64s CPU     14.80s WALL (     817 calls)
     h_psi        :    137.37s CPU    138.55s WALL (     840 calls)
     s_psi        :     12.39s CPU     12.43s WALL (     840 calls)
     g_psi        :      0.77s CPU      0.78s WALL (     695 calls)

     Called by h_psi:
     h_psi:calbec :     14.13s CPU     14.22s WALL (     840 calls)
     vloc_psi     :    109.24s CPU    110.24s WALL (     840 calls)
     add_vuspsi   :     12.32s CPU     12.40s WALL (     840 calls)

     General routines
     calbec       :     20.23s CPU     20.36s WALL (    1063 calls)
     fft          :    121.94s CPU    136.56s WALL (   10267 calls)
     ffts         :    415.44s CPU    507.32s WALL (  222190 calls)
     fftw         :     75.12s CPU     75.76s WALL (   90178 calls)
     interpolate  :      1.93s CPU      2.22s WALL (     153 calls)
 
     Parallel routines
 
     PWSCF        :  26m11.19s CPU  29m51.73s WALL

 
   This run was terminated on:  14:39:27   1Nov2023            

=------------------------------------------------------------------------------=
   JOB DONE.
=------------------------------------------------------------------------------=
