
     Program PWSCF v.7.2 starts on  1Nov2023 at 13:25: 7 

     This program is part of the open-source Quantum ESPRESSO suite
     for quantum simulation of materials; please cite
         "P. Giannozzi et al., J. Phys.:Condens. Matter 21 395502 (2009);
         "P. Giannozzi et al., J. Phys.:Condens. Matter 29 465901 (2017);
         "P. Giannozzi et al., J. Chem. Phys. 152 154105 (2020);
          URL http://www.quantum-espresso.org", 
     in publications or presentations arising from this work. More details at
     http://www.quantum-espresso.org/quote

     Parallel version (MPI & OpenMP), running on      48 processor cores
     Number of MPI processes:                48
     Threads/MPI process:                     1

     MPI processes distributed on     1 nodes
     76990 MiB available memory on the printing compute node when the environment starts
 
     Waiting for input...
     Reading input from standard input
Warning: card &CELL ignored
Warning: card CELL_DYNAMICS = 'BFGS', ignored
Warning: card CELL_DOFREE = '2DXY' ignored
Warning: card / ignored

     Current dimensions of program PWSCF are:
     Max number of different atomic species (ntypx) = 10
     Max number of k-points (npk) =  40000
     Max angular momentum in pseudopotentials (lmaxx) =  4
     file O.pbe-n-kjpaw_psl.0.1.UPF: wavefunction(s)  2P renormalized

     IMPORTANT: XC functional enforced from input :
     Exchange-correlation= RVV10
                           (   1   4  13   4  26   0   0)
     Any further DFT definition will be discarded
     Please, verify this is what you really want


     gamma-point specific algorithms are used
     signal trapping enabled: kill the code with -SIGUSR1 to stop cleanly the simulation 
 
     R & G space division:  proc/nbgrp/npool/nimage =      48
     Subspace diagonalization in iterative solution of the eigenvalue problem:
     one sub-group per band group will be used
     scalapack distributed-memory algorithm (size of sub-group:  2*  2 procs)

 
     Parallelization info
     --------------------
     sticks:   dense  smooth     PW     G-vecs:    dense   smooth      PW
     Min         396     194     47               101632    35090    4376
     Max         398     196     50               101674    35128    4410
     Sum       19091    9389   2349              4879585  1685513  210763
 
     Using Slab Decomposition
 


     bravais-lattice index     =            0
     lattice parameter (alat)  =      17.8707  a.u.
     unit-cell volume          =   17436.2743 (a.u.)^3
     number of atoms/cell      =           36
     number of atomic types    =            3
     number of electrons       =       312.00
     number of Kohn-Sham states=          187
     kinetic-energy cutoff     =      80.0000  Ry
     charge density cutoff     =     650.0000  Ry
     scf convergence threshold =      1.0E-06
     mixing beta               =       0.7000
     number of iterations used =            8  local-TF  mixing
     energy convergence thresh.=      1.0E-04
     force convergence thresh. =      1.0E-02
     Exchange-correlation= RVV10
                           (   1   4  13   4  26   0   0)
     nstep                     =          200


     celldm(1)=  17.870686  celldm(2)=   0.000000  celldm(3)=   0.000000
     celldm(4)=   0.000000  celldm(5)=   0.000000  celldm(6)=   0.000000

     crystal axes: (cart. coord. in units of alat)
               a(1) = (   1.000000   0.000000   0.000000 )  
               a(2) = (   0.000000   1.155671   0.000000 )  
               a(3) = (   0.000000   0.000000   2.643601 )  

     reciprocal axes: (cart. coord. in units 2 pi/alat)
               b(1) = (  1.000000  0.000000  0.000000 )  
               b(2) = (  0.000000  0.865298  0.000000 )  
               b(3) = (  0.000000  0.000000  0.378272 )  


     PseudoPot. # 1 for Mo read from file:
     ../pseudo/Mo_ONCV_PBE-1.0.oncvpsp.upf
     MD5 check sum: 1b5d28e075c9ccadda658a603575cd1f
     Pseudo is Norm-conserving, Zval = 14.0
     Generated using ONCVPSP code by D. R. Hamann
     Using radial grid of 1526 points,  6 beta functions with: 
                l(1) =   0
                l(2) =   0
                l(3) =   1
                l(4) =   1
                l(5) =   2
                l(6) =   2

     PseudoPot. # 2 for S  read from file:
     ../pseudo/s_pbe_v1.4.uspp.F.UPF
     MD5 check sum: 88d86576ff6df21479756cfb9bdac1df
     Pseudo is Ultrasoft + core correction, Zval =  6.0
     Generated by new atomic code, or converted to UPF format
     Using radial grid of  907 points,  6 beta functions with: 
                l(1) =   0
                l(2) =   0
                l(3) =   1
                l(4) =   1
                l(5) =   2
                l(6) =   2
     Q(r) pseudized with  8 coefficients,  rinner =    1.300   1.300   1.300
                                                       1.300   1.300

     PseudoPot. # 3 for O  read from file:
     ../pseudo/O.pbe-n-kjpaw_psl.0.1.UPF
     MD5 check sum: 0234752ac141de4415c5fc33072bef88
     Pseudo is Projector augmented-wave + core cor, Zval =  6.0
     Generated using "atomic" code by A. Dal Corso  v.5.0.99 svn rev. 10869
     Shape of augmentation charge: BESSEL
     Using radial grid of 1095 points,  4 beta functions with: 
                l(1) =   0
                l(2) =   0
                l(3) =   1
                l(4) =   1
     Q(r) pseudized with 0 coefficients 


     atomic species   valence    mass     pseudopotential
        Mo            14.00    95.94000     Mo( 1.00)
        S              6.00    32.06500     S ( 1.00)
        O              6.00    15.99940     O ( 1.00)

     No symmetry found



   Cartesian axes

     site n.     atom                  positions (alat units)
         1           Mo  tau(   1) = (   0.6952221   0.1890506   0.2985846  )
         2           S   tau(   2) = (   0.8646417   0.0856217   0.4689279  )
         3           S   tau(   3) = (   0.8663890   0.0857843   0.1351291  )
         4           Mo  tau(   4) = (   0.8560186   0.4753274   0.2873942  )
         5           S   tau(   5) = (   0.6873294   0.3936244   0.4596353  )
         6           S   tau(   6) = (   0.6929804   0.3713468   0.1185692  )
         7           Mo  tau(   7) = (   0.6862796   0.7633098   0.2825370  )
         8           S   tau(   8) = (   0.8545980   0.6708292   0.4486168  )
         9           S   tau(   9) = (   0.8545123   0.6666874   0.1146125  )
        10           Mo  tau(  10) = (   0.8629403   1.0471007   0.3006803  )
        11           S   tau(  11) = (   0.6868280   0.9456650   0.4634891  )
        12           S   tau(  12) = (   0.6998113   0.9568511   0.1205389  )
        13           Mo  tau(  13) = (   0.3618216   0.1847309   0.2935964  )
        14           S   tau(  14) = (   0.5260962   0.0863870   0.4600448  )
        15           S   tau(  15) = (   0.5348379   0.0894875   0.1297123  )
        16           Mo  tau(  16) = (   0.5265817   0.4772436   0.2784130  )
        17           S   tau(  17) = (   0.3624753   0.3882513   0.4525556  )
        18           S   tau(  18) = (   0.3635411   0.3752055   0.1119148  )
        19           Mo  tau(  19) = (   0.3652268   0.7630864   0.2781795  )
        20           S   tau(  20) = (   0.5269494   0.6690381   0.1096838  )
        21           Mo  tau(  21) = (   0.5300192   1.0470394   0.2900995  )
        22           S   tau(  22) = (   0.3670346   0.9457522   0.4574073  )
        23           S   tau(  23) = (   0.3604225   0.9585725   0.1159032  )
        24           Mo  tau(  24) = (   0.0313099   0.1847895   0.3013130  )
        25           S   tau(  25) = (   0.1956761   0.0838230   0.4650863  )
        26           S   tau(  26) = (   0.1967693   0.0903508   0.1278874  )
        27           Mo  tau(  27) = (   0.1967578   0.4753919   0.2813011  )
        28           S   tau(  28) = (   0.0287851   0.3864324   0.4586755  )
        29           S   tau(  29) = (   0.0244514   0.3729871   0.1239344  )
        30           Mo  tau(  30) = (   0.0286728   0.7631204   0.2856894  )
        31           S   tau(  31) = (   0.2011512   0.6675435   0.4465001  )
        32           S   tau(  32) = (   0.1969214   0.6672839   0.1104564  )
        33           Mo  tau(  33) = (   0.1950294   1.0511147   0.2932237  )
        34           S   tau(  34) = (   0.0312912   0.9612169   0.4667423  )
        35           S   tau(  35) = (   0.0292670   0.9563028   0.1216485  )
        36           O   tau(  36) = (   0.0000000   0.2568157   0.5650415  )

     number of k points=     1  Gaussian smearing, width (Ry)=  0.0100
                       cart. coord. in units 2pi/alat
        k(    1) = (   0.0000000   0.0000000   0.0000000), wk =   2.0000000

     Dense  grid:  2439793 G-vectors     FFT dimensions: ( 150, 180, 384)

     Smooth grid:   842757 G-vectors     FFT dimensions: ( 108, 120, 270)

     Estimated max dynamical RAM per process >     269.22 MB

     Estimated total dynamical RAM >      12.62 GB

     Initial potential from superposition of free atoms

     starting charge     311.9873, renormalised to     312.0000

     negative rho (up, down):  2.747E-04 0.000E+00


---------------------------------------------------------------------------------
Carrying out rVV10 run using the following parameters:
Nqs =      20    Nr_points =    1024   r_max =   100.000
b_value =  6.30000    beta =  0.00901
     q_mesh =  0.00010000  0.00030000  0.00058939  0.00100810
               0.00161396  0.00249058  0.00375900  0.00559430
               0.00824984  0.01209221  0.01765183  0.02569619
               0.03733578  0.05417739  0.07854596  0.11380545
               0.16482331  0.23864234  0.34545298  0.50000000

Gradients computed in Reciprocal space

---------------------------------------------------------------------------------


     Starting wfcs are  216 randomized atomic wfcs
     Checking if some PAW data can be deallocated... 

     total cpu time spent up to now is        5.3 secs

     Self-consistent Calculation

     iteration #  1     ecut=    80.00 Ry     beta= 0.70
     Davidson diagonalization with overlap
     ethr =  1.00E-02,  avg # of iterations =  2.0

     Threshold (ethr) on eigenvalues was too large:
     Diagonalizing with lowered threshold

     Davidson diagonalization with overlap
     ethr =  4.45E-04,  avg # of iterations =  4.0

     negative rho (up, down):  3.308E-08 0.000E+00

     total cpu time spent up to now is       23.0 secs

     total energy              =   -2246.22352680 Ry
     estimated scf accuracy    <       1.63216501 Ry

     iteration #  2     ecut=    80.00 Ry     beta= 0.70
     Davidson diagonalization with overlap
     ethr =  5.23E-04,  avg # of iterations =  4.0

     total cpu time spent up to now is       28.5 secs

     total energy              =   -2246.22311893 Ry
     estimated scf accuracy    <       0.69026671 Ry

     iteration #  3     ecut=    80.00 Ry     beta= 0.70
     Davidson diagonalization with overlap
     ethr =  2.21E-04,  avg # of iterations =  5.0

     total cpu time spent up to now is       33.0 secs

     total energy              =   -2246.21259912 Ry
     estimated scf accuracy    <       0.23225114 Ry

     iteration #  4     ecut=    80.00 Ry     beta= 0.70
     Davidson diagonalization with overlap
     c_bands:  1 eigenvalues not converged
     ethr =  7.44E-05,  avg # of iterations = 20.0

     total cpu time spent up to now is       38.3 secs

     total energy              =   -2246.24829843 Ry
     estimated scf accuracy    <       0.03159968 Ry

     iteration #  5     ecut=    80.00 Ry     beta= 0.70
     Davidson diagonalization with overlap
     ethr =  1.01E-05,  avg # of iterations = 11.0

     total cpu time spent up to now is       43.2 secs

     total energy              =   -2246.25018493 Ry
     estimated scf accuracy    <       0.01726255 Ry

     iteration #  6     ecut=    80.00 Ry     beta= 0.70
     Davidson diagonalization with overlap
     ethr =  5.53E-06,  avg # of iterations =  2.0

     total cpu time spent up to now is       47.3 secs

     total energy              =   -2246.24940304 Ry
     estimated scf accuracy    <       0.01083517 Ry

     iteration #  7     ecut=    80.00 Ry     beta= 0.70
     Davidson diagonalization with overlap
     ethr =  3.47E-06,  avg # of iterations =  1.0

     total cpu time spent up to now is       51.3 secs

     total energy              =   -2246.24868595 Ry
     estimated scf accuracy    <       0.00697831 Ry

     iteration #  8     ecut=    80.00 Ry     beta= 0.70
     Davidson diagonalization with overlap
     ethr =  2.24E-06,  avg # of iterations =  2.0

     negative rho (up, down):  6.091E-03 0.000E+00

     total cpu time spent up to now is       58.3 secs

     total energy              =   -2246.24738580 Ry
     estimated scf accuracy    <       0.00457569 Ry

     iteration #  9     ecut=    80.00 Ry     beta= 0.70
     Davidson diagonalization with overlap
     ethr =  1.47E-06,  avg # of iterations =  2.0

     negative rho (up, down):  1.903E-02 0.000E+00

     total cpu time spent up to now is       64.6 secs

     total energy              =   -2246.24720364 Ry
     estimated scf accuracy    <       0.00230836 Ry

     iteration # 10     ecut=    80.00 Ry     beta= 0.70
     Davidson diagonalization with overlap
     ethr =  7.40E-07,  avg # of iterations =  1.0

     negative rho (up, down):  2.449E-02 0.000E+00

     total cpu time spent up to now is       71.4 secs

     total energy              =   -2246.24722622 Ry
     estimated scf accuracy    <       0.00110807 Ry

     iteration # 11     ecut=    80.00 Ry     beta= 0.70
     Davidson diagonalization with overlap
     ethr =  3.55E-07,  avg # of iterations =  2.0

     negative rho (up, down):  1.611E-02 0.000E+00

     total cpu time spent up to now is       78.8 secs

     total energy              =   -2246.24722147 Ry
     estimated scf accuracy    <       0.00021117 Ry

     iteration # 12     ecut=    80.00 Ry     beta= 0.70
     Davidson diagonalization with overlap
     ethr =  6.77E-08,  avg # of iterations =  4.0

     negative rho (up, down):  4.381E-03 0.000E+00

     total cpu time spent up to now is       88.0 secs

     total energy              =   -2246.24725041 Ry
     estimated scf accuracy    <       0.00004699 Ry

     iteration # 13     ecut=    80.00 Ry     beta= 0.70
     Davidson diagonalization with overlap
     ethr =  1.51E-08,  avg # of iterations =  5.0

     negative rho (up, down):  1.522E-03 0.000E+00

     total cpu time spent up to now is       98.8 secs

     total energy              =   -2246.24727501 Ry
     estimated scf accuracy    <       0.00001125 Ry

     iteration # 14     ecut=    80.00 Ry     beta= 0.70
     Davidson diagonalization with overlap
     ethr =  3.61E-09,  avg # of iterations =  4.0

     negative rho (up, down):  5.136E-04 0.000E+00

     total cpu time spent up to now is      108.7 secs

     total energy              =   -2246.24727526 Ry
     estimated scf accuracy    <       0.00000259 Ry

     iteration # 15     ecut=    80.00 Ry     beta= 0.70
     Davidson diagonalization with overlap
     ethr =  8.29E-10,  avg # of iterations =  6.0

     negative rho (up, down):  1.995E-04 0.000E+00

     total cpu time spent up to now is      113.1 secs

     End of self-consistent calculation

          k = 0.0000 0.0000 0.0000 (105382 PWs)   bands (ev):

   -63.0414 -62.9868 -62.9691 -62.9301 -62.9206 -62.9037 -62.8903 -62.8850
   -62.8773 -62.8718 -62.8036 -62.7875 -37.3403 -37.2887 -37.2687 -37.2617
   -37.2325 -37.2266 -37.1970 -37.1881 -37.1706 -37.1535 -37.1427 -37.1310
   -37.1215 -37.1099 -37.0983 -37.0933 -37.0808 -37.0738 -37.0685 -37.0585
   -37.0467 -37.0356 -37.0285 -37.0136 -37.0110 -37.0019 -36.9961 -36.9854
   -36.9827 -36.9565 -36.9246 -36.9098 -36.8931 -36.8493 -36.8434 -36.8016
   -21.6324 -15.9913 -15.2836 -15.2029 -15.0391 -14.9121 -14.8325 -14.6449
   -14.5675 -14.5451 -14.4784 -14.4351 -14.4109 -14.3652 -14.2918 -14.2153
   -14.2063 -14.1774 -14.0988 -14.0212 -13.9360 -13.8912 -13.8736 -13.7231
    -8.1269  -7.8326  -7.7119  -7.5237  -7.4243  -7.3457  -7.2734  -7.2328
    -7.2150  -7.0146  -6.8958  -6.8774  -6.8427  -6.7452  -6.6669  -6.5768
    -6.5422  -6.5210  -6.3630  -6.3175  -6.1612  -6.1370  -5.9583  -5.9367
    -5.9110  -5.8144  -5.7856  -5.7548  -5.7537  -5.7263  -5.6942  -5.6323
    -5.5387  -5.4785  -5.4689  -5.3235  -5.2822  -5.1939  -5.1492  -5.0763
    -5.0540  -5.0449  -4.8967  -4.8523  -4.7594  -4.6062  -4.4714  -4.4241
    -4.3930  -4.3560  -4.1926  -4.1620  -4.0763  -3.9913  -3.8670  -3.8386
    -3.8080  -3.7640  -3.7260  -3.6806  -3.6260  -3.5930  -3.5538  -3.5304
    -3.4803  -3.4379  -3.3163  -3.2250  -3.1797  -3.1133  -2.9402  -2.9052
    -2.8526  -2.7905  -2.7803  -2.7351  -2.7063  -2.6534  -2.5438  -2.4564
    -2.0979  -2.0056  -1.9614  -1.3431  -0.9687  -0.9136  -0.8070  -0.2382
    -0.1983  -0.1518  -0.1100   0.0318   0.1040   0.1294   0.1777   0.2053
     0.2352   0.2537   0.3243   0.3966   0.4500   0.4944   0.5327   0.5452
     0.6124   0.6664   0.7019   0.7101   0.7323   0.8158   0.8408   0.8997
     1.0094   1.0313   1.0866

     the Fermi energy is    -1.1602 ev

!    total energy              =   -2246.24727682 Ry
     estimated scf accuracy    <       0.00000098 Ry
     smearing contrib. (-TS)   =      -0.00192103 Ry
     internal energy E=F+TS    =   -2246.24535578 Ry

     The total energy is F=E-TS. E is the sum of the following terms:
     one-electron contribution =  -18462.52334374 Ry
     hartree contribution      =    9219.36928426 Ry
     xc contribution           =    -392.07739963 Ry
     ewald contribution        =    7398.85097853 Ry
     one-center paw contrib.   =      -9.86487521 Ry

     convergence has been achieved in  15 iterations

     negative rho (up, down):  1.995E-04 0.000E+00

     Forces acting on atoms (cartesian axes, Ry/au):

     atom    1 type  1   force =     0.02268563   -0.01847471    0.00946446
     atom    2 type  2   force =    -0.03575029   -0.01874298   -0.02784585
     atom    3 type  2   force =    -0.00826947    0.00901750   -0.00160138
     atom    4 type  1   force =    -0.01134102   -0.01031471    0.00631869
     atom    5 type  2   force =    -0.00096152   -0.00530640   -0.00834870
     atom    6 type  2   force =     0.00440220    0.01063168   -0.00048707
     atom    7 type  1   force =     0.00667684   -0.01440613   -0.00784949
     atom    8 type  2   force =    -0.00264294    0.00433891    0.01785135
     atom    9 type  2   force =     0.01191935    0.00973205    0.00934274
     atom   10 type  1   force =    -0.02360839   -0.00159181   -0.02783327
     atom   11 type  2   force =     0.00573018   -0.00047919   -0.00772451
     atom   12 type  2   force =    -0.00109615    0.00066483    0.00553316
     atom   13 type  1   force =    -0.00026797    0.00717479   -0.00938599
     atom   14 type  2   force =     0.00867771   -0.00180485    0.01261747
     atom   15 type  2   force =    -0.01325966    0.00193926   -0.00975702
     atom   16 type  1   force =    -0.00059857    0.01162822    0.00757081
     atom   17 type  2   force =     0.00824969    0.00215866   -0.00045081
     atom   18 type  2   force =    -0.00685370   -0.00647753    0.01161714
     atom   19 type  1   force =     0.00224090   -0.00946512   -0.00461814
     atom   20 type  2   force =     0.00323181   -0.00354414    0.00043642
     atom   21 type  1   force =    -0.00606500    0.00382079    0.00065487
     atom   22 type  2   force =    -0.00323942   -0.00107357   -0.00257990
     atom   23 type  2   force =    -0.00099370    0.00179521    0.00900180
     atom   24 type  1   force =     0.00136857   -0.02694658   -0.08158333
     atom   25 type  2   force =     0.02919107    0.00227409   -0.00040890
     atom   26 type  2   force =    -0.01904607    0.00110017   -0.00344398
     atom   27 type  1   force =     0.02896718   -0.00896189    0.00517484
     atom   28 type  2   force =    -0.03113312   -0.00977382    0.01201429
     atom   29 type  2   force =     0.00311933    0.00023259   -0.00134480
     atom   30 type  1   force =    -0.00391430    0.00500016   -0.00087879
     atom   31 type  2   force =     0.00299108    0.00757660    0.01681625
     atom   32 type  2   force =    -0.00694949    0.00598704    0.00629075
     atom   33 type  1   force =     0.02001000   -0.00988532   -0.00874086
     atom   34 type  2   force =     0.00429302   -0.04201286   -0.00899648
     atom   35 type  2   force =    -0.00751849    0.00429282    0.01317207
     atom   36 type  3   force =     0.01975471    0.09989626    0.07000215
     The non-local contrib.  to forces
     atom    1 type  1   force =    -0.00813830    0.01927821   -0.01143364
     atom    2 type  2   force =    -0.04431740    0.00285261   -0.24342613
     atom    3 type  2   force =    -0.01103189    0.00478369    0.27050136
     atom    4 type  1   force =     0.01538861    0.00343734    0.00480561
     atom    5 type  2   force =     0.00361593   -0.02918730   -0.25834660
     atom    6 type  2   force =     0.00180292    0.02011550    0.25569967
     atom    7 type  1   force =    -0.02077659    0.00457000   -0.02246185
     atom    8 type  2   force =     0.00281936   -0.00235130   -0.25482712
     atom    9 type  2   force =     0.00863695   -0.00627086    0.27801096
     atom   10 type  1   force =    -0.00167675    0.01790250   -0.00300662
     atom   11 type  2   force =     0.01381718    0.00553936   -0.25965077
     atom   12 type  2   force =    -0.01197633   -0.01872937    0.26512030
     atom   13 type  1   force =     0.00081261    0.01323092   -0.00709836
     atom   14 type  2   force =     0.01181488   -0.00682297   -0.25946736
     atom   15 type  2   force =    -0.01345260   -0.00420940    0.26190885
     atom   16 type  1   force =     0.00100719    0.03759711   -0.02688787
     atom   17 type  2   force =     0.00044428   -0.02669258   -0.25617749
     atom   18 type  2   force =    -0.00813540    0.00439758    0.26994827
     atom   19 type  1   force =     0.01162746    0.00127426   -0.01890091
     atom   20 type  2   force =    -0.00037883   -0.02305614    0.26554561
     atom   21 type  1   force =     0.00212418    0.02822062    0.00573550
     atom   22 type  2   force =    -0.00742997    0.00344127   -0.25823362
     atom   23 type  2   force =     0.00779425   -0.01597447    0.26810696
     atom   24 type  1   force =     0.00298246    0.01476705   -0.02172019
     atom   25 type  2   force =     0.05301802   -0.01813790   -0.26304241
     atom   26 type  2   force =    -0.00996558   -0.00685791    0.26716867
     atom   27 type  1   force =    -0.00206705   -0.00315446    0.00486062
     atom   28 type  2   force =    -0.07278660   -0.38902575    0.11547084
     atom   29 type  2   force =     0.00561207    0.00774763    0.25683806
     atom   30 type  1   force =     0.00276434    0.03354369    0.00647082
     atom   31 type  2   force =    -0.00722392    0.00470729   -0.25063930
     atom   32 type  2   force =    -0.00351406   -0.00900726    0.27561137
     atom   33 type  1   force =    -0.00893643    0.01607009    0.00761826
     atom   34 type  2   force =     0.00068684   -0.04378020   -0.26995287
     atom   35 type  2   force =    -0.00066298   -0.01330367    0.26986389
     atom   36 type  3   force =     0.27159015    1.49990132   -1.04204191
     The ionic contribution  to forces
     atom    1 type  1   force =    -1.22374778   -0.24808587    3.31747438
     atom    2 type  2   force =    -2.78163373   -2.34494773   37.64759655
     atom    3 type  2   force =    -0.34724195   -0.25697682  -37.09380128
     atom    4 type  1   force =    -1.00959877    2.38655652   -2.22702057
     atom    5 type  2   force =    -2.15245775    2.13753004   38.16005721
     atom    6 type  2   force =     0.14719659   -0.37989567  -38.81003213
     atom    7 type  1   force =    -2.89385612   -2.50458675    1.56037478
     atom    8 type  2   force =    -1.25539028    0.71330758   37.03736055
     atom    9 type  2   force =     0.26857272    0.14376714  -38.61372056
     atom   10 type  1   force =    -1.59927037   -1.61841708    4.02465924
     atom   11 type  2   force =    -0.77159744   -1.87891947   38.94007834
     atom   12 type  2   force =     0.36760921    0.58809129  -38.37258632
     atom   13 type  1   force =     1.58937008    0.61110831    0.93166026
     atom   14 type  2   force =    -0.07036361   -0.35330337   38.21238697
     atom   15 type  2   force =     0.11698852   -0.18880023  -37.44042926
     atom   16 type  1   force =    -0.16036194    4.53154895   -0.85784509
     atom   17 type  2   force =     1.62863898    1.94301376   37.45424834
     atom   18 type  2   force =    -0.01507294   -0.54188034  -39.27794532
     atom   19 type  1   force =     2.93895504   -2.20409943   -0.32252117
     atom   20 type  2   force =     0.21534665   -0.09291690  -38.97685935
     atom   21 type  1   force =    -0.05217934   -0.48463297    0.11160209
     atom   22 type  2   force =     0.61915325   -1.94526130   38.23406432
     atom   23 type  2   force =    -0.02770112    0.57268090  -38.79101812
     atom   24 type  1   force =     0.17505779   -0.59337918   -1.02490366
     atom   25 type  2   force =     2.47726247   -1.41491533   38.19578260
     atom   26 type  2   force =    -0.07677423   -0.15879436  -38.24113597
     atom   27 type  1   force =     1.17770489    1.84989295   -4.73437248
     atom   28 type  2   force =     1.34074242    6.86272995   33.30186910
     atom   29 type  2   force =    -0.22375722   -0.20427848  -38.43692701
     atom   30 type  1   force =    -0.28219293   -0.43679691   -1.26475678
     atom   31 type  2   force =     1.53793137    0.53717868   36.99970059
     atom   32 type  2   force =    -0.39688735    0.15592763  -39.22239447
     atom   33 type  1   force =     1.37447643   -1.96323462    0.53710121
     atom   34 type  2   force =     0.29647475   -2.06839283   39.06575739
     atom   35 type  2   force =    -0.28532130    0.32522785  -38.41230265
     atom   36 type  3   force =    -0.64607502   -1.47604592   48.38879830
     The local contribution  to forces
     atom    1 type  1   force =     1.25466362    0.21054801   -3.29755689
     atom    2 type  2   force =     2.78782033    2.32284970  -37.45226266
     atom    3 type  2   force =     0.34956716    0.26160960   36.84204711
     atom    4 type  1   force =     0.98305425   -2.40045874    2.22746153
     atom    5 type  2   force =     2.14844712   -2.11526532  -37.93111221
     atom    6 type  2   force =    -0.14469673    0.37199490   38.57383807
     atom    7 type  1   force =     2.92138843    2.48525215   -1.54702197
     atom    8 type  2   force =     1.25005587   -0.70731522  -36.78547304
     atom    9 type  2   force =    -0.26507042   -0.12827864   38.36554219
     atom   10 type  1   force =     1.57738411    1.59911533   -4.05062870
     atom   11 type  2   force =     0.76418885    1.87347610  -38.70913679
     atom   12 type  2   force =    -0.35784615   -0.57014590   38.13330712
     atom   13 type  1   force =    -1.59049455   -0.61698720   -0.93500906
     atom   14 type  2   force =     0.06784404    0.35854808  -37.96110324
     atom   15 type  2   force =    -0.11755302    0.19474612   37.18879740
     atom   16 type  1   force =     0.15882341   -4.55762919    0.89120193
     atom   17 type  2   force =    -1.62107491   -1.91557528  -37.21943776
     atom   18 type  2   force =     0.01608138    0.53189841   39.03992777
     atom   19 type  1   force =    -2.94831634    2.19309573    0.33554997
     atom   20 type  2   force =    -0.21186044    0.11135210   38.73232675
     atom   21 type  1   force =     0.04398955    0.46048741   -0.11793105
     atom   22 type  2   force =    -0.61517862    1.94125117  -37.99925641
     atom   23 type  2   force =     0.01949011   -0.55619527   38.55215035
     atom   24 type  1   force =    -0.17669949    0.55194998    0.96415092
     atom   25 type  2   force =    -2.49860859    1.43449808  -37.95458150
     atom   26 type  2   force =     0.06745845    0.16647055   37.99100479
     atom   27 type  1   force =    -1.14691560   -1.85592537    4.73360027
     atom   28 type  2   force =    -1.30340580   -6.50643191  -33.40471023
     atom   29 type  2   force =     0.22176785    0.19772596   38.19856538
     atom   30 type  1   force =     0.27540062    0.40799838    1.25612281
     atom   31 type  2   force =    -1.52826374   -0.53449689  -36.75292690
     atom   32 type  2   force =     0.39352070   -0.14165789   38.97359635
     atom   33 type  1   force =    -1.34556754    1.93750020   -0.55460309
     atom   34 type  2   force =    -0.29318001    2.06871589  -38.82604320
     atom   35 type  2   force =     0.27862389   -0.30870369   38.17599669
     atom   36 type  3   force =     0.39736553    0.09320386  -47.28774252
     The core correction contribution to forces
     atom    1 type  1   force =     0.00000000    0.00000000    0.00000000
     atom    2 type  2   force =     0.00246186    0.00063553    0.02000971
     atom    3 type  2   force =     0.00048107   -0.00036317   -0.02089041
     atom    4 type  1   force =     0.00000000    0.00000000    0.00000000
     atom    5 type  2   force =    -0.00048148    0.00157601    0.02073552
     atom    6 type  2   force =     0.00011499   -0.00153453   -0.02052636
     atom    7 type  1   force =     0.00000000    0.00000000    0.00000000
     atom    8 type  2   force =    -0.00008457    0.00050250    0.02044990
     atom    9 type  2   force =    -0.00020203    0.00042019   -0.02107551
     atom   10 type  1   force =     0.00000000    0.00000000    0.00000000
     atom   11 type  2   force =    -0.00062014   -0.00048957    0.02066692
     atom   12 type  2   force =     0.00116554    0.00147398   -0.02093165
     atom   13 type  1   force =     0.00000000    0.00000000    0.00000000
     atom   14 type  2   force =    -0.00062516   -0.00014410    0.02051346
     atom   15 type  2   force =     0.00073175    0.00023525   -0.02060688
     atom   16 type  1   force =     0.00000000    0.00000000    0.00000000
     atom   17 type  2   force =     0.00017492    0.00135665    0.02058658
     atom   18 type  2   force =     0.00026540   -0.00089110   -0.02085187
     atom   19 type  1   force =     0.00000000    0.00000000    0.00000000
     atom   20 type  2   force =     0.00015837    0.00095702   -0.02118975
     atom   21 type  1   force =     0.00000000    0.00000000    0.00000000
     atom   22 type  2   force =     0.00015824   -0.00039597    0.02055130
     atom   23 type  2   force =    -0.00060836    0.00135084   -0.02087795
     atom   24 type  1   force =     0.00000000    0.00000000    0.00000000
     atom   25 type  2   force =    -0.00255496    0.00094031    0.02118652
     atom   26 type  2   force =     0.00021758    0.00033653   -0.02101881
     atom   27 type  1   force =     0.00000000    0.00000000    0.00000000
     atom   28 type  2   force =     0.00430016    0.02293878   -0.00081400
     atom   29 type  2   force =    -0.00052121   -0.00094101   -0.02030719
     atom   30 type  1   force =     0.00000000    0.00000000    0.00000000
     atom   31 type  2   force =     0.00046238   -0.00000546    0.02039018
     atom   32 type  2   force =    -0.00011493    0.00062340   -0.02114234
     atom   33 type  1   force =     0.00000000    0.00000000    0.00000000
     atom   34 type  2   force =     0.00030868    0.00154683    0.02098129
     atom   35 type  2   force =    -0.00017672    0.00109563   -0.02102680
     atom   36 type  3   force =    -0.00307138   -0.01696122    0.01060628
     The Hubbard contrib.    to forces
     atom    1 type  1   force =     0.00000000    0.00000000    0.00000000
     atom    2 type  2   force =     0.00000000    0.00000000    0.00000000
     atom    3 type  2   force =     0.00000000    0.00000000    0.00000000
     atom    4 type  1   force =     0.00000000    0.00000000    0.00000000
     atom    5 type  2   force =     0.00000000    0.00000000    0.00000000
     atom    6 type  2   force =     0.00000000    0.00000000    0.00000000
     atom    7 type  1   force =     0.00000000    0.00000000    0.00000000
     atom    8 type  2   force =     0.00000000    0.00000000    0.00000000
     atom    9 type  2   force =     0.00000000    0.00000000    0.00000000
     atom   10 type  1   force =     0.00000000    0.00000000    0.00000000
     atom   11 type  2   force =     0.00000000    0.00000000    0.00000000
     atom   12 type  2   force =     0.00000000    0.00000000    0.00000000
     atom   13 type  1   force =     0.00000000    0.00000000    0.00000000
     atom   14 type  2   force =     0.00000000    0.00000000    0.00000000
     atom   15 type  2   force =     0.00000000    0.00000000    0.00000000
     atom   16 type  1   force =     0.00000000    0.00000000    0.00000000
     atom   17 type  2   force =     0.00000000    0.00000000    0.00000000
     atom   18 type  2   force =     0.00000000    0.00000000    0.00000000
     atom   19 type  1   force =     0.00000000    0.00000000    0.00000000
     atom   20 type  2   force =     0.00000000    0.00000000    0.00000000
     atom   21 type  1   force =     0.00000000    0.00000000    0.00000000
     atom   22 type  2   force =     0.00000000    0.00000000    0.00000000
     atom   23 type  2   force =     0.00000000    0.00000000    0.00000000
     atom   24 type  1   force =     0.00000000    0.00000000    0.00000000
     atom   25 type  2   force =     0.00000000    0.00000000    0.00000000
     atom   26 type  2   force =     0.00000000    0.00000000    0.00000000
     atom   27 type  1   force =     0.00000000    0.00000000    0.00000000
     atom   28 type  2   force =     0.00000000    0.00000000    0.00000000
     atom   29 type  2   force =     0.00000000    0.00000000    0.00000000
     atom   30 type  1   force =     0.00000000    0.00000000    0.00000000
     atom   31 type  2   force =     0.00000000    0.00000000    0.00000000
     atom   32 type  2   force =     0.00000000    0.00000000    0.00000000
     atom   33 type  1   force =     0.00000000    0.00000000    0.00000000
     atom   34 type  2   force =     0.00000000    0.00000000    0.00000000
     atom   35 type  2   force =     0.00000000    0.00000000    0.00000000
     atom   36 type  3   force =     0.00000000    0.00000000    0.00000000
     The SCF correction term to forces
     atom    1 type  1   force =    -0.00009267   -0.00021526    0.00096132
     atom    2 type  2   force =    -0.00008209   -0.00013328    0.00021741
     atom    3 type  2   force =    -0.00004461   -0.00003599    0.00052255
     atom    4 type  1   force =    -0.00018585    0.00014998    0.00105285
     atom    5 type  2   force =    -0.00008608    0.00003997    0.00029810
     atom    6 type  2   force =    -0.00001631   -0.00004872    0.00051440
     atom    7 type  1   force =    -0.00007963    0.00035828    0.00124028
     atom    8 type  2   force =    -0.00004406    0.00019515    0.00032178
     atom    9 type  2   force =    -0.00001861    0.00009403    0.00056638
     atom   10 type  1   force =    -0.00004613   -0.00019275    0.00112355
     atom   11 type  2   force =    -0.00005901   -0.00008581    0.00029853
     atom   12 type  2   force =    -0.00004917   -0.00002537    0.00060445
     atom   13 type  1   force =     0.00004315   -0.00017744    0.00104189
     atom   14 type  2   force =     0.00000681   -0.00008268    0.00026837
     atom   15 type  2   force =     0.00002494   -0.00003268    0.00055360
     atom   16 type  1   force =    -0.00006798    0.00011116    0.00108257
     atom   17 type  2   force =     0.00006566    0.00005591    0.00031024
     atom   18 type  2   force =     0.00000711   -0.00000227    0.00051902
     atom   19 type  1   force =    -0.00002600    0.00026413    0.00123469
     atom   20 type  2   force =    -0.00003470    0.00011958    0.00059389
     atom   21 type  1   force =    -0.00000014   -0.00025446    0.00122905
     atom   22 type  2   force =     0.00005694   -0.00010893    0.00027524
     atom   23 type  2   force =     0.00003067   -0.00006698    0.00062130
     atom   24 type  1   force =     0.00002707   -0.00028461    0.00087032
     atom   25 type  2   force =     0.00007338   -0.00011128    0.00022664
     atom   26 type  2   force =     0.00001696   -0.00005483    0.00051807
     atom   27 type  1   force =     0.00024419    0.00022480    0.00106717
     atom   28 type  2   force =     0.00001595    0.00001493    0.00017930
     atom   29 type  2   force =     0.00001709   -0.00002171    0.00046670
     atom   30 type  1   force =     0.00011293    0.00025480    0.00126509
     atom   31 type  2   force =     0.00008425    0.00019278    0.00027241
     atom   32 type  2   force =     0.00004540    0.00010097    0.00060057
     atom   33 type  1   force =     0.00003680   -0.00022119    0.00112349
     atom   34 type  2   force =     0.00000202   -0.00010275    0.00024163
     atom   35 type  2   force =     0.00001787   -0.00002349    0.00062166
     atom   36 type  3   force =    -0.00005531   -0.00020197    0.00036274

     Total force =     0.192724     Total SCF correction =     0.004545

     BFGS Geometry Optimization
     Energy error            =      0.0E+00 Ry
     Gradient error          =      1.0E-01 Ry/Bohr

     number of scf cycles    =   1
     number of bfgs steps    =   0

     energy             new  =   -2246.2472768159 Ry

     new trust radius        =       0.1235710828 bohr
     new conv_thr            =       0.0000010000 Ry


ATOMIC_POSITIONS (angstrom)
Mo            6.5865531245        1.7780298332        2.8286514071
S             8.1577911015        0.7997856654        4.4198029640
S             8.1888570718        0.8160136026        1.2770360115
Mo            8.0891611531        4.4895986375        2.7211620996
S             6.4994004429        3.7196034610        4.3422427081
S             6.5556793427        3.5173635979        1.1210224812
Mo            6.4935149296        7.2108138888        2.6677307160
S             8.0803291437        6.3461670424        4.2519080914
S             8.0872250962        6.3098522956        1.0888069664
Mo            8.1481260275        9.9013380651        2.8287330281
S             6.4981998750        8.9426732360        4.3790179001
S             6.6173671399        9.0490630246        1.1428353255
Mo            3.4215178591        1.7507525850        2.7715043105
S             4.9797575360        0.8159861251        4.3572099693
S             5.0508170447        0.8472883194        1.2214952688
Mo            4.9794399327        4.5193313912        2.6368908498
S             3.4322072114        3.6727419978        4.2794710212
S             3.4342937577        3.5448009366        1.0644992096
Mo            3.4550475754        7.2113158118        2.6282330454
S             4.9849443929        6.3250568064        1.0374846764
Mo            5.0090544579        9.9036219260        2.7437475006
S             3.4692438891        8.9431831615        4.3242260867
S             3.4079033204        9.0659399659        1.1008318458
Mo            0.2968147040        1.7332500130        2.8062726681
S             1.8659094626        0.7938974037        4.3979930596
S             1.8507212863        0.8550081026        1.2075783804
Mo            1.8760200812        4.4909243344        2.6629357890
S             0.2557389121        3.6492267442        4.3439417889
S             0.2328818840        3.5273723103        1.1713062465
Mo            0.2690807948        7.2192920627        2.7012313909
S             1.9038210611        6.3168081969        4.2313428972
S             1.8585607033        6.3135120198        1.0478882062
Mo            1.8549355008        9.9349080650        2.7683207885
S             0.2981846685        9.0677655778        4.4091087314
S             0.2727927873        9.0457973788        1.1573711373
O             0.0104537402        2.4815072689        5.3805053045



     Writing config-only to output data dir ./MoS2-V-O.save/
     NEW-OLD atomic charge density approx. for the potential

     negative rho (up, down):  1.437E-04 0.000E+00

     total cpu time spent up to now is      121.3 secs

     Self-consistent Calculation

     iteration #  1     ecut=    80.00 Ry     beta= 0.70
     Davidson diagonalization with overlap
     ethr =  1.00E-06,  avg # of iterations = 14.0

     negative rho (up, down):  2.830E-04 0.000E+00

     total cpu time spent up to now is      139.5 secs

     total energy              =   -2246.27831517 Ry
     estimated scf accuracy    <       0.01055875 Ry

     iteration #  2     ecut=    80.00 Ry     beta= 0.70
     Davidson diagonalization with overlap
     ethr =  3.38E-06,  avg # of iterations =  4.0

     negative rho (up, down):  4.645E-04 0.000E+00

     total cpu time spent up to now is      152.1 secs

     total energy              =   -2246.27977442 Ry
     estimated scf accuracy    <       0.00274049 Ry

     iteration #  3     ecut=    80.00 Ry     beta= 0.70
     Davidson diagonalization with overlap
     ethr =  8.78E-07,  avg # of iterations =  4.0

     negative rho (up, down):  6.509E-04 0.000E+00

     total cpu time spent up to now is      164.7 secs

     total energy              =   -2246.28004602 Ry
     estimated scf accuracy    <       0.00030540 Ry

     iteration #  4     ecut=    80.00 Ry     beta= 0.70
     Davidson diagonalization with overlap
     ethr =  9.79E-08,  avg # of iterations =  2.0

     negative rho (up, down):  7.221E-04 0.000E+00

     total cpu time spent up to now is      178.3 secs

     total energy              =   -2246.28008241 Ry
     estimated scf accuracy    <       0.00006216 Ry

     iteration #  5     ecut=    80.00 Ry     beta= 0.70
     Davidson diagonalization with overlap
     ethr =  1.99E-08,  avg # of iterations =  4.0

     negative rho (up, down):  7.101E-04 0.000E+00

     total cpu time spent up to now is      192.1 secs

     total energy              =   -2246.28009238 Ry
     estimated scf accuracy    <       0.00001847 Ry

     iteration #  6     ecut=    80.00 Ry     beta= 0.70
     Davidson diagonalization with overlap
     ethr =  5.92E-09,  avg # of iterations =  5.0

     negative rho (up, down):  6.420E-04 0.000E+00

     total cpu time spent up to now is      203.9 secs

     total energy              =   -2246.28009402 Ry
     estimated scf accuracy    <       0.00000533 Ry

     iteration #  7     ecut=    80.00 Ry     beta= 0.70
     Davidson diagonalization with overlap
     ethr =  1.71E-09,  avg # of iterations =  5.0

     negative rho (up, down):  5.604E-04 0.000E+00

     total cpu time spent up to now is      215.4 secs

     total energy              =   -2246.28009479 Ry
     estimated scf accuracy    <       0.00000102 Ry

     iteration #  8     ecut=    80.00 Ry     beta= 0.70
     Davidson diagonalization with overlap
     ethr =  3.27E-10,  avg # of iterations =  5.0

     negative rho (up, down):  2.020E-04 0.000E+00

     total cpu time spent up to now is      220.0 secs

     End of self-consistent calculation

          k = 0.0000 0.0000 0.0000 (105382 PWs)   bands (ev):

   -63.0639 -62.9860 -62.9413 -62.9223 -62.9183 -62.9042 -62.9023 -62.8960
   -62.8920 -62.8894 -62.8210 -62.8065 -37.3460 -37.3114 -37.2800 -37.2718
   -37.2464 -37.2098 -37.1917 -37.1802 -37.1657 -37.1469 -37.1346 -37.1330
   -37.1161 -37.1068 -37.0953 -37.0924 -37.0851 -37.0786 -37.0729 -37.0694
   -37.0606 -37.0522 -37.0422 -37.0322 -37.0253 -37.0141 -37.0125 -37.0011
   -36.9936 -36.9650 -36.9312 -36.9146 -36.9024 -36.8648 -36.8597 -36.8194
   -21.7493 -16.0061 -15.2739 -15.2152 -15.0548 -14.9215 -14.8396 -14.5961
   -14.5784 -14.5563 -14.5001 -14.4504 -14.4134 -14.3814 -14.2945 -14.2272
   -14.2142 -14.1853 -14.1069 -13.9944 -13.9584 -13.9119 -13.8710 -13.6908
    -8.0247  -7.8283  -7.6938  -7.5220  -7.4395  -7.3728  -7.2774  -7.2441
    -7.2306  -7.0111  -6.9272  -6.8733  -6.8560  -6.7590  -6.6981  -6.5848
    -6.5491  -6.5321  -6.3663  -6.3274  -6.1734  -6.1454  -5.9764  -5.9416
    -5.9153  -5.8268  -5.7967  -5.7709  -5.7584  -5.7424  -5.7080  -5.6533
    -5.5434  -5.4812  -5.4682  -5.3180  -5.2749  -5.2052  -5.1632  -5.0724
    -5.0610  -5.0515  -4.9174  -4.8589  -4.7624  -4.6157  -4.4984  -4.4366
    -4.3964  -4.3670  -4.2170  -4.1833  -4.1073  -3.9788  -3.8739  -3.8490
    -3.8248  -3.7768  -3.7283  -3.6860  -3.6457  -3.6087  -3.5652  -3.5478
    -3.4740  -3.4378  -3.3240  -3.2208  -3.1843  -3.0792  -2.9473  -2.9149
    -2.8722  -2.8035  -2.7861  -2.7469  -2.7267  -2.6628  -2.5777  -2.4680
    -2.1067  -2.0275  -1.9852  -1.4417  -0.9379  -0.8959  -0.8291  -0.2415
    -0.2180  -0.1547  -0.1212   0.0438   0.0743   0.1356   0.1711   0.2045
     0.2568   0.2723   0.3169   0.3883   0.4479   0.4838   0.5424   0.5503
     0.6189   0.6615   0.6963   0.7096   0.7436   0.8069   0.8297   0.9004
     0.9699   1.0099   1.0941

     the Fermi energy is    -1.1937 ev

!    total energy              =   -2246.28009467 Ry
     estimated scf accuracy    <       0.00000040 Ry
     smearing contrib. (-TS)   =      -0.00041907 Ry
     internal energy E=F+TS    =   -2246.27967560 Ry

     The total energy is F=E-TS. E is the sum of the following terms:
     one-electron contribution =  -18458.27549926 Ry
     hartree contribution      =    9217.12354271 Ry
     xc contribution           =    -392.09165991 Ry
     ewald contribution        =    7396.82672083 Ry
     one-center paw contrib.   =      -9.86277996 Ry

     convergence has been achieved in   8 iterations

     negative rho (up, down):  2.020E-04 0.000E+00

     Forces acting on atoms (cartesian axes, Ry/au):

     atom    1 type  1   force =     0.00599026   -0.01114901   -0.00006403
     atom    2 type  2   force =    -0.01759932   -0.00912319   -0.01947755
     atom    3 type  2   force =    -0.01360904    0.00286748   -0.01418725
     atom    4 type  1   force =    -0.00592489   -0.00108902    0.00645024
     atom    5 type  2   force =    -0.00117923   -0.00642675   -0.00448480
     atom    6 type  2   force =     0.00244653    0.00678648    0.00094855
     atom    7 type  1   force =     0.00428254   -0.00920765   -0.00300061
     atom    8 type  2   force =    -0.00138412    0.00142181    0.01278473
     atom    9 type  2   force =     0.01090536    0.00600810    0.00697545
     atom   10 type  1   force =    -0.00959586    0.00063722   -0.01486307
     atom   11 type  2   force =     0.00330704   -0.00181130   -0.00875139
     atom   12 type  2   force =    -0.00479341   -0.00094515    0.00061547
     atom   13 type  1   force =     0.00072491    0.00274477   -0.00366621
     atom   14 type  2   force =     0.00649277   -0.00010278    0.00795255
     atom   15 type  2   force =    -0.00838091    0.00236653   -0.00701109
     atom   16 type  1   force =     0.00123615    0.00641808    0.00558655
     atom   17 type  2   force =     0.00842669    0.00064898    0.00279505
     atom   18 type  2   force =    -0.00265193   -0.00405744    0.00722171
     atom   19 type  1   force =     0.00240808   -0.00650614   -0.00114024
     atom   20 type  2   force =     0.00284928   -0.00302243   -0.00221925
     atom   21 type  1   force =    -0.00444369    0.00107066    0.00217106
     atom   22 type  2   force =    -0.00116065   -0.00234746   -0.00250807
     atom   23 type  2   force =     0.00098199   -0.00031925    0.00445645
     atom   24 type  1   force =     0.00180757   -0.01267275   -0.04964295
     atom   25 type  2   force =     0.01579344    0.00656759   -0.00632776
     atom   26 type  2   force =    -0.00667174   -0.00484736   -0.01075703
     atom   27 type  1   force =     0.01070491   -0.00380108    0.01378099
     atom   28 type  2   force =    -0.02242237   -0.03398213   -0.00920058
     atom   29 type  2   force =     0.00386387    0.00324833   -0.00317353
     atom   30 type  1   force =    -0.00164623   -0.00164058    0.00443144
     atom   31 type  2   force =     0.00262916    0.00450045    0.01121599
     atom   32 type  2   force =    -0.00561373    0.00414256    0.00519388
     atom   33 type  1   force =     0.01086471   -0.00314670   -0.00226210
     atom   34 type  2   force =     0.00072600   -0.03179551   -0.01348308
     atom   35 type  2   force =    -0.00567574    0.00432171    0.00812268
     atom   36 type  3   force =     0.01631160    0.09424293    0.07551782
     The non-local contrib.  to forces
     atom    1 type  1   force =    -0.00285849    0.01790015   -0.01136833
     atom    2 type  2   force =    -0.03637785   -0.00313326   -0.24979556
     atom    3 type  2   force =    -0.01413266   -0.00204164    0.26142839
     atom    4 type  1   force =     0.01540259    0.00235479    0.00400460
     atom    5 type  2   force =     0.00309260   -0.02911300   -0.25702872
     atom    6 type  2   force =    -0.00102523    0.01649756    0.25695773
     atom    7 type  1   force =    -0.02024590    0.00509830   -0.02174764
     atom    8 type  2   force =     0.00450114   -0.00735506   -0.25804586
     atom    9 type  2   force =     0.00646819   -0.00884620    0.27668471
     atom   10 type  1   force =    -0.00365890    0.01648335   -0.00385024
     atom   11 type  2   force =     0.01076007    0.00301806   -0.26094130
     atom   12 type  2   force =    -0.01506361   -0.02057535    0.26291916
     atom   13 type  1   force =    -0.00054694    0.01507285   -0.00753727
     atom   14 type  2   force =     0.00985539   -0.00697758   -0.26428025
     atom   15 type  2   force =    -0.00982948   -0.00446684    0.26417113
     atom   16 type  1   force =     0.00002741    0.03768951   -0.02960648
     atom   17 type  2   force =     0.00181361   -0.02591241   -0.25353206
     atom   18 type  2   force =    -0.00358286    0.00556935    0.26692151
     atom   19 type  1   force =     0.01295619    0.00399116   -0.01835506
     atom   20 type  2   force =    -0.00054920   -0.02131225    0.26367533
     atom   21 type  1   force =     0.00116329    0.03114552    0.00376955
     atom   22 type  2   force =    -0.00489253    0.00130495   -0.25853191
     atom   23 type  2   force =     0.00941366   -0.01832095    0.26625488
     atom   24 type  1   force =     0.00206830    0.01969208   -0.00505713
     atom   25 type  2   force =     0.04173054   -0.01687913   -0.26686443
     atom   26 type  2   force =     0.00055459   -0.01027767    0.26147729
     atom   27 type  1   force =     0.00012504   -0.00243895    0.00121302
     atom   28 type  2   force =    -0.05806097   -0.36334534    0.13240345
     atom   29 type  2   force =     0.00718459    0.00592224    0.26073470
     atom   30 type  1   force =     0.00176701    0.03345152    0.00574030
     atom   31 type  2   force =    -0.00797263   -0.00059780   -0.25561861
     atom   32 type  2   force =    -0.00131096   -0.01030154    0.27552483
     atom   33 type  1   force =    -0.00546405    0.01492038    0.00532903
     atom   34 type  2   force =    -0.00231563   -0.03460345   -0.27524860
     atom   35 type  2   force =     0.00019035   -0.01301068    0.26724828
     atom   36 type  3   force =     0.27452734    1.56583206   -1.12860654
     The ionic contribution  to forces
     atom    1 type  1   force =    -1.55526554    0.01670332    3.58551385
     atom    2 type  2   force =    -2.19312692   -2.12381452   37.68034410
     atom    3 type  2   force =    -0.48013988   -0.29760661  -37.22639730
     atom    4 type  1   force =    -0.65858555    2.41958013   -1.99708634
     atom    5 type  2   force =    -2.16253064    2.05873497   38.13482971
     atom    6 type  2   force =     0.07238629   -0.42821160  -38.75505512
     atom    7 type  1   force =    -2.92064545   -2.38203582    1.45595466
     atom    8 type  2   force =    -1.20582570    0.68191953   37.12494578
     atom    9 type  2   force =     0.32329265    0.04369253  -38.55903543
     atom   10 type  1   force =    -1.17297754   -1.64197287    3.70316945
     atom   11 type  2   force =    -0.76346706   -1.89787700   38.92641225
     atom   12 type  2   force =     0.25630364    0.51981330  -38.38526898
     atom   13 type  1   force =     1.64064448    0.51460867    0.91820624
     atom   14 type  2   force =    -0.15223170   -0.30190828   38.27344227
     atom   15 type  2   force =     0.15831451   -0.12028091  -37.43978943
     atom   16 type  1   force =    -0.05733938    4.32140663   -0.64935770
     atom   17 type  2   force =     1.58445339    1.84097553   37.54270909
     atom   18 type  2   force =     0.06875686   -0.51023441  -39.27342484
     atom   19 type  1   force =     2.88532630   -2.13282999   -0.37935031
     atom   20 type  2   force =     0.20166868   -0.08867375  -39.03942526
     atom   21 type  1   force =    -0.06958441   -0.49844756    0.25784360
     atom   22 type  2   force =     0.62431272   -1.94976145   38.27616330
     atom   23 type  2   force =     0.00879550    0.51922901  -38.78732122
     atom   24 type  1   force =     0.23357069   -0.37361193   -1.87788710
     atom   25 type  2   force =     2.09270034   -1.29113714   38.17533871
     atom   26 type  2   force =     0.12331894   -0.25544469  -38.28747774
     atom   27 type  1   force =     0.63559260    1.89581585   -4.32991973
     atom   28 type  2   force =     1.39455946    6.68396859   32.79432035
     atom   29 type  2   force =    -0.21559369    0.05785421  -38.33238358
     atom   30 type  1   force =    -0.19345736   -0.70052310   -1.18358942
     atom   31 type  2   force =     1.46367262    0.48201075   37.04673014
     atom   32 type  2   force =    -0.45095857    0.09976989  -39.14845044
     atom   33 type  1   force =     1.06649719   -1.78432145    0.69949628
     atom   34 type  2   force =     0.24255780   -1.77231042   38.97381198
     atom   35 type  2   force =    -0.22440181    0.30413617  -38.31163842
     atom   36 type  3   force =    -0.60059344   -1.90921557   48.39362659
     The local contribution  to forces
     atom    1 type  1   force =     1.56423288   -0.04567155   -3.57355315
     atom    2 type  2   force =     2.20952746    2.11701496  -37.47001414
     atom    3 type  2   force =     0.48024942    0.30266976   36.97156939
     atom    4 type  1   force =     0.63738596   -2.42293461    2.00009823
     atom    5 type  2   force =     2.15884864   -2.03752333  -37.90260433
     atom    6 type  2   force =    -0.06903023    0.42000819   38.51961201
     atom    7 type  1   force =     2.94520892    2.36758235   -1.43663847
     atom    8 type  2   force =     1.20009225   -0.67388926  -36.87435251
     atom    9 type  2   force =    -0.31882274   -0.02931913   38.31045912
     atom   10 type  1   force =     1.16705950    1.62611017   -3.71354837
     atom   11 type  2   force =     0.75646377    1.89341305  -38.69455202
     atom   12 type  2   force =    -0.24721934   -0.50177364   38.14392003
     atom   13 type  1   force =    -1.63960273   -0.52678649   -0.91373935
     atom   14 type  2   force =     0.14949235    0.30885005  -38.02148783
     atom   15 type  2   force =    -0.15749183    0.12682470   37.18934179
     atom   16 type  1   force =     0.05846859   -4.35250573    0.68501599
     atom   17 type  2   force =    -1.57810200   -1.81559005  -37.30659906
     atom   18 type  2   force =    -0.06805037    0.50162506   39.03460489
     atom   19 type  1   force =    -2.89596406    2.12217182    0.39710893
     atom   20 type  2   force =    -0.19843832    0.10607672   38.79476091
     atom   21 type  1   force =     0.06399822    0.46821523   -0.25881735
     atom   22 type  2   force =    -0.62064322    1.94639868  -38.04036722
     atom   23 type  2   force =    -0.01660887   -0.50274050   38.54643519
     atom   24 type  1   force =    -0.23382205    0.34153019    1.83383395
     atom   25 type  2   force =    -2.11646304    1.31371349  -37.93567727
     atom   26 type  2   force =    -0.13053303    0.26056291   38.03621321
     atom   27 type  1   force =    -0.62507426   -1.89717575    4.34306208
     atom   28 type  2   force =    -1.36249558   -6.37595225  -32.93373360
     atom   29 type  2   force =     0.21289979   -0.05992831   38.08905815
     atom   30 type  1   force =     0.19008608    0.66525612    1.18289442
     atom   31 type  2   force =    -1.45352630   -0.47719955  -36.80012763
     atom   32 type  2   force =     0.44695500   -0.08600368   38.89933141
     atom   33 type  1   force =    -1.05019467    1.76616092   -0.70650699
     atom   34 type  2   force =    -0.23987326    1.77372644  -38.73277246
     atom   35 type  2   force =     0.21872091   -0.28797947   38.07346632
     atom   36 type  3   force =     0.34545806    0.45511219  -47.20094252
     The core correction contribution to forces
     atom    1 type  1   force =     0.00000000    0.00000000    0.00000000
     atom    2 type  2   force =     0.00234625    0.00089390    0.02039710
     atom    3 type  2   force =     0.00050083   -0.00006880   -0.02064143
     atom    4 type  1   force =     0.00000000    0.00000000    0.00000000
     atom    5 type  2   force =    -0.00051302    0.00151690    0.02071224
     atom    6 type  2   force =     0.00017322   -0.00143288   -0.02053386
     atom    7 type  1   force =     0.00000000    0.00000000    0.00000000
     atom    8 type  2   force =    -0.00014851    0.00073971    0.02055624
     atom    9 type  2   force =    -0.00006043    0.00046156   -0.02105865
     atom   10 type  1   force =     0.00000000    0.00000000    0.00000000
     atom   11 type  2   force =    -0.00046514   -0.00040002    0.02071630
     atom   12 type  2   force =     0.00119698    0.00151754   -0.02089432
     atom   13 type  1   force =     0.00000000    0.00000000    0.00000000
     atom   14 type  2   force =    -0.00058843   -0.00008891    0.02068101
     atom   15 type  2   force =     0.00062594    0.00029260   -0.02066337
     atom   16 type  1   force =     0.00000000    0.00000000    0.00000000
     atom   17 type  2   force =     0.00014496    0.00124070    0.02055569
     atom   18 type  2   force =     0.00013478   -0.00093918   -0.02082351
     atom   19 type  1   force =     0.00000000    0.00000000    0.00000000
     atom   20 type  2   force =     0.00015829    0.00087627   -0.02115616
     atom   21 type  1   force =     0.00000000    0.00000000    0.00000000
     atom   22 type  2   force =     0.00005658   -0.00033944    0.02060098
     atom   23 type  2   force =    -0.00063459    0.00142987   -0.02087306
     atom   24 type  1   force =     0.00000000    0.00000000    0.00000000
     atom   25 type  2   force =    -0.00218102    0.00094982    0.02125070
     atom   26 type  2   force =    -0.00010930    0.00041271   -0.02085103
     atom   27 type  1   force =     0.00000000    0.00000000    0.00000000
     atom   28 type  2   force =     0.00359694    0.02131874   -0.00189884
     atom   29 type  2   force =    -0.00058951   -0.00061621   -0.02046418
     atom   30 type  1   force =     0.00000000    0.00000000    0.00000000
     atom   31 type  2   force =     0.00045839    0.00025919    0.02054776
     atom   32 type  2   force =    -0.00027321    0.00063911   -0.02113491
     atom   33 type  1   force =     0.00000000    0.00000000    0.00000000
     atom   34 type  2   force =     0.00038054    0.00127078    0.02114660
     atom   35 type  2   force =    -0.00017504    0.00110522   -0.02093136
     atom   36 type  3   force =    -0.00306671   -0.01755162    0.01156592
     The Hubbard contrib.    to forces
     atom    1 type  1   force =     0.00000000    0.00000000    0.00000000
     atom    2 type  2   force =     0.00000000    0.00000000    0.00000000
     atom    3 type  2   force =     0.00000000    0.00000000    0.00000000
     atom    4 type  1   force =     0.00000000    0.00000000    0.00000000
     atom    5 type  2   force =     0.00000000    0.00000000    0.00000000
     atom    6 type  2   force =     0.00000000    0.00000000    0.00000000
     atom    7 type  1   force =     0.00000000    0.00000000    0.00000000
     atom    8 type  2   force =     0.00000000    0.00000000    0.00000000
     atom    9 type  2   force =     0.00000000    0.00000000    0.00000000
     atom   10 type  1   force =     0.00000000    0.00000000    0.00000000
     atom   11 type  2   force =     0.00000000    0.00000000    0.00000000
     atom   12 type  2   force =     0.00000000    0.00000000    0.00000000
     atom   13 type  1   force =     0.00000000    0.00000000    0.00000000
     atom   14 type  2   force =     0.00000000    0.00000000    0.00000000
     atom   15 type  2   force =     0.00000000    0.00000000    0.00000000
     atom   16 type  1   force =     0.00000000    0.00000000    0.00000000
     atom   17 type  2   force =     0.00000000    0.00000000    0.00000000
     atom   18 type  2   force =     0.00000000    0.00000000    0.00000000
     atom   19 type  1   force =     0.00000000    0.00000000    0.00000000
     atom   20 type  2   force =     0.00000000    0.00000000    0.00000000
     atom   21 type  1   force =     0.00000000    0.00000000    0.00000000
     atom   22 type  2   force =     0.00000000    0.00000000    0.00000000
     atom   23 type  2   force =     0.00000000    0.00000000    0.00000000
     atom   24 type  1   force =     0.00000000    0.00000000    0.00000000
     atom   25 type  2   force =     0.00000000    0.00000000    0.00000000
     atom   26 type  2   force =     0.00000000    0.00000000    0.00000000
     atom   27 type  1   force =     0.00000000    0.00000000    0.00000000
     atom   28 type  2   force =     0.00000000    0.00000000    0.00000000
     atom   29 type  2   force =     0.00000000    0.00000000    0.00000000
     atom   30 type  1   force =     0.00000000    0.00000000    0.00000000
     atom   31 type  2   force =     0.00000000    0.00000000    0.00000000
     atom   32 type  2   force =     0.00000000    0.00000000    0.00000000
     atom   33 type  1   force =     0.00000000    0.00000000    0.00000000
     atom   34 type  2   force =     0.00000000    0.00000000    0.00000000
     atom   35 type  2   force =     0.00000000    0.00000000    0.00000000
     atom   36 type  3   force =     0.00000000    0.00000000    0.00000000
     The SCF correction term to forces
     atom    1 type  1   force =    -0.00011915   -0.00008090   -0.00064091
     atom    2 type  2   force =     0.00003118   -0.00008423   -0.00039356
     atom    3 type  2   force =    -0.00008732   -0.00008520   -0.00013079
     atom    4 type  1   force =    -0.00012846   -0.00008929   -0.00055075
     atom    5 type  2   force =    -0.00007737   -0.00004226   -0.00037821
     atom    6 type  2   force =    -0.00005808   -0.00007474   -0.00001671
     atom    7 type  1   force =    -0.00003560    0.00014756   -0.00055366
     atom    8 type  2   force =    -0.00000386    0.00000694   -0.00030342
     atom    9 type  2   force =     0.00002713    0.00001939   -0.00005881
     atom   10 type  1   force =    -0.00001949    0.00001661   -0.00061842
     atom   11 type  2   force =     0.00001485    0.00003466   -0.00037112
     atom   12 type  2   force =    -0.00001164    0.00007303   -0.00004493
     atom   13 type  1   force =     0.00022953   -0.00015022   -0.00058032
     atom   14 type  2   force =    -0.00003540    0.00002198   -0.00038716
     atom   15 type  2   force =    -0.00000063   -0.00000298   -0.00005570
     atom   16 type  1   force =     0.00007897   -0.00017228   -0.00044977
     atom   17 type  2   force =     0.00011617   -0.00006476   -0.00032312
     atom   18 type  2   force =     0.00008910   -0.00007822   -0.00004084
     atom   19 type  1   force =     0.00008909    0.00016092   -0.00052830
     atom   20 type  2   force =     0.00000926    0.00001061   -0.00005857
     atom   21 type  1   force =    -0.00002135    0.00015750   -0.00060925
     atom   22 type  2   force =     0.00000524    0.00004984   -0.00035772
     atom   23 type  2   force =     0.00001572    0.00008335   -0.00002384
     atom   24 type  1   force =    -0.00000995   -0.00028306   -0.00051718
     atom   25 type  2   force =     0.00000605   -0.00007940   -0.00035998
     atom   26 type  2   force =     0.00009649   -0.00010058   -0.00010327
     atom   27 type  1   force =     0.00006097   -0.00000219   -0.00055888
     atom   28 type  2   force =    -0.00002278    0.00002816   -0.00027644
     atom   29 type  2   force =    -0.00003787    0.00001644   -0.00010313
     atom   30 type  1   force =    -0.00004253    0.00017491   -0.00059837
     atom   31 type  2   force =    -0.00000348    0.00002789   -0.00030017
     atom   32 type  2   force =    -0.00002656    0.00003881   -0.00006151
     atom   33 type  1   force =     0.00002567    0.00009349   -0.00056492
     atom   34 type  2   force =    -0.00002402    0.00012118   -0.00040511
     atom   35 type  2   force =    -0.00001072    0.00007050   -0.00000663
     atom   36 type  3   force =    -0.00001421    0.00006590   -0.00011014

     Total force =     0.157586     Total SCF correction =     0.002409
     Energy error            =      3.3E-02 Ry
     Gradient error          =      9.4E-02 Ry/Bohr

     number of scf cycles    =   2
     number of bfgs steps    =   1

     energy             old  =   -2246.2472768159 Ry
     energy             new  =   -2246.2800946654 Ry

     CASE: energy            _new < energy            _old

     new trust radius        =       0.1359281911 bohr
     new conv_thr            =       0.0000000942 Ry


ATOMIC_POSITIONS (angstrom)
Mo            6.5928957867        1.7702351914        2.8302228258
S             8.1443744977        0.7927951541        4.4069336408
S             8.1817543010        0.8187387348        1.2708168420
Mo            8.0847616687        4.4874001574        2.7249337401
S             6.4987436166        3.7160126148        4.3389523707
S             6.5574485797        3.5220045617        1.1213379575
Mo            6.4964381319        7.2045203296        2.6651470055
S             8.0793024653        6.3474959237        4.2602833266
S             8.0938105657        6.3140149637        1.0933095040
Mo            8.1401156995        9.9013364422        2.8178006897
S             6.5005541844        8.9418328332        4.3740439803
S             6.6151721450        9.0487789889        1.1440277824
Mo            3.4217765650        1.7531150851        2.7683820451
S             4.9839453787        0.8156382441        4.3626752092
S             5.0450637426        0.8486080935        1.2169078280
Mo            4.9798571730        4.5239861724        2.6405117890
S             3.4371336695        3.6733786484        4.2805668625
S             3.4320244106        3.5420057809        1.0694890825
Mo            3.4564357123        7.2069893929        2.6269750718
S             4.9866848594        6.3231909945        1.0366278394
Mo            5.0061670081        9.9047160749        2.7447684176
S             3.4682101817        8.9420175711        4.3227387782
S             3.4081472622        9.0661092607        1.1042205832
Mo            0.2978037321        1.7233858170        2.7716802437
S             1.8774611992        0.7970352362        4.3952707642
S             1.8447074884        0.8531613817        1.2024863462
Mo            1.8854003790        4.4878171341        2.6695880690
S             0.2410796960        3.6333274528        4.3421128279
S             0.2350287771        3.5287736218        1.1697484808
Mo            0.2677295155        7.2194485425        2.7029411000
S             1.9054285790        6.3199747089        4.2388855544
S             1.8550332904        6.3162600400        1.0511283327
Mo            1.8628701969        9.9319193054        2.7658962117
S             0.2992140482        9.0473389134        4.4019360034
S             0.2691432853        9.0483344128        1.1630013714
O             0.0206292194        2.5378930743        5.4239913943



     Writing config-only to output data dir ./MoS2-V-O.save/
     NEW-OLD atomic charge density approx. for the potential

     negative rho (up, down):  1.350E-04 0.000E+00

     total cpu time spent up to now is      228.2 secs

     Self-consistent Calculation

     iteration #  1     ecut=    80.00 Ry     beta= 0.70
     Davidson diagonalization with overlap
     ethr =  1.00E-06,  avg # of iterations = 11.0

     negative rho (up, down):  2.054E-04 0.000E+00

     total cpu time spent up to now is      242.1 secs

     total energy              =   -2246.30510687 Ry
     estimated scf accuracy    <       0.00581117 Ry

     iteration #  2     ecut=    80.00 Ry     beta= 0.70
     Davidson diagonalization with overlap
     ethr =  1.86E-06,  avg # of iterations =  4.0

     negative rho (up, down):  2.999E-04 0.000E+00

     total cpu time spent up to now is      259.2 secs

     total energy              =   -2246.30595703 Ry
     estimated scf accuracy    <       0.00203045 Ry

     iteration #  3     ecut=    80.00 Ry     beta= 0.70
     Davidson diagonalization with overlap
     ethr =  6.51E-07,  avg # of iterations =  3.0

     negative rho (up, down):  3.766E-04 0.000E+00

     total cpu time spent up to now is      277.9 secs

     total energy              =   -2246.30608100 Ry
     estimated scf accuracy    <       0.00024059 Ry

     iteration #  4     ecut=    80.00 Ry     beta= 0.70
     Davidson diagonalization with overlap
     ethr =  7.71E-08,  avg # of iterations =  3.0

     negative rho (up, down):  4.136E-04 0.000E+00

     total cpu time spent up to now is      290.7 secs

     total energy              =   -2246.30610658 Ry
     estimated scf accuracy    <       0.00003414 Ry

     iteration #  5     ecut=    80.00 Ry     beta= 0.70
     Davidson diagonalization with overlap
     ethr =  1.09E-08,  avg # of iterations =  7.0

     negative rho (up, down):  4.163E-04 0.000E+00

     total cpu time spent up to now is      307.7 secs

     total energy              =   -2246.30611465 Ry
     estimated scf accuracy    <       0.00001181 Ry

     iteration #  6     ecut=    80.00 Ry     beta= 0.70
     Davidson diagonalization with overlap
     ethr =  3.78E-09,  avg # of iterations =  2.0

     negative rho (up, down):  4.087E-04 0.000E+00

     total cpu time spent up to now is      320.6 secs

     total energy              =   -2246.30611512 Ry
     estimated scf accuracy    <       0.00000257 Ry

     iteration #  7     ecut=    80.00 Ry     beta= 0.70
     Davidson diagonalization with overlap
     ethr =  8.22E-10,  avg # of iterations =  5.0

     negative rho (up, down):  3.885E-04 0.000E+00

     total cpu time spent up to now is      334.6 secs

     total energy              =   -2246.30611569 Ry
     estimated scf accuracy    <       0.00000031 Ry

     iteration #  8     ecut=    80.00 Ry     beta= 0.70
     Davidson diagonalization with overlap
     ethr =  1.01E-10,  avg # of iterations =  4.0

     negative rho (up, down):  3.415E-04 0.000E+00

     total cpu time spent up to now is      345.1 secs

     total energy              =   -2246.30611586 Ry
     estimated scf accuracy    <       0.00000013 Ry

     iteration #  9     ecut=    80.00 Ry     beta= 0.70
     Davidson diagonalization with overlap
     ethr =  4.25E-11,  avg # of iterations =  3.0

     negative rho (up, down):  2.026E-04 0.000E+00

     total cpu time spent up to now is      349.5 secs

     End of self-consistent calculation

          k = 0.0000 0.0000 0.0000 (105382 PWs)   bands (ev):

   -63.0683 -62.9953 -62.9507 -62.9314 -62.9210 -62.9126 -62.9092 -62.9017
   -62.8999 -62.8424 -62.8290 -62.8239 -37.3493 -37.3213 -37.2837 -37.2801
   -37.2519 -37.2091 -37.1988 -37.1841 -37.1743 -37.1521 -37.1428 -37.1369
   -37.1245 -37.1047 -37.0946 -37.0933 -37.0840 -37.0777 -37.0749 -37.0721
   -37.0640 -37.0500 -37.0466 -37.0342 -37.0321 -37.0195 -37.0172 -37.0011
   -36.9993 -36.9655 -36.9375 -36.9318 -36.8937 -36.8713 -36.8689 -36.8317
   -21.9580 -16.0183 -15.2752 -15.2214 -15.0660 -14.9291 -14.8488 -14.6010
   -14.5700 -14.5464 -14.5172 -14.4629 -14.4190 -14.3924 -14.2980 -14.2421
   -14.2215 -14.1868 -14.1137 -13.9858 -13.9719 -13.9253 -13.8727 -13.6821
    -7.9770  -7.8428  -7.7093  -7.5168  -7.4545  -7.3922  -7.2860  -7.2546
    -7.2432  -7.0288  -6.9524  -6.8768  -6.8662  -6.7690  -6.7234  -6.5953
    -6.5610  -6.5402  -6.3737  -6.3367  -6.1912  -6.1529  -5.9927  -5.9515
    -5.9178  -5.8383  -5.8091  -5.7830  -5.7627  -5.7525  -5.7191  -5.6704
    -5.5474  -5.4884  -5.4748  -5.3273  -5.2750  -5.2167  -5.1743  -5.0816
    -5.0628  -5.0550  -4.9393  -4.8636  -4.7641  -4.6225  -4.5289  -4.4512
    -4.4045  -4.3723  -4.2372  -4.2036  -4.1303  -3.9696  -3.8821  -3.8604
    -3.8410  -3.7848  -3.7262  -3.6935  -3.6589  -3.6221  -3.5801  -3.5605
    -3.4750  -3.4390  -3.3348  -3.2248  -3.1874  -3.0543  -2.9633  -2.9196
    -2.8891  -2.8174  -2.7966  -2.7453  -2.7377  -2.6713  -2.6203  -2.4811
    -2.1183  -2.0374  -2.0110  -1.5882  -0.9207  -0.8686  -0.8202  -0.2491
    -0.2302  -0.1623  -0.1311   0.0411   0.0561   0.1323   0.1570   0.2133
     0.2706   0.2861   0.3088   0.3798   0.4355   0.4762   0.5382   0.5599
     0.6305   0.6499   0.6951   0.7060   0.7390   0.8014   0.8350   0.8983
     0.9418   0.9922   1.1013

     the Fermi energy is    -1.2560 ev

!    total energy              =   -2246.30611599 Ry
     estimated scf accuracy    <       0.00000006 Ry
     smearing contrib. (-TS)   =      -0.00002943 Ry
     internal energy E=F+TS    =   -2246.30608656 Ry

     The total energy is F=E-TS. E is the sum of the following terms:
     one-electron contribution =  -18453.04811517 Ry
     hartree contribution      =    9214.43004513 Ry
     xc contribution           =    -392.11067422 Ry
     ewald contribution        =    7394.28389734 Ry
     one-center paw contrib.   =      -9.86123964 Ry

     convergence has been achieved in   9 iterations

     negative rho (up, down):  2.026E-04 0.000E+00

     Forces acting on atoms (cartesian axes, Ry/au):

     atom    1 type  1   force =    -0.00597862   -0.00563733   -0.00708211
     atom    2 type  2   force =    -0.00386314   -0.00236160   -0.01250046
     atom    3 type  2   force =    -0.01712620   -0.00123721   -0.02170822
     atom    4 type  1   force =    -0.00143505    0.00498951    0.00531584
     atom    5 type  2   force =    -0.00142099   -0.00696835   -0.00167471
     atom    6 type  2   force =     0.00094058    0.00410745    0.00203751
     atom    7 type  1   force =     0.00256114   -0.00514481   -0.00036416
     atom    8 type  2   force =    -0.00029827   -0.00113597    0.00981115
     atom    9 type  2   force =     0.00948644    0.00311385    0.00512915
     atom   10 type  1   force =    -0.00099409    0.00186665   -0.00730738
     atom   11 type  2   force =     0.00174952   -0.00263133   -0.00853533
     atom   12 type  2   force =    -0.00704378   -0.00205957   -0.00213947
     atom   13 type  1   force =     0.00298127   -0.00013770   -0.00077039
     atom   14 type  2   force =     0.00433651    0.00078063    0.00443732
     atom   15 type  2   force =    -0.00532336    0.00188081   -0.00495049
     atom   16 type  1   force =     0.00207925    0.00217890    0.00326446
     atom   17 type  2   force =     0.00818205   -0.00061432    0.00524382
     atom   18 type  2   force =    -0.00009140   -0.00193326    0.00531415
     atom   19 type  1   force =     0.00237112   -0.00423626    0.00055025
     atom   20 type  2   force =     0.00242143   -0.00262688   -0.00336531
     atom   21 type  1   force =    -0.00265916   -0.00013632    0.00193678
     atom   22 type  2   force =     0.00024904   -0.00304880   -0.00176529
     atom   23 type  2   force =     0.00216406   -0.00186537    0.00171215
     atom   24 type  1   force =    -0.00174650   -0.00584925   -0.02071658
     atom   25 type  2   force =     0.00537392    0.00901938   -0.00973765
     atom   26 type  2   force =     0.00459494   -0.00867142   -0.01579772
     atom   27 type  1   force =    -0.00154165    0.00179559    0.01631406
     atom   28 type  2   force =    -0.01359058   -0.04428331   -0.02729174
     atom   29 type  2   force =     0.00417285    0.00626679   -0.00380415
     atom   30 type  1   force =     0.00005348   -0.00550056    0.00605464
     atom   31 type  2   force =     0.00206697    0.00172052    0.00837279
     atom   32 type  2   force =    -0.00438302    0.00209920    0.00533609
     atom   33 type  1   force =     0.00371124    0.00072503    0.00069932
     atom   34 type  2   force =    -0.00137350   -0.02245419   -0.01426352
     atom   35 type  2   force =    -0.00363907    0.00366849    0.00484453
     atom   36 type  3   force =     0.01301255    0.08432102    0.07740065
     The non-local contrib.  to forces
     atom    1 type  1   force =     0.00080040    0.01766686   -0.01153039
     atom    2 type  2   force =    -0.02768769   -0.00680371   -0.25547519
     atom    3 type  2   force =    -0.01545366   -0.00682003    0.25580020
     atom    4 type  1   force =     0.01464116    0.00043620    0.00413377
     atom    5 type  2   force =     0.00304521   -0.02856155   -0.25596451
     atom    6 type  2   force =    -0.00283034    0.01349583    0.25822187
     atom    7 type  1   force =    -0.01982811    0.00524064   -0.02084687
     atom    8 type  2   force =     0.00598543   -0.01091362   -0.25966721
     atom    9 type  2   force =     0.00420509   -0.01054909    0.27515720
     atom   10 type  1   force =    -0.00463097    0.01488795   -0.00357455
     atom   11 type  2   force =     0.00900461    0.00129918   -0.26167058
     atom   12 type  2   force =    -0.01690022   -0.02169533    0.26159322
     atom   13 type  1   force =    -0.00158171    0.01685920   -0.00759491
     atom   14 type  2   force =     0.00769954   -0.00741328   -0.26785039
     atom   15 type  2   force =    -0.00753878   -0.00524606    0.26534906
     atom   16 type  1   force =    -0.00063374    0.03813379   -0.03100522
     atom   17 type  2   force =     0.00242122   -0.02514197   -0.25133678
     atom   18 type  2   force =    -0.00072432    0.00630521    0.26542615
     atom   19 type  1   force =     0.01397868    0.00556137   -0.01739939
     atom   20 type  2   force =    -0.00074776   -0.01988233    0.26272929
     atom   21 type  1   force =     0.00048117    0.03255105    0.00233768
     atom   22 type  2   force =    -0.00354948   -0.00003271   -0.25863153
     atom   23 type  2   force =     0.01029588   -0.02004203    0.26485400
     atom   24 type  1   force =     0.00240482    0.02481541    0.01048722
     atom   25 type  2   force =     0.03096872   -0.01561110   -0.26926612
     atom   26 type  2   force =     0.00957307   -0.01271135    0.25682134
     atom   27 type  1   force =     0.00092602   -0.00325595    0.00007563
     atom   28 type  2   force =    -0.04563988   -0.32351125    0.15563156
     atom   29 type  2   force =     0.00741625    0.00382224    0.26363201
     atom   30 type  1   force =     0.00087961    0.03217741    0.00576262
     atom   31 type  2   force =    -0.00875695   -0.00464127   -0.25826276
     atom   32 type  2   force =     0.00078350   -0.01154645    0.27564995
     atom   33 type  1   force =    -0.00265557    0.01373759    0.00385148
     atom   34 type  2   force =    -0.00381884   -0.02639603   -0.27776098
     atom   35 type  2   force =     0.00135410   -0.01359195    0.26576387
     atom   36 type  3   force =     0.27139119    1.57610445   -1.25878235
     The ionic contribution  to forces
[...]
     atom   28 type  2   force =    -0.00057931    0.00781364    0.29372201
     atom   29 type  2   force =     0.00001443   -0.01032485    0.27685051
     atom   30 type  1   force =    -0.00013645    0.01755168    0.00419171
     atom   31 type  2   force =    -0.00676985    0.00177171   -0.26883785
     atom   32 type  2   force =     0.00584629   -0.01416366    0.26778044
     atom   33 type  1   force =     0.00179583    0.00463977    0.00269568
     atom   34 type  2   force =     0.00046682   -0.00939384   -0.27616361
     atom   35 type  2   force =    -0.00082351   -0.01396315    0.26795571
     atom   36 type  3   force =     0.01115964   -0.02889567   -2.32496257
     The ionic contribution  to forces
     atom    1 type  1   force =    -0.73023478    0.13942578    0.73354722
     atom    2 type  2   force =    -0.79229624   -0.88394259   38.24108064
     atom    3 type  2   force =    -0.02801691   -0.15749345  -38.37571743
     atom    4 type  1   force =    -1.05669818    0.84266540   -3.55968320
     atom    5 type  2   force =    -1.78995377    1.11026308   37.61574327
     atom    6 type  2   force =     0.15199259   -0.35716138  -38.88035968
     atom    7 type  1   force =    -3.18872505   -1.47911516    1.79817290
     atom    8 type  2   force =    -1.75461594    1.15205731   37.67105818
     atom    9 type  2   force =     0.31131386    0.19419080  -38.72847781
     atom   10 type  1   force =    -0.61342012   -0.95687232    1.92683803
     atom   11 type  2   force =    -0.58776809   -1.39004529   38.45079868
     atom   12 type  2   force =     0.13356823    0.26474796  -38.34645721
     atom   13 type  1   force =     0.69069364    0.12910009    0.80804040
     atom   14 type  2   force =     0.00152805   -0.28938095   38.28674394
     atom   15 type  2   force =    -0.00937975   -0.22956222  -38.04559237
     atom   16 type  1   force =    -0.01310297    3.91854965    0.47016400
     atom   17 type  2   force =     1.76651410    1.11515901   37.63114397
     atom   18 type  2   force =    -0.16607621   -0.35008301  -38.85983856
     atom   19 type  1   force =     3.19017262   -1.50475037    2.06648651
     atom   20 type  2   force =    -0.01601517    0.10343950  -38.87883885
     atom   21 type  1   force =     0.00110229   -0.46501670    0.53516728
     atom   22 type  2   force =     0.59728985   -1.38602429   38.50123206
     atom   23 type  2   force =    -0.14391911    0.25971106  -38.27580641
     atom   24 type  1   force =     0.03499492   -0.60638420   -1.90157630
     atom   25 type  2   force =     0.79470665   -0.85807094   38.27050669
     atom   26 type  2   force =     0.03924786   -0.16352741  -38.33631559
     atom   27 type  1   force =     1.06722915    0.83250097   -3.43932101
     atom   28 type  2   force =     0.04904230    0.31398789   27.84842493
     atom   29 type  2   force =     0.01483408   -0.12714553  -38.17714822
     atom   30 type  1   force =     0.00980080    0.29151024    0.65935098
     atom   31 type  2   force =     1.74161445    1.13428993   37.70573304
     atom   32 type  2   force =    -0.29519916    0.19111778  -38.69175691
     atom   33 type  1   force =     0.61635327   -0.93848749    2.23263254
     atom   34 type  2   force =    -0.01196998   -0.44144860   38.59590877
     atom   35 type  2   force =     0.01025431    0.12386857  -37.85892689
     atom   36 type  3   force =    -0.02486157    0.46792689   50.30704243
     The local contribution  to forces
     atom    1 type  1   force =     0.73066775   -0.16295519   -0.72732727
     atom    2 type  2   force =     0.79176054    0.89271400  -37.99175997
     atom    3 type  2   force =     0.03021734    0.16625843   38.13012766
     atom    4 type  1   force =     1.04759278   -0.84003015    3.53870539
     atom    5 type  2   force =     1.78622898   -1.09196748  -37.37822724
     atom    6 type  2   force =    -0.15169317    0.36008293   38.63764529
     atom    7 type  1   force =     3.20367146    1.47508877   -1.77834887
     atom    8 type  2   force =     1.74814004   -1.15429963  -37.42355904
     atom    9 type  2   force =    -0.30533851   -0.18198695   38.48187591
     atom   10 type  1   force =     0.61572816    0.95197403   -1.92963135
     atom   11 type  2   force =     0.58102137    1.39183448  -38.20993072
     atom   12 type  2   force =    -0.12574689   -0.25166207   38.10328443
     atom   13 type  1   force =    -0.69218214   -0.15371202   -0.80130364
     atom   14 type  2   force =    -0.00140166    0.29788487  -38.03776045
     atom   15 type  2   force =     0.00926206    0.23792273   37.80307566
     atom   16 type  1   force =     0.01307139   -3.95203905   -0.44798750
     atom   17 type  2   force =    -1.76255628   -1.09683847  -37.39364059
     atom   18 type  2   force =     0.16570385    0.35317105   38.61704245
     atom   19 type  1   force =    -3.20531044    1.50028849   -2.04656695
     atom   20 type  2   force =     0.01580344   -0.08771453   38.63359060
     atom   21 type  1   force =    -0.00088420    0.43582579   -0.53721293
     atom   22 type  2   force =    -0.59026246    1.38769783  -38.26031202
     atom   23 type  2   force =     0.13585227   -0.24648678   38.03228804
     atom   24 type  1   force =    -0.03460242    0.58633421    1.88769048
     atom   25 type  2   force =    -0.79421849    0.86701010  -38.02134946
     atom   26 type  2   force =    -0.04133309    0.17210050   38.09084867
     atom   27 type  1   force =    -1.05918248   -0.83011244    3.41942088
     atom   28 type  2   force =    -0.04822296   -0.32112186  -28.13452402
     atom   29 type  2   force =    -0.01472620    0.13542807   37.92135804
     atom   30 type  1   force =    -0.00945286   -0.30877809   -0.66325510
     atom   31 type  2   force =    -1.73531406   -1.13669198  -37.45836389
     atom   32 type  2   force =     0.28943537   -0.17889571   38.44519116
     atom   33 type  1   force =    -0.61857298    0.93426798   -2.23576274
     atom   34 type  2   force =     0.01160817    0.45053096  -38.34133659
     atom   35 type  2   force =    -0.00999565   -0.11004232   37.61266148
     atom   36 type  3   force =     0.01431648   -0.43894043  -48.00726350
     The core correction contribution to forces
     atom    1 type  1   force =     0.00000000    0.00000000    0.00000000
     atom    2 type  2   force =    -0.00004927    0.00048851    0.02119078
     atom    3 type  2   force =     0.00009946    0.00040887   -0.02088118
     atom    4 type  1   force =     0.00000000    0.00000000    0.00000000
     atom    5 type  2   force =    -0.00029250    0.00074733    0.02076880
     atom    6 type  2   force =     0.00017542   -0.00032212   -0.02075890
     atom    7 type  1   force =     0.00000000    0.00000000    0.00000000
     atom    8 type  2   force =    -0.00032904    0.00015611    0.02119615
     atom    9 type  2   force =     0.00063135    0.00081750   -0.02093372
     atom   10 type  1   force =     0.00000000    0.00000000    0.00000000
     atom   11 type  2   force =    -0.00014153   -0.00014856    0.02077187
     atom   12 type  2   force =     0.00064530    0.00098052   -0.02089885
     atom   13 type  1   force =     0.00000000    0.00000000    0.00000000
     atom   14 type  2   force =     0.00000526    0.00013547    0.02098537
     atom   15 type  2   force =    -0.00001035    0.00031019   -0.02074553
     atom   16 type  1   force =     0.00000000    0.00000000    0.00000000
     atom   17 type  2   force =     0.00032729    0.00072905    0.02075674
     atom   18 type  2   force =    -0.00018242   -0.00035138   -0.02075911
     atom   19 type  1   force =     0.00000000    0.00000000    0.00000000
     atom   20 type  2   force =    -0.00003648    0.00072216   -0.02126672
     atom   21 type  1   force =     0.00000000    0.00000000    0.00000000
     atom   22 type  2   force =     0.00018597   -0.00013024    0.02076928
     atom   23 type  2   force =    -0.00069430    0.00098624   -0.02088547
     atom   24 type  1   force =     0.00000000    0.00000000    0.00000000
     atom   25 type  2   force =     0.00002636    0.00050942    0.02119450
     atom   26 type  2   force =    -0.00009344    0.00037731   -0.02088369
     atom   27 type  1   force =     0.00000000    0.00000000    0.00000000
     atom   28 type  2   force =     0.00004409   -0.00022268   -0.00983899
     atom   29 type  2   force =     0.00000378    0.00029286   -0.02115115
     atom   30 type  1   force =     0.00000000    0.00000000    0.00000000
     atom   31 type  2   force =     0.00028319    0.00017180    0.02120367
     atom   32 type  2   force =    -0.00061650    0.00084745   -0.02094226
     atom   33 type  1   force =     0.00000000    0.00000000    0.00000000
     atom   34 type  2   force =    -0.00004069    0.00038068    0.02129880
     atom   35 type  2   force =     0.00005064    0.00080474   -0.02093778
     atom   36 type  3   force =    -0.00012078    0.00029135    0.02464967
     The Hubbard contrib.    to forces
     atom    1 type  1   force =     0.00000000    0.00000000    0.00000000
     atom    2 type  2   force =     0.00000000    0.00000000    0.00000000
     atom    3 type  2   force =     0.00000000    0.00000000    0.00000000
     atom    4 type  1   force =     0.00000000    0.00000000    0.00000000
     atom    5 type  2   force =     0.00000000    0.00000000    0.00000000
     atom    6 type  2   force =     0.00000000    0.00000000    0.00000000
     atom    7 type  1   force =     0.00000000    0.00000000    0.00000000
     atom    8 type  2   force =     0.00000000    0.00000000    0.00000000
     atom    9 type  2   force =     0.00000000    0.00000000    0.00000000
     atom   10 type  1   force =     0.00000000    0.00000000    0.00000000
     atom   11 type  2   force =     0.00000000    0.00000000    0.00000000
     atom   12 type  2   force =     0.00000000    0.00000000    0.00000000
     atom   13 type  1   force =     0.00000000    0.00000000    0.00000000
     atom   14 type  2   force =     0.00000000    0.00000000    0.00000000
     atom   15 type  2   force =     0.00000000    0.00000000    0.00000000
     atom   16 type  1   force =     0.00000000    0.00000000    0.00000000
     atom   17 type  2   force =     0.00000000    0.00000000    0.00000000
     atom   18 type  2   force =     0.00000000    0.00000000    0.00000000
     atom   19 type  1   force =     0.00000000    0.00000000    0.00000000
     atom   20 type  2   force =     0.00000000    0.00000000    0.00000000
     atom   21 type  1   force =     0.00000000    0.00000000    0.00000000
     atom   22 type  2   force =     0.00000000    0.00000000    0.00000000
     atom   23 type  2   force =     0.00000000    0.00000000    0.00000000
     atom   24 type  1   force =     0.00000000    0.00000000    0.00000000
     atom   25 type  2   force =     0.00000000    0.00000000    0.00000000
     atom   26 type  2   force =     0.00000000    0.00000000    0.00000000
     atom   27 type  1   force =     0.00000000    0.00000000    0.00000000
     atom   28 type  2   force =     0.00000000    0.00000000    0.00000000
     atom   29 type  2   force =     0.00000000    0.00000000    0.00000000
     atom   30 type  1   force =     0.00000000    0.00000000    0.00000000
     atom   31 type  2   force =     0.00000000    0.00000000    0.00000000
     atom   32 type  2   force =     0.00000000    0.00000000    0.00000000
     atom   33 type  1   force =     0.00000000    0.00000000    0.00000000
     atom   34 type  2   force =     0.00000000    0.00000000    0.00000000
     atom   35 type  2   force =     0.00000000    0.00000000    0.00000000
     atom   36 type  3   force =     0.00000000    0.00000000    0.00000000
     The SCF correction term to forces
     atom    1 type  1   force =     0.00003046   -0.00001158    0.00001341
     atom    2 type  2   force =     0.00000892    0.00001010    0.00001002
     atom    3 type  2   force =     0.00000579    0.00000321   -0.00000234
     atom    4 type  1   force =     0.00000311   -0.00003279    0.00003910
     atom    5 type  2   force =     0.00000393    0.00000199    0.00001039
     atom    6 type  2   force =     0.00000122   -0.00000494    0.00000858
     atom    7 type  1   force =    -0.00001800    0.00000482   -0.00000581
     atom    8 type  2   force =    -0.00000989   -0.00001225   -0.00000135
     atom    9 type  2   force =    -0.00000711    0.00000721    0.00000251
     atom   10 type  1   force =    -0.00001231    0.00002310   -0.00000813
     atom   11 type  2   force =     0.00000078    0.00000312   -0.00000980
     atom   12 type  2   force =    -0.00000017    0.00001256   -0.00000509
     atom   13 type  1   force =    -0.00001988   -0.00001481    0.00000084
     atom   14 type  2   force =     0.00000292    0.00000390   -0.00000053
     atom   15 type  2   force =    -0.00000355   -0.00001772   -0.00000624
     atom   16 type  1   force =     0.00000877    0.00000616    0.00002564
     atom   17 type  2   force =    -0.00000333    0.00000648   -0.00000030
     atom   18 type  2   force =    -0.00000625   -0.00000610    0.00001440
     atom   19 type  1   force =     0.00001604    0.00000215   -0.00000398
     atom   20 type  2   force =     0.00000494    0.00000573    0.00001363
     atom   21 type  1   force =    -0.00000435    0.00000915   -0.00002591
     atom   22 type  2   force =     0.00000430    0.00000397   -0.00001145
     atom   23 type  2   force =     0.00000590    0.00001413   -0.00000450
     atom   24 type  1   force =    -0.00000760   -0.00000257    0.00001542
     atom   25 type  2   force =    -0.00000708    0.00001082    0.00000074
     atom   26 type  2   force =    -0.00000686   -0.00000281    0.00000318
     atom   27 type  1   force =    -0.00000836   -0.00003741    0.00002157
     atom   28 type  2   force =    -0.00001039   -0.00003153   -0.00000198
     atom   29 type  2   force =     0.00000307   -0.00001560    0.00002158
     atom   30 type  1   force =    -0.00000528    0.00000156   -0.00000915
     atom   31 type  2   force =     0.00000747   -0.00001688   -0.00000625
     atom   32 type  2   force =     0.00000542    0.00000220    0.00000761
     atom   33 type  1   force =    -0.00000813    0.00003159   -0.00001017
     atom   34 type  2   force =     0.00000287    0.00001458   -0.00000258
     atom   35 type  2   force =    -0.00000250    0.00001879   -0.00001020
     atom   36 type  3   force =    -0.00003843   -0.00008065   -0.00000021

     Total force =     0.006717     Total SCF correction =     0.000157
     Energy error            =      9.0E-05 Ry
     Gradient error          =      2.2E-03 Ry/Bohr

     bfgs converged in  23 scf cycles and  22 bfgs steps
     (criteria: energy <  1.0E-04 Ry, force <  1.0E-02 Ry/Bohr)

     End of BFGS Geometry Optimization

     Final energy             =   -2246.4527939127 Ry

     File ./MoS2-V-O.bfgs deleted, as requested
Begin final coordinates

ATOMIC_POSITIONS (angstrom)
Mo            6.5587471276        1.7211659894        2.7520072927
S             8.1299176149        0.8197406116        4.3670967480
S             8.1237994144        0.7982142378        1.1610753049
Mo            8.0887966725        4.4865313768        2.6972838247
S             6.5221678784        3.6284427910        4.3021161614
S             6.5406086880        3.5224975712        1.0986843980
Mo            6.5134419368        7.1576596489        2.6737599295
S             8.0738133905        6.2738235054        4.3105251258
S             8.1284881443        6.3155567191        1.1035847982
Mo            8.1262850411        9.9066636888        2.7696504356
S             6.5176011679        8.9207702812        4.3312048464
S             6.5804539896        9.0001522716        1.1301146606
Mo            3.4191061663        1.7213149619        2.7533151347
S             4.9892781289        0.7844623851        4.3412395774
S             4.9883046285        0.7989683352        1.1620779663
Mo            4.9886693288        4.4880058713        2.6559750153
S             3.4565085353        3.6278360077        4.3027504048
S             3.4359645704        3.5202962193        1.1001707910
Mo            3.4635257982        7.1578795086        2.6786977231
S             4.9862811629        6.2810624105        1.0581263950
Mo            4.9885221989        9.8721906771        2.7345680371
S             3.4617231033        8.9222539060        4.3352952491
S             3.3936583176        9.0000092519        1.1362759969
Mo            0.2596997375        1.6759582977        2.7490038658
S             1.8454483442        0.8211669668        4.3702780696
S             1.8535197899        0.7964737753        1.1632533409
Mo            1.8887050276        4.4871057403        2.6990677746
S             0.2579854061        3.5751515135        4.2203130943
S             0.2609298724        3.5365000492        1.1631544146
Mo            0.2592704963        7.1804919914        2.7424141423
S             1.8998603013        6.2752207013        4.3137096952
S             1.8492568383        6.3169232428        1.1059880641
Mo            1.8502508879        9.9064797248        2.7751481923
S             0.2577537583        8.9930242217        4.3652875580
S             0.2626162869        9.0200459010        1.1790531617
O             0.2513872600        3.5995505019        5.7180726820
End final coordinates



     Writing all to output data dir ./MoS2-V-O.save/
 
     init_run     :      4.63s CPU      5.12s WALL (       1 calls)
     electrons    :   2179.59s CPU   2485.43s WALL (      23 calls)
     update_pot   :     71.41s CPU     76.72s WALL (      22 calls)
     forces       :     70.42s CPU     81.75s WALL (      23 calls)

     Called by init_run:
     wfcinit      :      0.50s CPU      0.56s WALL (       1 calls)
     potinit      :      2.36s CPU      2.60s WALL (       1 calls)
     hinit0       :      0.45s CPU      0.48s WALL (       1 calls)

     Called by electrons:
     c_bands      :    315.66s CPU    322.86s WALL (     209 calls)
     sum_band     :    130.16s CPU    186.77s WALL (     209 calls)
     v_of_rho     :    274.99s CPU    331.96s WALL (     224 calls)
     newd         :     83.24s CPU    127.61s WALL (     224 calls)
     PAW_pot      :      8.88s CPU      8.92s WALL (     246 calls)
     mix_rho      :   1395.44s CPU   1540.55s WALL (     209 calls)

     Called by c_bands:
     init_us_2    :      4.79s CPU      5.14s WALL (     441 calls)
     init_us_2:cp :      4.79s CPU      5.14s WALL (     441 calls)
     regterg      :    300.08s CPU    306.93s WALL (     209 calls)

     Called by *egterg:
     rdiaghg      :     19.47s CPU     19.71s WALL (    1084 calls)
     h_psi        :    197.61s CPU    199.21s WALL (    1115 calls)
     s_psi        :     17.31s CPU     17.37s WALL (    1115 calls)
     g_psi        :      1.04s CPU      1.05s WALL (     905 calls)

     Called by h_psi:
     h_psi:calbec :     19.75s CPU     19.86s WALL (    1115 calls)
     vloc_psi     :    158.29s CPU    159.67s WALL (    1115 calls)
     add_vuspsi   :     17.18s CPU     17.27s WALL (    1115 calls)

     General routines
     calbec       :     28.71s CPU     28.90s WALL (    1438 calls)
     fft          :    182.79s CPU    204.65s WALL (   15005 calls)
     ffts         :    622.16s CPU    761.82s WALL (  336623 calls)
     fftw         :    108.57s CPU    109.43s WALL (  128936 calls)
     interpolate  :      2.78s CPU      3.20s WALL (     224 calls)
 
     Parallel routines
 
     PWSCF        :  38m57.39s CPU  44m26.13s WALL

 
   This run was terminated on:  14: 9:33   1Nov2023            

=------------------------------------------------------------------------------=
   JOB DONE.
=------------------------------------------------------------------------------=
