
     Program PWSCF v.7.2 starts on  1Nov2023 at 18:57: 4 

     This program is part of the open-source Quantum ESPRESSO suite
     for quantum simulation of materials; please cite
         "P. Giannozzi et al., J. Phys.:Condens. Matter 21 395502 (2009);
         "P. Giannozzi et al., J. Phys.:Condens. Matter 29 465901 (2017);
         "P. Giannozzi et al., J. Chem. Phys. 152 154105 (2020);
          URL http://www.quantum-espresso.org", 
     in publications or presentations arising from this work. More details at
     http://www.quantum-espresso.org/quote

     Parallel version (MPI & OpenMP), running on      48 processor cores
     Number of MPI processes:                48
     Threads/MPI process:                     1

     MPI processes distributed on     1 nodes
     151736 MiB available memory on the printing compute node when the environment starts
 
     Waiting for input...
     Reading input from standard input
Warning: card &CELL ignored
Warning: card CELL_DYNAMICS = 'BFGS', ignored
Warning: card CELL_DOFREE = '2DXY' ignored
Warning: card / ignored

     Current dimensions of program PWSCF are:
     Max number of different atomic species (ntypx) = 10
     Max number of k-points (npk) =  40000
     Max angular momentum in pseudopotentials (lmaxx) =  4
     file O.pbe-n-kjpaw_psl.0.1.UPF: wavefunction(s)  2P renormalized

     IMPORTANT: XC functional enforced from input :
     Exchange-correlation= RVV10
                           (   1   4  13   4  26   0   0)
     Any further DFT definition will be discarded
     Please, verify this is what you really want


     gamma-point specific algorithms are used
     signal trapping enabled: kill the code with -SIGUSR1 to stop cleanly the simulation 
 
     R & G space division:  proc/nbgrp/npool/nimage =      48
     Subspace diagonalization in iterative solution of the eigenvalue problem:
     one sub-group per band group will be used
     scalapack distributed-memory algorithm (size of sub-group:  2*  2 procs)

 
     Parallelization info
     --------------------
     sticks:   dense  smooth     PW     G-vecs:    dense   smooth      PW
     Min         396     194     47               101632    35090    4376
     Max         398     196     50               101674    35128    4410
     Sum       19091    9389   2349              4879585  1685513  210763
 
     Using Slab Decomposition
 


     bravais-lattice index     =            0
     lattice parameter (alat)  =      17.8707  a.u.
     unit-cell volume          =   17436.2743 (a.u.)^3
     number of atoms/cell      =           36
     number of atomic types    =            3
     number of electrons       =       312.00
     number of Kohn-Sham states=          187
     kinetic-energy cutoff     =      80.0000  Ry
     charge density cutoff     =     650.0000  Ry
     scf convergence threshold =      1.0E-06
     mixing beta               =       0.7000
     number of iterations used =            8  local-TF  mixing
     energy convergence thresh.=      1.0E-04
     force convergence thresh. =      1.0E-02
     Exchange-correlation= RVV10
                           (   1   4  13   4  26   0   0)
     nstep                     =          200


     celldm(1)=  17.870686  celldm(2)=   0.000000  celldm(3)=   0.000000
     celldm(4)=   0.000000  celldm(5)=   0.000000  celldm(6)=   0.000000

     crystal axes: (cart. coord. in units of alat)
               a(1) = (   1.000000   0.000000   0.000000 )  
               a(2) = (   0.000000   1.155671   0.000000 )  
               a(3) = (   0.000000   0.000000   2.643601 )  

     reciprocal axes: (cart. coord. in units 2 pi/alat)
               b(1) = (  1.000000  0.000000  0.000000 )  
               b(2) = (  0.000000  0.865298  0.000000 )  
               b(3) = (  0.000000  0.000000  0.378272 )  


     PseudoPot. # 1 for Mo read from file:
     ../pseudo/Mo_ONCV_PBE-1.0.oncvpsp.upf
     MD5 check sum: 1b5d28e075c9ccadda658a603575cd1f
     Pseudo is Norm-conserving, Zval = 14.0
     Generated using ONCVPSP code by D. R. Hamann
     Using radial grid of 1526 points,  6 beta functions with: 
                l(1) =   0
                l(2) =   0
                l(3) =   1
                l(4) =   1
                l(5) =   2
                l(6) =   2

     PseudoPot. # 2 for S  read from file:
     ../pseudo/s_pbe_v1.4.uspp.F.UPF
     MD5 check sum: 88d86576ff6df21479756cfb9bdac1df
     Pseudo is Ultrasoft + core correction, Zval =  6.0
     Generated by new atomic code, or converted to UPF format
     Using radial grid of  907 points,  6 beta functions with: 
                l(1) =   0
                l(2) =   0
                l(3) =   1
                l(4) =   1
                l(5) =   2
                l(6) =   2
     Q(r) pseudized with  8 coefficients,  rinner =    1.300   1.300   1.300
                                                       1.300   1.300

     PseudoPot. # 3 for O  read from file:
     ../pseudo/O.pbe-n-kjpaw_psl.0.1.UPF
     MD5 check sum: 0234752ac141de4415c5fc33072bef88
     Pseudo is Projector augmented-wave + core cor, Zval =  6.0
     Generated using "atomic" code by A. Dal Corso  v.5.0.99 svn rev. 10869
     Shape of augmentation charge: BESSEL
     Using radial grid of 1095 points,  4 beta functions with: 
                l(1) =   0
                l(2) =   0
                l(3) =   1
                l(4) =   1
     Q(r) pseudized with 0 coefficients 


     atomic species   valence    mass     pseudopotential
        Mo            14.00    95.94000     Mo( 1.00)
        S              6.00    32.06500     S ( 1.00)
        O              6.00    15.99940     O ( 1.00)

     No symmetry found



   Cartesian axes

     site n.     atom                  positions (alat units)
         1           Mo  tau(   1) = (   0.6952221   0.1890506   0.2985846  )
         2           S   tau(   2) = (   0.8646417   0.0856217   0.4689279  )
         3           S   tau(   3) = (   0.8663890   0.0857843   0.1351291  )
         4           Mo  tau(   4) = (   0.8560186   0.4753274   0.2873942  )
         5           S   tau(   5) = (   0.6873294   0.3936244   0.4596353  )
         6           S   tau(   6) = (   0.6929804   0.3713468   0.1185692  )
         7           Mo  tau(   7) = (   0.6862796   0.7633098   0.2825370  )
         8           S   tau(   8) = (   0.8545980   0.6708292   0.4486168  )
         9           S   tau(   9) = (   0.8545123   0.6666874   0.1146125  )
        10           Mo  tau(  10) = (   0.8629403   1.0471007   0.3006803  )
        11           S   tau(  11) = (   0.6868280   0.9456650   0.4634891  )
        12           S   tau(  12) = (   0.6998113   0.9568511   0.1205389  )
        13           Mo  tau(  13) = (   0.3618216   0.1847309   0.2935964  )
        14           S   tau(  14) = (   0.5260962   0.0863870   0.4600448  )
        15           S   tau(  15) = (   0.5348379   0.0894875   0.1297123  )
        16           Mo  tau(  16) = (   0.5265817   0.4772436   0.2784130  )
        17           S   tau(  17) = (   0.3624753   0.3882513   0.4525556  )
        18           S   tau(  18) = (   0.3635411   0.3752055   0.1119148  )
        19           Mo  tau(  19) = (   0.3652268   0.7630864   0.2781795  )
        20           S   tau(  20) = (   0.5269494   0.6690381   0.1096838  )
        21           Mo  tau(  21) = (   0.5300192   1.0470394   0.2900995  )
        22           S   tau(  22) = (   0.3670346   0.9457522   0.4574073  )
        23           S   tau(  23) = (   0.3604225   0.9585725   0.1159032  )
        24           Mo  tau(  24) = (   0.0313099   0.1847895   0.3013130  )
        25           S   tau(  25) = (   0.1956761   0.0838230   0.4650863  )
        26           S   tau(  26) = (   0.1967693   0.0903508   0.1278874  )
        27           Mo  tau(  27) = (   0.1967578   0.4753919   0.2813011  )
        28           S   tau(  28) = (   0.0287851   0.3864324   0.4586755  )
        29           S   tau(  29) = (   0.0244514   0.3729871   0.1239344  )
        30           Mo  tau(  30) = (   0.0286728   0.7631204   0.2856894  )
        31           S   tau(  31) = (   0.2011512   0.6675435   0.4465001  )
        32           S   tau(  32) = (   0.1969214   0.6672839   0.1104564  )
        33           Mo  tau(  33) = (   0.1950294   1.0511147   0.2932237  )
        34           S   tau(  34) = (   0.0312912   0.9612169   0.4667423  )
        35           S   tau(  35) = (   0.0292670   0.9563028   0.1216485  )
        36           O   tau(  36) = (   0.2222222   0.7704471   0.5792558  )

     number of k points=     1  Gaussian smearing, width (Ry)=  0.0100
                       cart. coord. in units 2pi/alat
        k(    1) = (   0.0000000   0.0000000   0.0000000), wk =   2.0000000

     Dense  grid:  2439793 G-vectors     FFT dimensions: ( 150, 180, 384)

     Smooth grid:   842757 G-vectors     FFT dimensions: ( 108, 120, 270)

     Estimated max dynamical RAM per process >     269.22 MB

     Estimated total dynamical RAM >      12.62 GB

     Initial potential from superposition of free atoms

     starting charge     311.9873, renormalised to     312.0000

     negative rho (up, down):  2.753E-04 0.000E+00


---------------------------------------------------------------------------------
Carrying out rVV10 run using the following parameters:
Nqs =      20    Nr_points =    1024   r_max =   100.000
b_value =  6.30000    beta =  0.00901
     q_mesh =  0.00010000  0.00030000  0.00058939  0.00100810
               0.00161396  0.00249058  0.00375900  0.00559430
               0.00824984  0.01209221  0.01765183  0.02569619
               0.03733578  0.05417739  0.07854596  0.11380545
               0.16482331  0.23864234  0.34545298  0.50000000

Gradients computed in Reciprocal space

---------------------------------------------------------------------------------


     Starting wfcs are  216 randomized atomic wfcs
     Checking if some PAW data can be deallocated... 

     total cpu time spent up to now is        5.1 secs

     Self-consistent Calculation

     iteration #  1     ecut=    80.00 Ry     beta= 0.70
     Davidson diagonalization with overlap
     ethr =  1.00E-02,  avg # of iterations =  2.0

     Threshold (ethr) on eigenvalues was too large:
     Diagonalizing with lowered threshold

     Davidson diagonalization with overlap
     ethr =  4.36E-04,  avg # of iterations =  4.0

     negative rho (up, down):  2.796E-08 0.000E+00

     total cpu time spent up to now is       18.6 secs

     total energy              =   -2246.30420925 Ry
     estimated scf accuracy    <       1.60547039 Ry

     iteration #  2     ecut=    80.00 Ry     beta= 0.70
     Davidson diagonalization with overlap
     ethr =  5.15E-04,  avg # of iterations =  3.0

     total cpu time spent up to now is       23.0 secs

     total energy              =   -2246.30330880 Ry
     estimated scf accuracy    <       0.56963704 Ry

     iteration #  3     ecut=    80.00 Ry     beta= 0.70
     Davidson diagonalization with overlap
     ethr =  1.83E-04,  avg # of iterations =  2.0

     total cpu time spent up to now is       26.6 secs

     total energy              =   -2246.30053097 Ry
     estimated scf accuracy    <       0.14897911 Ry

     iteration #  4     ecut=    80.00 Ry     beta= 0.70
     Davidson diagonalization with overlap
     ethr =  4.77E-05,  avg # of iterations = 10.0

     total cpu time spent up to now is       30.9 secs

     total energy              =   -2246.32878091 Ry
     estimated scf accuracy    <       0.02410208 Ry

     iteration #  5     ecut=    80.00 Ry     beta= 0.70
     Davidson diagonalization with overlap
     ethr =  7.73E-06,  avg # of iterations =  8.0

     total cpu time spent up to now is       34.8 secs

     total energy              =   -2246.32895887 Ry
     estimated scf accuracy    <       0.01420844 Ry

     iteration #  6     ecut=    80.00 Ry     beta= 0.70
     Davidson diagonalization with overlap
     ethr =  4.55E-06,  avg # of iterations =  2.0

     total cpu time spent up to now is       38.3 secs

     total energy              =   -2246.32826112 Ry
     estimated scf accuracy    <       0.00921020 Ry

     iteration #  7     ecut=    80.00 Ry     beta= 0.70
     Davidson diagonalization with overlap
     ethr =  2.95E-06,  avg # of iterations =  2.0

     negative rho (up, down):  9.730E-08 0.000E+00

     total cpu time spent up to now is       44.0 secs

     total energy              =   -2246.32721567 Ry
     estimated scf accuracy    <       0.00557544 Ry

     iteration #  8     ecut=    80.00 Ry     beta= 0.70
     Davidson diagonalization with overlap
     ethr =  1.79E-06,  avg # of iterations = 11.0

     negative rho (up, down):  9.965E-03 0.000E+00

     total cpu time spent up to now is       50.6 secs

     total energy              =   -2246.32675684 Ry
     estimated scf accuracy    <       0.00307368 Ry

     iteration #  9     ecut=    80.00 Ry     beta= 0.70
     Davidson diagonalization with overlap
     ethr =  9.85E-07,  avg # of iterations =  2.0

     negative rho (up, down):  2.242E-02 0.000E+00

     total cpu time spent up to now is       56.3 secs

     total energy              =   -2246.32658353 Ry
     estimated scf accuracy    <       0.00164337 Ry

     iteration # 10     ecut=    80.00 Ry     beta= 0.70
     Davidson diagonalization with overlap
     ethr =  5.27E-07,  avg # of iterations =  2.0

     negative rho (up, down):  2.145E-02 0.000E+00

     total cpu time spent up to now is       62.4 secs

     total energy              =   -2246.32665188 Ry
     estimated scf accuracy    <       0.00063674 Ry

     iteration # 11     ecut=    80.00 Ry     beta= 0.70
     Davidson diagonalization with overlap
     ethr =  2.04E-07,  avg # of iterations =  2.0

     negative rho (up, down):  1.012E-02 0.000E+00

     total cpu time spent up to now is       70.0 secs

     total energy              =   -2246.32663352 Ry
     estimated scf accuracy    <       0.00010701 Ry

     iteration # 12     ecut=    80.00 Ry     beta= 0.70
     Davidson diagonalization with overlap
     ethr =  3.43E-08,  avg # of iterations =  8.0

     negative rho (up, down):  3.687E-03 0.000E+00

     total cpu time spent up to now is       79.7 secs

     total energy              =   -2246.32668787 Ry
     estimated scf accuracy    <       0.00003926 Ry

     iteration # 13     ecut=    80.00 Ry     beta= 0.70
     Davidson diagonalization with overlap
     ethr =  1.26E-08,  avg # of iterations =  2.0

     negative rho (up, down):  7.784E-04 0.000E+00

     total cpu time spent up to now is       89.5 secs

     total energy              =   -2246.32670072 Ry
     estimated scf accuracy    <       0.00001042 Ry

     iteration # 14     ecut=    80.00 Ry     beta= 0.70
     Davidson diagonalization with overlap
     ethr =  3.34E-09,  avg # of iterations =  2.0

     negative rho (up, down):  5.080E-04 0.000E+00

     total cpu time spent up to now is       98.5 secs

     total energy              =   -2246.32670472 Ry
     estimated scf accuracy    <       0.00000309 Ry

     iteration # 15     ecut=    80.00 Ry     beta= 0.70
     Davidson diagonalization with overlap
     ethr =  9.90E-10,  avg # of iterations =  2.0

     negative rho (up, down):  2.658E-04 0.000E+00

     total cpu time spent up to now is      106.3 secs

     total energy              =   -2246.32670742 Ry
     estimated scf accuracy    <       0.00000109 Ry

     iteration # 16     ecut=    80.00 Ry     beta= 0.70
     Davidson diagonalization with overlap
     ethr =  3.51E-10,  avg # of iterations =  4.0

     negative rho (up, down):  1.974E-04 0.000E+00

     total cpu time spent up to now is      109.6 secs

     End of self-consistent calculation

          k = 0.0000 0.0000 0.0000 (105382 PWs)   bands (ev):

   -63.0796 -63.0013 -62.9926 -62.9669 -62.9407 -62.9350 -62.9219 -62.9137
   -62.9083 -62.8943 -62.8344 -62.7969 -37.3769 -37.3127 -37.2961 -37.2785
   -37.2755 -37.2458 -37.2100 -37.1983 -37.1905 -37.1756 -37.1680 -37.1675
   -37.1606 -37.1482 -37.1247 -37.1225 -37.1122 -37.1057 -37.0956 -37.0917
   -37.0823 -37.0754 -37.0742 -37.0445 -37.0323 -37.0269 -37.0155 -36.9997
   -36.9882 -36.9593 -36.9533 -36.9356 -36.9260 -36.9112 -36.8796 -36.7952
   -21.3951 -16.0441 -15.3184 -15.1991 -15.0211 -15.0071 -14.8803 -14.6571
   -14.5583 -14.5231 -14.4941 -14.4703 -14.4246 -14.4056 -14.3401 -14.2676
   -14.2327 -14.2099 -14.1469 -14.0365 -13.9674 -13.9287 -13.9198 -13.9053
    -7.9939  -7.7452  -7.6396  -7.5871  -7.4288  -7.3684  -7.3128  -7.2910
    -7.2368  -7.0393  -6.9947  -6.9126  -6.8467  -6.8128  -6.7034  -6.6465
    -6.5206  -6.4959  -6.3855  -6.3647  -6.1640  -6.1150  -6.0141  -5.9750
    -5.9199  -5.8730  -5.8355  -5.8046  -5.7797  -5.7448  -5.6857  -5.6566
    -5.6322  -5.5974  -5.5757  -5.3159  -5.2664  -5.2536  -5.1341  -5.0959
    -5.0850  -5.0251  -5.0027  -4.8471  -4.7978  -4.6828  -4.4320  -4.4029
    -4.3637  -4.2696  -4.2228  -4.1469  -4.1129  -4.0270  -3.9015  -3.8633
    -3.8334  -3.8097  -3.7415  -3.6797  -3.6464  -3.5929  -3.5793  -3.5587
    -3.5132  -3.4903  -3.3964  -3.2721  -3.1314  -3.0204  -2.9956  -2.9415
    -2.9006  -2.8747  -2.8177  -2.7613  -2.7508  -2.7154  -2.5281  -2.4315
    -2.3342  -2.1205  -2.0702  -1.9507  -1.1057  -0.8686  -0.5528  -0.2884
    -0.2510  -0.1883  -0.1278  -0.0636   0.0290   0.1138   0.1353   0.1758
     0.1987   0.2261   0.2929   0.3775   0.4203   0.4679   0.4930   0.5161
     0.5964   0.6390   0.6558   0.7005   0.7067   0.7394   0.7951   0.8530
     0.9039   0.9692   1.1603

     the Fermi energy is    -1.5282 ev

!    total energy              =   -2246.32670711 Ry
     estimated scf accuracy    <       0.00000039 Ry
     smearing contrib. (-TS)   =      -0.00000073 Ry
     internal energy E=F+TS    =   -2246.32670638 Ry

     The total energy is F=E-TS. E is the sum of the following terms:
     one-electron contribution =  -18428.35506800 Ry
     hartree contribution      =    9201.88766523 Ry
     xc contribution           =    -392.01359289 Ry
     ewald contribution        =    7382.01811724 Ry
     one-center paw contrib.   =      -9.86382796 Ry

     convergence has been achieved in  16 iterations

     negative rho (up, down):  1.974E-04 0.000E+00

     Forces acting on atoms (cartesian axes, Ry/au):

     atom    1 type  1   force =     0.01314951   -0.02393050    0.00386735
     atom    2 type  2   force =    -0.01492996    0.01593238   -0.00037335
     atom    3 type  2   force =    -0.01153161    0.00923435   -0.00130715
     atom    4 type  1   force =     0.00312638    0.00551483   -0.00066925
     atom    5 type  2   force =    -0.00037130   -0.00659120   -0.00673707
     atom    6 type  2   force =    -0.00017147    0.01063958    0.00039873
     atom    7 type  1   force =     0.00870471   -0.01894979   -0.00953169
     atom    8 type  2   force =    -0.00171657   -0.00298735    0.01602055
     atom    9 type  2   force =     0.00914150    0.00449879    0.01252083
     atom   10 type  1   force =    -0.00986769    0.00932080   -0.02875680
     atom   11 type  2   force =     0.00276713   -0.00123701   -0.00539100
     atom   12 type  2   force =    -0.00215381   -0.00095227    0.00527202
     atom   13 type  1   force =     0.00514573    0.00368638   -0.00535449
     atom   14 type  2   force =     0.00807990   -0.00198385    0.01288927
     atom   15 type  2   force =    -0.01213165    0.00323344   -0.00806413
     atom   16 type  1   force =     0.00465133    0.01572630    0.00764739
     atom   17 type  2   force =     0.01012547   -0.00595801   -0.00014380
     atom   18 type  2   force =    -0.00495949   -0.00685629    0.01006727
     atom   19 type  1   force =     0.01578864   -0.00641653   -0.03634028
     atom   20 type  2   force =     0.00501074   -0.00528280    0.00055199
     atom   21 type  1   force =    -0.00444463    0.01001257   -0.00808802
     atom   22 type  2   force =     0.00172735   -0.00232792   -0.01238265
     atom   23 type  2   force =    -0.00142780    0.00288023    0.01112165
     atom   24 type  1   force =    -0.01019797   -0.00310360   -0.01933362
     atom   25 type  2   force =     0.01609476    0.01889728    0.00755959
     atom   26 type  2   force =    -0.01098414    0.00367912   -0.00600105
     atom   27 type  1   force =    -0.00203548   -0.02130941    0.02969092
     atom   28 type  2   force =    -0.00278101   -0.00680463   -0.00487551
     atom   29 type  2   force =     0.00603081   -0.00014724   -0.00458531
     atom   30 type  1   force =    -0.00747252    0.00802022   -0.01241119
     atom   31 type  2   force =     0.00911023    0.14058419    0.03797600
     atom   32 type  2   force =    -0.00878106    0.00573488    0.00959205
     atom   33 type  1   force =     0.01350334   -0.00923433   -0.00585752
     atom   34 type  2   force =     0.00173043   -0.04066765   -0.01456864
     atom   35 type  2   force =    -0.00563506    0.00833689    0.01506267
     atom   36 type  3   force =    -0.02229471   -0.11119183    0.01053425
     The non-local contrib.  to forces
     atom    1 type  1   force =    -0.00070968    0.03008485   -0.00938719
     atom    2 type  2   force =    -0.00799438    0.00125128   -0.27670982
     atom    3 type  2   force =    -0.01303058    0.00049170    0.26695671
     atom    4 type  1   force =    -0.00156762    0.00659056    0.00602005
     atom    5 type  2   force =     0.00553669   -0.03114578   -0.25559028
     atom    6 type  2   force =    -0.00273890    0.01400979    0.26278412
     atom    7 type  1   force =    -0.01965766    0.00769699   -0.01913757
     atom    8 type  2   force =     0.00542511   -0.00448522   -0.26039981
     atom    9 type  2   force =     0.00387629   -0.00995418    0.27623266
     atom   10 type  1   force =     0.00242591    0.00044725    0.00316550
     atom   11 type  2   force =     0.01642943    0.00258821   -0.26154372
     atom   12 type  2   force =    -0.01348158   -0.01996233    0.26271420
     atom   13 type  1   force =     0.00744556    0.01441307   -0.00796316
     atom   14 type  2   force =     0.00847696   -0.01099656   -0.26641527
     atom   15 type  2   force =    -0.01471761   -0.00370763    0.26027296
     atom   16 type  1   force =    -0.00041015    0.02823343   -0.02982222
     atom   17 type  2   force =    -0.00196979   -0.02803727   -0.25075616
     atom   18 type  2   force =    -0.00738564   -0.00476934    0.27803298
     atom   19 type  1   force =     0.00211974   -0.00369263    0.01148126
     atom   20 type  2   force =     0.00233421   -0.02360177    0.26608959
     atom   21 type  1   force =    -0.00321836    0.01835907    0.01072891
     atom   22 type  2   force =    -0.01761126    0.01000446   -0.24435401
     atom   23 type  2   force =     0.00384481   -0.01498458    0.26756571
     atom   24 type  1   force =    -0.00190062    0.00706411   -0.01029906
     atom   25 type  2   force =     0.00978298    0.00730571   -0.26280242
     atom   26 type  2   force =    -0.00263056   -0.00998068    0.26367820
     atom   27 type  1   force =    -0.00215658    0.02232686   -0.00674027
     atom   28 type  2   force =     0.00036076   -0.02245288   -0.27638408
     atom   29 type  2   force =     0.01413484    0.00080029    0.26569412
     atom   30 type  1   force =     0.00886648   -0.00144978    0.02446466
     atom   31 type  2   force =     0.05147714    0.21775350    0.30889990
     atom   32 type  2   force =    -0.00478169   -0.01123116    0.27796173
     atom   33 type  1   force =    -0.00243138    0.00940454    0.00733519
     atom   34 type  2   force =    -0.00886558   -0.02299771   -0.27652046
     atom   35 type  2   force =    -0.00112632   -0.00967231    0.26868534
     atom   36 type  3   force =    -0.27259522   -1.24906524   -1.42718517
     The ionic contribution  to forces
     atom    1 type  1   force =     0.43329059    0.23594134    4.79650392
     atom    2 type  2   force =    -0.83028166    0.63152293   39.07434141
     atom    3 type  2   force =    -0.22265190    0.09976809  -36.58198223
     atom    4 type  1   force =    -0.39327069   -0.13265051   -0.68519800
     atom    5 type  2   force =    -0.89982974    1.18473565   38.51045505
     atom    6 type  2   force =     0.36071321   -0.60756476  -38.53035145
     atom    7 type  1   force =    -2.35108125   -2.79928757    0.94045003
     atom    8 type  2   force =    -1.79531540   -0.30637920   36.82894237
     atom    9 type  2   force =     0.20686811   -0.12207092  -38.71004637
     atom   10 type  1   force =    -1.68110475    0.46636225    4.26790120
     atom   11 type  2   force =    -0.39303596   -1.25508163   38.80115898
     atom   12 type  2   force =     0.46449376    0.81309795  -38.46976506
     atom   13 type  1   force =     0.70266264    1.02658022    1.72070063
     atom   14 type  2   force =     0.26490589    0.25550749   38.28009508
     atom   15 type  2   force =     0.22531431    0.02197909  -37.31254778
     atom   16 type  1   force =     0.60920326    3.10910308   -1.05062352
     atom   17 type  2   force =     1.13285224    0.66469748   37.48893310
     atom   18 type  2   force =    -0.09180795   -0.82193131  -39.18370719
     atom   19 type  1   force =     4.45874451   -2.53630082   -3.88472933
     atom   20 type  2   force =     0.40385849   -0.29280733  -39.24565383
     atom   21 type  1   force =     0.75059521    0.94366268   -0.40277269
     atom   22 type  2   force =     2.22053100    0.48996676   36.77816547
     atom   23 type  2   force =     0.05425817    0.89329594  -39.18549061
     atom   24 type  1   force =    -0.82271266    1.17629763    4.76257739
     atom   25 type  2   force =     0.61358141    0.79555303   38.95512528
     atom   26 type  2   force =    -0.30099885    0.18918117  -37.91531536
     atom   27 type  1   force =    -0.11757904   -1.27827968   -4.66286098
     atom   28 type  2   force =    -0.31445539    0.29456071   37.82707405
     atom   29 type  2   force =    -0.35323887   -0.59772308  -37.86394007
     atom   30 type  1   force =    -2.27614302   -0.97791401   -3.86848913
     atom   31 type  2   force =     0.26763271   -4.77471897   31.10891844
     atom   32 type  2   force =    -0.51649495   -0.17065778  -39.71733742
     atom   33 type  1   force =     0.61524126    1.03669161   -0.53188288
     atom   34 type  2   force =    -1.29721969    0.18111029   38.28639055
     atom   35 type  2   force =    -0.47465756    0.68853206  -38.66409733
     atom   36 type  3   force =     1.34713253    1.47522013   48.03905830
     The local contribution  to forces
     atom    1 type  1   force =    -0.41941279   -0.28989109   -4.78371320
     atom    2 type  2   force =     0.82320031   -0.61666040  -38.81914140
     atom    3 type  2   force =     0.22359288   -0.09086709   36.33401921
     atom    4 type  1   force =     0.39794437    0.13149596    0.67796252
     atom    5 type  2   force =     0.89453391   -1.16195736  -38.28216649
     atom    6 type  2   force =    -0.35846583    0.60539692   38.28840018
     atom    7 type  1   force =     2.37952676    2.77259786   -0.93141875
     atom    8 type  2   force =     1.78824573    0.30722036  -36.57338204
     atom    9 type  2   force =    -0.20168805    0.13592976   38.46687529
     atom   10 type  1   force =     1.66866222   -0.45740510   -4.30042523
     atom   11 type  2   force =     0.38016998    1.25161978  -38.56588997
     atom   12 type  2   force =    -0.45433693   -0.79566321   38.23272602
     atom   13 type  1   force =    -0.70496590   -1.03723169   -1.71859897
     atom   14 type  2   force =    -0.26485348   -0.24649581  -38.02168361
     atom   15 type  2   force =    -0.22352819   -0.01524586   37.06429610
     atom   16 type  1   force =    -0.60398489   -3.12171039    1.08745920
     atom   17 type  2   force =    -1.12105569   -0.64413149  -37.25869592
     atom   18 type  2   force =     0.09396242    0.82025626   38.93654363
     atom   19 type  1   force =    -4.44480397    2.53354595    3.83597698
     atom   20 type  2   force =    -0.40108179    0.31012758   39.00085032
     atom   21 type  1   force =    -0.75167967   -0.95190516    0.38334482
     atom   22 type  2   force =    -2.20126533   -0.50074597  -36.56673126
     atom   23 type  2   force =    -0.05912914   -0.87660992   38.94936957
     atom   24 type  1   force =     0.81441201   -1.18634531   -4.77212624
     atom   25 type  2   force =    -0.60716069   -0.78323538  -38.70568851
     atom   26 type  2   force =     0.29278271   -0.17594914   37.66608529
     atom   27 type  1   force =     0.11755179    1.23429772    4.69846309
     atom   28 type  2   force =     0.31132189   -0.28061113  -37.57669983
     atom   29 type  2   force =     0.34608883    0.59734221   37.61390769
     atom   30 type  1   force =     2.25947881    0.98725866    3.83068660
     atom   31 type  2   force =    -0.30708718    4.71062798  -31.36965768
     atom   32 type  2   force =     0.51247661    0.18685508   39.46975571
     atom   33 type  1   force =    -0.59931780   -1.05501778    0.51793959
     atom   34 type  2   force =     1.30660094   -0.19883257  -38.04617130
     atom   35 type  2   force =     0.47026783   -0.67137597   38.43092052
     atom   36 type  3   force =    -1.09995868   -0.35133982  -46.61659289
     The core correction contribution to forces
     atom    1 type  1   force =     0.00000000    0.00000000    0.00000000
     atom    2 type  2   force =     0.00013465   -0.00012240    0.02107553
     atom    3 type  2   force =     0.00056466   -0.00013184   -0.02074627
     atom    4 type  1   force =     0.00000000    0.00000000    0.00000000
     atom    5 type  2   force =    -0.00058412    0.00175355    0.02052029
     atom    6 type  2   force =     0.00034371   -0.00122889   -0.02087164
     atom    7 type  1   force =     0.00000000    0.00000000    0.00000000
     atom    8 type  2   force =    -0.00021526    0.00060589    0.02077401
     atom    9 type  2   force =     0.00006304    0.00059191   -0.02098016
     atom   10 type  1   force =     0.00000000    0.00000000    0.00000000
     atom   11 type  2   force =    -0.00078404   -0.00038887    0.02079903
     atom   12 type  2   force =     0.00118488    0.00155494   -0.02083429
     atom   13 type  1   force =     0.00000000    0.00000000    0.00000000
     atom   14 type  2   force =    -0.00043694    0.00004642    0.02083662
     atom   15 type  2   force =     0.00080482    0.00022699   -0.02053860
     atom   16 type  1   force =     0.00000000    0.00000000    0.00000000
     atom   17 type  2   force =     0.00030428    0.00138624    0.02031862
     atom   18 type  2   force =     0.00022868   -0.00045341   -0.02124904
     atom   19 type  1   force =     0.00000000    0.00000000    0.00000000
     atom   20 type  2   force =    -0.00002964    0.00099675   -0.02120116
     atom   21 type  1   force =     0.00000000    0.00000000    0.00000000
     atom   22 type  2   force =     0.00019483   -0.00139825    0.02045673
     atom   23 type  2   force =    -0.00038781    0.00123315   -0.02084835
     atom   24 type  1   force =     0.00000000    0.00000000    0.00000000
     atom   25 type  2   force =    -0.00011242   -0.00063005    0.02086742
     atom   26 type  2   force =    -0.00015785    0.00046035   -0.02090513
     atom   27 type  1   force =     0.00000000    0.00000000    0.00000000
     atom   28 type  2   force =    -0.00004422    0.00161546    0.02105939
     atom   29 type  2   force =    -0.00093610   -0.00058270   -0.02067411
     atom   30 type  1   force =     0.00000000    0.00000000    0.00000000
     atom   31 type  2   force =    -0.00296169   -0.01326904   -0.01034536
     atom   32 type  2   force =    -0.00003218    0.00070413   -0.02133423
     atom   33 type  1   force =     0.00000000    0.00000000    0.00000000
     atom   34 type  2   force =     0.00109746    0.00017018    0.02167070
     atom   35 type  2   force =    -0.00014769    0.00087585   -0.02097877
     atom   36 type  3   force =     0.00312347    0.01397263    0.01521861
     The Hubbard contrib.    to forces
     atom    1 type  1   force =     0.00000000    0.00000000    0.00000000
     atom    2 type  2   force =     0.00000000    0.00000000    0.00000000
     atom    3 type  2   force =     0.00000000    0.00000000    0.00000000
     atom    4 type  1   force =     0.00000000    0.00000000    0.00000000
     atom    5 type  2   force =     0.00000000    0.00000000    0.00000000
     atom    6 type  2   force =     0.00000000    0.00000000    0.00000000
     atom    7 type  1   force =     0.00000000    0.00000000    0.00000000
     atom    8 type  2   force =     0.00000000    0.00000000    0.00000000
     atom    9 type  2   force =     0.00000000    0.00000000    0.00000000
     atom   10 type  1   force =     0.00000000    0.00000000    0.00000000
     atom   11 type  2   force =     0.00000000    0.00000000    0.00000000
     atom   12 type  2   force =     0.00000000    0.00000000    0.00000000
     atom   13 type  1   force =     0.00000000    0.00000000    0.00000000
     atom   14 type  2   force =     0.00000000    0.00000000    0.00000000
     atom   15 type  2   force =     0.00000000    0.00000000    0.00000000
     atom   16 type  1   force =     0.00000000    0.00000000    0.00000000
     atom   17 type  2   force =     0.00000000    0.00000000    0.00000000
     atom   18 type  2   force =     0.00000000    0.00000000    0.00000000
     atom   19 type  1   force =     0.00000000    0.00000000    0.00000000
     atom   20 type  2   force =     0.00000000    0.00000000    0.00000000
     atom   21 type  1   force =     0.00000000    0.00000000    0.00000000
     atom   22 type  2   force =     0.00000000    0.00000000    0.00000000
     atom   23 type  2   force =     0.00000000    0.00000000    0.00000000
     atom   24 type  1   force =     0.00000000    0.00000000    0.00000000
     atom   25 type  2   force =     0.00000000    0.00000000    0.00000000
     atom   26 type  2   force =     0.00000000    0.00000000    0.00000000
     atom   27 type  1   force =     0.00000000    0.00000000    0.00000000
     atom   28 type  2   force =     0.00000000    0.00000000    0.00000000
     atom   29 type  2   force =     0.00000000    0.00000000    0.00000000
     atom   30 type  1   force =     0.00000000    0.00000000    0.00000000
     atom   31 type  2   force =     0.00000000    0.00000000    0.00000000
     atom   32 type  2   force =     0.00000000    0.00000000    0.00000000
     atom   33 type  1   force =     0.00000000    0.00000000    0.00000000
     atom   34 type  2   force =     0.00000000    0.00000000    0.00000000
     atom   35 type  2   force =     0.00000000    0.00000000    0.00000000
     atom   36 type  3   force =     0.00000000    0.00000000    0.00000000
     The SCF correction term to forces
     atom    1 type  1   force =    -0.00001978   -0.00006764    0.00043263
     atom    2 type  2   force =     0.00000994   -0.00006106    0.00002973
     atom    3 type  2   force =    -0.00000785   -0.00002856    0.00041425
     atom    4 type  1   force =     0.00001914    0.00007678    0.00051499
     atom    5 type  2   force =    -0.00002921    0.00002070    0.00001317
     atom    6 type  2   force =    -0.00002483    0.00002448    0.00040633
     atom    7 type  1   force =    -0.00008431    0.00004090    0.00054341
     atom    8 type  2   force =     0.00014208    0.00004878    0.00005484
     atom    9 type  2   force =     0.00002094    0.00000018    0.00040823
     atom   10 type  1   force =     0.00014774   -0.00008564    0.00057054
     atom   11 type  2   force =    -0.00001345    0.00002346    0.00005349
     atom   12 type  2   force =    -0.00001510    0.00001835    0.00039996
     atom   13 type  1   force =     0.00000226   -0.00007725    0.00047581
     atom   14 type  2   force =    -0.00001369   -0.00004742    0.00002525
     atom   15 type  2   force =    -0.00000616   -0.00002119    0.00042199
     atom   16 type  1   force =    -0.00015807    0.00009814    0.00060273
     atom   17 type  2   force =    -0.00000675    0.00012500    0.00002536
     atom   18 type  2   force =     0.00004182    0.00003948    0.00041570
     atom   19 type  1   force =    -0.00027282    0.00002894    0.00089961
     atom   20 type  2   force =    -0.00007172   -0.00000008    0.00043587
     atom   21 type  1   force =    -0.00014299   -0.00010605    0.00057975
     atom   22 type  2   force =    -0.00012308   -0.00015696    0.00004922
     atom   23 type  2   force =    -0.00001501   -0.00005639    0.00049414
     atom   24 type  1   force =     0.00000213   -0.00012206    0.00048310
     atom   25 type  2   force =     0.00000231   -0.00009807    0.00002662
     atom   26 type  2   force =     0.00001922   -0.00003462    0.00042476
     atom   27 type  1   force =     0.00014718    0.00034366    0.00079790
     atom   28 type  2   force =     0.00003476    0.00008117    0.00004377
     atom   29 type  2   force =    -0.00001907    0.00001400    0.00039588
     atom   30 type  1   force =     0.00032404    0.00012331    0.00089548
     atom   31 type  2   force =     0.00004806    0.00018867    0.00012950
     atom   32 type  2   force =     0.00004997    0.00006257    0.00051507
     atom   33 type  1   force =     0.00001009   -0.00031474    0.00071939
     atom   34 type  2   force =     0.00011613   -0.00011987    0.00003068
     atom   35 type  2   force =     0.00002751   -0.00002478    0.00050171
     atom   36 type  3   force =     0.00000201    0.00001843    0.00000421

     Total force =     0.217234     Total SCF correction =     0.002846

     BFGS Geometry Optimization
     Energy error            =      0.0E+00 Ry
     Gradient error          =      1.4E-01 Ry/Bohr

     number of scf cycles    =   1
     number of bfgs steps    =   0

     energy             new  =   -2246.3267071095 Ry

     new trust radius        =       0.1459078016 bohr
     new conv_thr            =       0.0000010000 Ry


ATOMIC_POSITIONS (angstrom)
Mo            6.5815068273        1.7751427522        2.8256895460
S             8.1688087422        0.8181350793        4.4343407819
S             8.1871308200        0.8161283499        1.2771917141
Mo            8.0968169746        4.4979752657        2.7174642439
S             6.4997127735        3.7189235724        4.3430955468
S             6.5532590582        3.5173677766        1.1214912283
Mo            6.4945880288        7.2084094866        2.6668405297
S             8.0808193594        6.3422901525        4.2509392725
S             8.0857551224        6.3070829724        1.0904887387
Mo            8.1553972907        9.9071127670        2.8282443174
S             6.4966318991        8.9422722159        4.3802527378
S             6.6168074523        9.0482072960        1.1426971347
Mo            3.4243826673        1.7489066014        2.7736376870
S             4.9794411918        0.8158914015        4.3573537989
S             5.0514139605        0.8479731690        1.2223911076
Mo            4.9822180582        4.5215000011        2.6369313720
S             3.4331998294        3.6684468448        4.2796334818
S             3.4352961312        3.5446005063        1.0636790525
Mo            3.4622167260        7.2129290573        2.6114464119
S             4.9858857607        6.3241367465        1.0375458299
Mo            5.0099119213        9.9068984768        2.7391209652
S             3.4718721896        8.9425193874        4.3190386952
S             3.4076736085        9.0665141379        1.1019536230
Mo            0.2906939552        1.7458671758        2.8392137986
S             1.8589791911        0.8026940148        4.4022097993
S             1.8549874761        0.8563728257        1.2062252367
Mo            1.8596141814        4.4843903083        2.6759091400
S             0.2707421998        3.6507979711        4.3350040882
S             0.2344225750        3.5271713110        1.1695914448
Mo            0.2671978616        7.2208902143        2.6951287072
S             1.9070591751        6.3871927831        4.2425401549
S             1.8575914778        6.3133785774        1.0496351755
Mo            1.8514923215        9.9352525562        2.7698465858
S             0.2968286027        9.0684774325        4.4061600761
S             0.2737894536        9.0479374075        1.1583716004
O             2.0897043706        7.2270931496        5.4834579122



     Writing config-only to output data dir ./MoS2-V-O.save/
     NEW-OLD atomic charge density approx. for the potential

     negative rho (up, down):  1.995E-04 0.000E+00

     total cpu time spent up to now is      116.5 secs

     Self-consistent Calculation

     iteration #  1     ecut=    80.00 Ry     beta= 0.70
     Davidson diagonalization with overlap
     ethr =  1.00E-06,  avg # of iterations = 10.0

     negative rho (up, down):  8.005E-05 0.000E+00

     total cpu time spent up to now is      134.5 secs

     total energy              =   -2246.36026293 Ry
     estimated scf accuracy    <       0.00743073 Ry

     iteration #  2     ecut=    80.00 Ry     beta= 0.70
     Davidson diagonalization with overlap
     ethr =  2.38E-06,  avg # of iterations =  4.0

     negative rho (up, down):  5.886E-05 0.000E+00

     total cpu time spent up to now is      145.5 secs

     total energy              =   -2246.36127024 Ry
     estimated scf accuracy    <       0.00260904 Ry

     iteration #  3     ecut=    80.00 Ry     beta= 0.70
     Davidson diagonalization with overlap
     ethr =  8.36E-07,  avg # of iterations =  3.0

     negative rho (up, down):  3.573E-05 0.000E+00

     total cpu time spent up to now is      158.1 secs

     total energy              =   -2246.36133701 Ry
     estimated scf accuracy    <       0.00049555 Ry

     iteration #  4     ecut=    80.00 Ry     beta= 0.70
     Davidson diagonalization with overlap
     ethr =  1.59E-07,  avg # of iterations =  4.0

     negative rho (up, down):  3.117E-05 0.000E+00

     total cpu time spent up to now is      170.1 secs

     total energy              =   -2246.36138887 Ry
     estimated scf accuracy    <       0.00004999 Ry

     iteration #  5     ecut=    80.00 Ry     beta= 0.70
     Davidson diagonalization with overlap
     ethr =  1.60E-08,  avg # of iterations =  5.0

     negative rho (up, down):  2.947E-05 0.000E+00

     total cpu time spent up to now is      182.2 secs

     total energy              =   -2246.36139712 Ry
     estimated scf accuracy    <       0.00001726 Ry

     iteration #  6     ecut=    80.00 Ry     beta= 0.70
     Davidson diagonalization with overlap
     ethr =  5.53E-09,  avg # of iterations =  2.0

     negative rho (up, down):  2.954E-05 0.000E+00

     total cpu time spent up to now is      194.8 secs

     total energy              =   -2246.36139843 Ry
     estimated scf accuracy    <       0.00000661 Ry

     iteration #  7     ecut=    80.00 Ry     beta= 0.70
     Davidson diagonalization with overlap
     ethr =  2.12E-09,  avg # of iterations =  5.0

     negative rho (up, down):  3.400E-05 0.000E+00

     total cpu time spent up to now is      205.4 secs

     total energy              =   -2246.36140001 Ry
     estimated scf accuracy    <       0.00000137 Ry

     iteration #  8     ecut=    80.00 Ry     beta= 0.70
     Davidson diagonalization with overlap
     ethr =  4.40E-10,  avg # of iterations =  4.0

     negative rho (up, down):  1.982E-04 0.000E+00

     total cpu time spent up to now is      208.8 secs

     End of self-consistent calculation

          k = 0.0000 0.0000 0.0000 (105382 PWs)   bands (ev):

   -63.0417 -62.9874 -62.9789 -62.9570 -62.9353 -62.9260 -62.9191 -62.9058
   -62.9029 -62.8914 -62.8152 -62.7751 -37.3458 -37.2844 -37.2745 -37.2590
   -37.2382 -37.2302 -37.2033 -37.1854 -37.1769 -37.1653 -37.1616 -37.1546
   -37.1467 -37.1393 -37.1196 -37.1123 -37.1042 -37.0966 -37.0884 -37.0852
   -37.0743 -37.0689 -37.0656 -37.0315 -37.0224 -37.0125 -37.0095 -36.9905
   -36.9778 -36.9492 -36.9454 -36.9205 -36.9090 -36.9071 -36.8691 -36.7868
   -22.5174 -16.0344 -15.2937 -15.1906 -15.0101 -14.9890 -14.8704 -14.6213
   -14.5409 -14.5122 -14.4925 -14.4537 -14.4161 -14.3915 -14.3345 -14.2352
   -14.2240 -14.2108 -14.1405 -14.0202 -13.9613 -13.9313 -13.9088 -13.7479
    -8.1371  -7.8045  -7.7609  -7.5884  -7.4763  -7.3475  -7.3105  -7.2960
    -7.2522  -7.0911  -7.0373  -6.9138  -6.8510  -6.7992  -6.7005  -6.6469
    -6.5087  -6.4944  -6.3885  -6.3619  -6.2032  -6.1306  -5.9978  -5.9653
    -5.9039  -5.8638  -5.8256  -5.7996  -5.7696  -5.7383  -5.6876  -5.6534
    -5.6188  -5.5961  -5.5565  -5.2907  -5.2639  -5.2563  -5.1352  -5.0867
    -5.0785  -5.0180  -5.0124  -4.8541  -4.8102  -4.6875  -4.4354  -4.3841
    -4.3686  -4.2757  -4.2670  -4.1630  -4.1168  -4.0687  -3.9075  -3.8521
    -3.8362  -3.7972  -3.7451  -3.6841  -3.6246  -3.6031  -3.5724  -3.5569
    -3.5094  -3.4729  -3.3883  -3.2987  -3.1708  -3.0889  -2.9722  -2.9309
    -2.8949  -2.8596  -2.8000  -2.7551  -2.7436  -2.7126  -2.5704  -2.5365
    -2.3460  -2.1054  -2.0660  -1.9751  -1.0574  -0.8539  -0.4474  -0.2717
    -0.2381  -0.1604  -0.0966  -0.0162   0.0372   0.1439   0.1581   0.1997
     0.2046   0.2503   0.3114   0.3934   0.4523   0.4701   0.5008   0.5464
     0.6101   0.6566   0.6685   0.7191   0.7299   0.7502   0.8092   0.8776
     0.9211   0.9793   1.1868

     the Fermi energy is    -1.5162 ev

!    total energy              =   -2246.36140123 Ry
     estimated scf accuracy    <       0.00000058 Ry
     smearing contrib. (-TS)   =      -0.00000013 Ry
     internal energy E=F+TS    =   -2246.36140110 Ry

     The total energy is F=E-TS. E is the sum of the following terms:
     one-electron contribution =  -18430.73154780 Ry
     hartree contribution      =    9203.14255665 Ry
     xc contribution           =    -392.10786034 Ry
     ewald contribution        =    7383.19393690 Ry
     one-center paw contrib.   =      -9.85848651 Ry

     convergence has been achieved in   8 iterations

     negative rho (up, down):  1.982E-04 0.000E+00

     Forces acting on atoms (cartesian axes, Ry/au):

     atom    1 type  1   force =     0.00275849   -0.01205662   -0.00008236
     atom    2 type  2   force =    -0.00953611    0.00953532   -0.00217809
     atom    3 type  2   force =    -0.01019607    0.00774526   -0.00788453
     atom    4 type  1   force =     0.00512310    0.00133190    0.00074547
     atom    5 type  2   force =     0.00099887   -0.00667993   -0.00570908
     atom    6 type  2   force =    -0.00022097    0.00788440    0.00259597
     atom    7 type  1   force =     0.00521355   -0.01106475   -0.00201244
     atom    8 type  2   force =    -0.00058144   -0.00287326    0.01113534
     atom    9 type  2   force =     0.00805894    0.00205524    0.00543584
     atom   10 type  1   force =    -0.00365504    0.00625188   -0.01072742
     atom   11 type  2   force =     0.00217898   -0.00113259   -0.00951373
     atom   12 type  2   force =    -0.00359746   -0.00103976    0.00082842
     atom   13 type  1   force =     0.00532924    0.00211333   -0.00259655
     atom   14 type  2   force =     0.00629000   -0.00183911    0.00851378
     atom   15 type  2   force =    -0.00879373    0.00361803   -0.00740043
     atom   16 type  1   force =     0.00172765    0.00864387    0.00512665
     atom   17 type  2   force =     0.00875340   -0.00295262    0.00368596
     atom   18 type  2   force =    -0.00341378   -0.00362805    0.01149843
     atom   19 type  1   force =     0.00893141    0.00154367   -0.01650227
     atom   20 type  2   force =     0.00861473   -0.00782837   -0.00789216
     atom   21 type  1   force =    -0.00223303    0.00339485   -0.00089796
     atom   22 type  2   force =     0.00771054    0.00076029   -0.01356844
     atom   23 type  2   force =    -0.00067754    0.00394727    0.00192600
     atom   24 type  1   force =    -0.00673332   -0.00213035   -0.00913863
     atom   25 type  2   force =     0.01108790    0.01329917    0.00073328
     atom   26 type  2   force =    -0.00745450    0.00110047   -0.00518185
     atom   27 type  1   force =    -0.00109423    0.00349031    0.02865400
     atom   28 type  2   force =    -0.00302923   -0.00577197   -0.00244825
     atom   29 type  2   force =     0.00516898    0.00129806   -0.00285768
     atom   30 type  1   force =    -0.00691949    0.00798657    0.00002667
     atom   31 type  2   force =     0.00188230    0.05249093   -0.05246962
     atom   32 type  2   force =    -0.00831272   -0.00070834    0.00945265
     atom   33 type  1   force =     0.00706403   -0.00204621    0.00089395
     atom   34 type  2   force =    -0.00282230   -0.02819902   -0.01769511
     atom   35 type  2   force =    -0.00366439    0.00907326    0.00665398
     atom   36 type  3   force =    -0.01395674   -0.05761313    0.07885020
     The non-local contrib.  to forces
     atom    1 type  1   force =     0.00119584    0.02729813   -0.01040550
     atom    2 type  2   force =    -0.00473472   -0.00371197   -0.27566855
     atom    3 type  2   force =    -0.01090911   -0.00196135    0.26175015
     atom    4 type  1   force =     0.00009966    0.00877203    0.00439618
     atom    5 type  2   force =     0.00612300   -0.03157722   -0.25570713
     atom    6 type  2   force =    -0.00281996    0.01066503    0.26514718
     atom    7 type  1   force =    -0.02001387    0.00539854   -0.02205930
     atom    8 type  2   force =     0.00696590   -0.00426621   -0.26084270
     atom    9 type  2   force =     0.00192352   -0.01292552    0.27028944
     atom   10 type  1   force =     0.00069169    0.00183591    0.00199941
     atom   11 type  2   force =     0.01468387    0.00170553   -0.26538458
     atom   12 type  2   force =    -0.01433103   -0.02047633    0.26150062
     atom   13 type  1   force =     0.00713420    0.01643766   -0.00689371
     atom   14 type  2   force =     0.00721866   -0.01079825   -0.26836839
     atom   15 type  2   force =    -0.01180335   -0.00385903    0.26001466
     atom   16 type  1   force =    -0.00178683    0.02979833   -0.03297763
     atom   17 type  2   force =    -0.00146069   -0.02479336   -0.24837670
     atom   18 type  2   force =    -0.00548565   -0.00302145    0.27888304
     atom   19 type  1   force =     0.00194525   -0.00707911    0.01330620
     atom   20 type  2   force =     0.00527559   -0.02434976    0.25938153
     atom   21 type  1   force =    -0.00312366    0.02156812    0.00827275
     atom   22 type  2   force =    -0.00538147    0.01580629   -0.25669061
     atom   23 type  2   force =     0.00569488   -0.01527135    0.26273190
     atom   24 type  1   force =    -0.00314152    0.00849034   -0.00894446
     atom   25 type  2   force =     0.00628606    0.00281382   -0.26691709
     atom   26 type  2   force =     0.00006063   -0.01206153    0.26455041
     atom   27 type  1   force =    -0.00223309    0.01968561   -0.00387562
     atom   28 type  2   force =     0.00066159   -0.01962362   -0.27503736
     atom   29 type  2   force =     0.01205779   -0.00027250    0.26705703
     atom   30 type  1   force =     0.01045816   -0.00343345    0.02618335
     atom   31 type  2   force =     0.03725081    0.14315439    0.26173816
     atom   32 type  2   force =    -0.00310682   -0.01408588    0.27931875
     atom   33 type  1   force =    -0.00115579    0.00636811    0.00451150
     atom   34 type  2   force =    -0.01284110   -0.01445854   -0.28185548
     atom   35 type  2   force =    -0.00073943   -0.00951520    0.26501882
     atom   36 type  3   force =    -0.30265856   -1.30336058   -1.68861039
     The ionic contribution  to forces
     atom    1 type  1   force =     0.16414204    0.57736236    4.86731068
     atom    2 type  2   force =    -0.64587431    0.49075186   39.16170736
     atom    3 type  2   force =    -0.19586517    0.13513223  -36.69805724
     atom    4 type  1   force =    -0.31522229   -0.25609927   -0.64435328
     atom    5 type  2   force =    -0.89652748    1.14032052   38.44104157
     atom    6 type  2   force =     0.31072234   -0.66894855  -38.44599695
     atom    7 type  1   force =    -2.40227202   -2.50920944    0.90694744
     atom    8 type  2   force =    -1.76891283   -0.29375930   36.96001345
     atom    9 type  2   force =     0.24383917   -0.18006000  -38.72533590
     atom   10 type  1   force =    -1.46635550    0.41447144    3.91999817
     atom   11 type  2   force =    -0.38796599   -1.26472338   38.73532396
     atom   12 type  2   force =     0.40006572    0.75551313  -38.44102172
     atom   13 type  1   force =     0.67629496    0.98213808    1.66709092
     atom   14 type  2   force =     0.19350352    0.25601983   38.37699100
     atom   15 type  2   force =     0.23345352    0.10701591  -37.37067105
     atom   16 type  1   force =     0.48137279    2.86047686   -0.78310167
     atom   17 type  2   force =     1.13432801    0.69916630   37.50392909
     atom   18 type  2   force =    -0.08989921   -0.72344041  -39.08667842
     atom   19 type  1   force =     4.24502700   -2.63020508   -4.67391139
     atom   20 type  2   force =     0.41070127   -0.35745518  -39.35926391
     atom   21 type  1   force =     0.77932924    0.83797563   -0.39963576
     atom   22 type  2   force =     2.18541317    0.40700108   36.80223616
     atom   23 type  2   force =     0.05003263    0.92310871  -39.19022521
     atom   24 type  1   force =    -0.60732935    1.02885516    4.48425685
     atom   25 type  2   force =     0.49860086    0.70609498   38.93676137
     atom   26 type  2   force =    -0.26405730    0.17517034  -37.88402855
     atom   27 type  1   force =    -0.07170587   -0.74291540   -3.58707297
     atom   28 type  2   force =    -0.31570167    0.28112117   37.83015817
     atom   29 type  2   force =    -0.30762612   -0.49468002  -37.88433486
     atom   30 type  1   force =    -2.14980647   -1.23102776   -4.15176360
     atom   31 type  2   force =     0.20802324   -5.32042988   30.05428432
     atom   32 type  2   force =    -0.53903606   -0.35834108  -39.57270579
     atom   33 type  1   force =     0.43696505    1.29916175   -0.32143719
     atom   34 type  2   force =    -1.34813236    0.40813910   38.19154623
     atom   35 type  2   force =    -0.41532594    0.71339813  -38.60879031
     atom   36 type  3   force =     1.53580143    1.83290020   48.98878902
     The local contribution  to forces
     atom    1 type  1   force =    -0.16265751   -0.61685579   -4.85763039
     atom    2 type  2   force =     0.64094211   -0.47756669  -38.90969634
     atom    3 type  2   force =     0.19608617   -0.12546962   36.44898190
     atom    4 type  1   force =     0.32025061    0.24867618    0.64011819
     atom    5 type  2   force =     0.89204901   -1.11718081  -38.21185857
     atom    6 type  2   force =    -0.30839387    0.66719922   38.20421072
     atom    7 type  1   force =     2.42742332    2.49295185   -0.88731544
     atom    8 type  2   force =     1.76170738    0.29464713  -36.70921182
     atom    9 type  2   force =    -0.23782319    0.19441272   38.48127607
     atom   10 type  1   force =     1.46211461   -0.41008575   -3.93326122
     atom   11 type  2   force =     0.37611165    1.26225455  -38.50073755
     atom   12 type  2   force =    -0.39049130   -0.73754265   38.20109271
     atom   13 type  1   force =    -0.67807048   -0.99679147   -1.66345749
     atom   14 type  2   force =    -0.19399176   -0.24719483  -38.12144152
     atom   15 type  2   force =    -0.23113211   -0.09986439   37.12375394
     atom   16 type  1   force =    -0.47784247   -2.88157262    0.82063263
     atom   17 type  2   force =    -1.12449920   -0.67852740  -37.27244707
     atom   18 type  2   force =     0.09179357    0.72322490   38.84042844
     atom   19 type  1   force =    -4.23828293    2.63913681    4.64376892
     atom   20 type  2   force =    -0.40736470    0.37313085   39.11298934
     atom   21 type  1   force =    -0.77858765   -0.85618592    0.38998853
     atom   22 type  2   force =    -2.17218303   -0.42055145  -36.58050080
     atom   23 type  2   force =    -0.05596720   -0.90525962   38.95019096
     atom   24 type  1   force =     0.60373518   -1.03968268   -4.48511184
     atom   25 type  2   force =    -0.49375395   -0.69530893  -38.69045646
     atom   26 type  2   force =     0.25680987   -0.16258232   37.63513511
     atom   27 type  1   force =     0.07280911    0.72700082    3.61895852
     atom   28 type  2   force =     0.31213035   -0.26865521  -37.57900315
     atom   29 type  2   force =     0.30153536    0.49666426   37.63505479
     atom   30 type  1   force =     2.13271126    1.24261981    4.12526483
     atom   31 type  2   force =    -0.24126143    5.23896256  -30.36104948
     atom   32 type  2   force =     0.53403361    0.37116260   39.32424478
     atom   33 type  1   force =    -0.42869009   -1.30782520    0.31743147
     atom   34 type  2   force =     1.35716366   -0.42200497  -37.94961381
     atom   35 type  2   force =     0.41256130   -0.69574101   38.37128633
     atom   36 type  3   force =    -1.25048226   -0.60127956  -47.23980112
     The core correction contribution to forces
     atom    1 type  1   force =     0.00000000    0.00000000    0.00000000
     atom    2 type  2   force =     0.00009393    0.00003414    0.02107955
     atom    3 type  2   force =     0.00047089    0.00002673   -0.02064996
     atom    4 type  1   force =     0.00000000    0.00000000    0.00000000
     atom    5 type  2   force =    -0.00060348    0.00171408    0.02047769
     atom    6 type  2   force =     0.00031236   -0.00112368   -0.02089677
     atom    7 type  1   force =     0.00000000    0.00000000    0.00000000
     atom    8 type  2   force =    -0.00026831    0.00059949    0.02076778
     atom    9 type  2   force =     0.00017372    0.00069059   -0.02082676
     atom   10 type  1   force =     0.00000000    0.00000000    0.00000000
     atom   11 type  2   force =    -0.00068149   -0.00036415    0.02087946
     atom   12 type  2   force =     0.00115436    0.00150632   -0.02079721
     atom   13 type  1   force =     0.00000000    0.00000000    0.00000000
     atom   14 type  2   force =    -0.00042722    0.00006155    0.02091073
     atom   15 type  2   force =     0.00069367    0.00029720   -0.02055628
     atom   16 type  1   force =     0.00000000    0.00000000    0.00000000
     atom   17 type  2   force =     0.00033959    0.00120996    0.02023933
     atom   18 type  2   force =     0.00012553   -0.00044341   -0.02128815
     atom   19 type  1   force =     0.00000000    0.00000000    0.00000000
     atom   20 type  2   force =    -0.00010196    0.00097916   -0.02101138
     atom   21 type  1   force =     0.00000000    0.00000000    0.00000000
     atom   22 type  2   force =    -0.00025147   -0.00162185    0.02095670
     atom   23 type  2   force =    -0.00046505    0.00129494   -0.02072052
     atom   24 type  1   force =     0.00000000    0.00000000    0.00000000
     atom   25 type  2   force =    -0.00001191   -0.00040589    0.02094838
     atom   26 type  2   force =    -0.00025279    0.00055137   -0.02090890
     atom   27 type  1   force =     0.00000000    0.00000000    0.00000000
     atom   28 type  2   force =    -0.00012111    0.00141470    0.02105049
     atom   29 type  2   force =    -0.00078996   -0.00043711   -0.02074294
     atom   30 type  1   force =     0.00000000    0.00000000    0.00000000
     atom   31 type  2   force =    -0.00209713   -0.00886075   -0.00779219
     atom   32 type  2   force =    -0.00016569    0.00067003   -0.02137793
     atom   33 type  1   force =     0.00000000    0.00000000    0.00000000
     atom   34 type  2   force =     0.00112185   -0.00002374    0.02182159
     atom   35 type  2   force =    -0.00012365    0.00089520   -0.02087098
     atom   36 type  3   force =     0.00334468    0.01415733    0.01747636
     The Hubbard contrib.    to forces
     atom    1 type  1   force =     0.00000000    0.00000000    0.00000000
     atom    2 type  2   force =     0.00000000    0.00000000    0.00000000
     atom    3 type  2   force =     0.00000000    0.00000000    0.00000000
     atom    4 type  1   force =     0.00000000    0.00000000    0.00000000
     atom    5 type  2   force =     0.00000000    0.00000000    0.00000000
     atom    6 type  2   force =     0.00000000    0.00000000    0.00000000
     atom    7 type  1   force =     0.00000000    0.00000000    0.00000000
     atom    8 type  2   force =     0.00000000    0.00000000    0.00000000
     atom    9 type  2   force =     0.00000000    0.00000000    0.00000000
     atom   10 type  1   force =     0.00000000    0.00000000    0.00000000
     atom   11 type  2   force =     0.00000000    0.00000000    0.00000000
     atom   12 type  2   force =     0.00000000    0.00000000    0.00000000
     atom   13 type  1   force =     0.00000000    0.00000000    0.00000000
     atom   14 type  2   force =     0.00000000    0.00000000    0.00000000
     atom   15 type  2   force =     0.00000000    0.00000000    0.00000000
     atom   16 type  1   force =     0.00000000    0.00000000    0.00000000
     atom   17 type  2   force =     0.00000000    0.00000000    0.00000000
     atom   18 type  2   force =     0.00000000    0.00000000    0.00000000
     atom   19 type  1   force =     0.00000000    0.00000000    0.00000000
     atom   20 type  2   force =     0.00000000    0.00000000    0.00000000
     atom   21 type  1   force =     0.00000000    0.00000000    0.00000000
     atom   22 type  2   force =     0.00000000    0.00000000    0.00000000
     atom   23 type  2   force =     0.00000000    0.00000000    0.00000000
     atom   24 type  1   force =     0.00000000    0.00000000    0.00000000
     atom   25 type  2   force =     0.00000000    0.00000000    0.00000000
     atom   26 type  2   force =     0.00000000    0.00000000    0.00000000
     atom   27 type  1   force =     0.00000000    0.00000000    0.00000000
     atom   28 type  2   force =     0.00000000    0.00000000    0.00000000
     atom   29 type  2   force =     0.00000000    0.00000000    0.00000000
     atom   30 type  1   force =     0.00000000    0.00000000    0.00000000
     atom   31 type  2   force =     0.00000000    0.00000000    0.00000000
     atom   32 type  2   force =     0.00000000    0.00000000    0.00000000
     atom   33 type  1   force =     0.00000000    0.00000000    0.00000000
     atom   34 type  2   force =     0.00000000    0.00000000    0.00000000
     atom   35 type  2   force =     0.00000000    0.00000000    0.00000000
     atom   36 type  3   force =     0.00000000    0.00000000    0.00000000
     The SCF correction term to forces
     atom    1 type  1   force =     0.00007731    0.00014011    0.00062652
     atom    2 type  2   force =     0.00003607    0.00002940    0.00038356
     atom    3 type  2   force =     0.00002035    0.00001869    0.00007427
     atom    4 type  1   force =    -0.00000568   -0.00001561    0.00056804
     atom    5 type  2   force =    -0.00004299    0.00004493    0.00032102
     atom    6 type  2   force =    -0.00004265    0.00009380    0.00011546
     atom    7 type  1   force =     0.00007531   -0.00020428    0.00039852
     atom    8 type  2   force =    -0.00007438   -0.00009295    0.00039229
     atom    9 type  2   force =    -0.00005509   -0.00006112    0.00001665
     atom   10 type  1   force =    -0.00010664    0.00003171    0.00051988
     atom   11 type  2   force =     0.00003014   -0.00000372    0.00038864
     atom   12 type  2   force =     0.00000398   -0.00003882    0.00003769
     atom   13 type  1   force =    -0.00003024    0.00033049    0.00064740
     atom   14 type  2   force =    -0.00001400    0.00007401    0.00040563
     atom   15 type  2   force =    -0.00000626    0.00002978    0.00004196
     atom   16 type  1   force =    -0.00001665   -0.00005728    0.00055698
     atom   17 type  2   force =     0.00004489   -0.00000670    0.00032499
     atom   18 type  2   force =     0.00005118    0.00005373    0.00013719
     atom   19 type  1   force =     0.00024130   -0.00030754    0.00031765
     atom   20 type  2   force =     0.00010373   -0.00013201   -0.00000408
     atom   21 type  1   force =     0.00014824    0.00003844    0.00046017
     atom   22 type  2   force =     0.00011254    0.00012764    0.00041377
     atom   23 type  2   force =     0.00002640    0.00007601   -0.00006747
     atom   24 type  1   force =     0.00000157    0.00020825    0.00064448
     atom   25 type  2   force =    -0.00003397    0.00010662    0.00038075
     atom   26 type  2   force =    -0.00001572    0.00002401    0.00005375
     atom   27 type  1   force =     0.00003482   -0.00027929    0.00062773
     atom   28 type  2   force =     0.00000080   -0.00002759    0.00036726
     atom   29 type  2   force =    -0.00000888    0.00002484    0.00009196
     atom   30 type  1   force =    -0.00028324   -0.00017061    0.00032576
     atom   31 type  2   force =    -0.00003399   -0.00033396    0.00033324
     atom   32 type  2   force =    -0.00003856   -0.00011258   -0.00004350
     atom   33 type  1   force =    -0.00005595    0.00025056    0.00037183
     atom   34 type  2   force =    -0.00013516    0.00015054    0.00039002
     atom   35 type  2   force =    -0.00003748    0.00003756   -0.00000622
     atom   36 type  3   force =     0.00003717   -0.00002910    0.00097999

     Total force =     0.145467     Total SCF correction =     0.002604
     Energy error            =      3.5E-02 Ry
     Gradient error          =      7.9E-02 Ry/Bohr

     number of scf cycles    =   2
     number of bfgs steps    =   1

     energy             old  =   -2246.3267071095 Ry
     energy             new  =   -2246.3614012312 Ry

     CASE: energy            _new < energy            _old

     new trust radius        =       0.2470971297 bohr
     new conv_thr            =       0.0000000789 Ry


ATOMIC_POSITIONS (angstrom)
Mo            6.5897519441        1.7535222556        2.8272743192
S             8.1534263767        0.8339475459        4.4321325781
S             8.1725886174        0.8273790377        1.2692172252
Mo            8.1029772053        4.5015977463        2.7178774532
S             6.5004922802        3.7098104866        4.3348325138
S             6.5529776081        3.5293532559        1.1241032176
Mo            6.5032308828        7.1898622242        2.6608517663
S             8.0795349241        6.3383048740        4.2682939016
S             8.0972608214        6.3109488106        1.1009807627
Mo            8.1477198160        9.9169966113        2.8057991071
S             6.4998698016        8.9406757381        4.3689912989
S             6.6124995707        9.0468204733        1.1457419106
Mo            3.4316046274        1.7524778828        2.7688951520
S             4.9888275346        0.8133096869        4.3708979166
S             5.0379322694        0.8527644180        1.2119675718
Mo            4.9858414725        4.5363857879        2.6450380866
S             3.4457813410        3.6631101508        4.2830370457
S             3.4299550415        3.5382427188        1.0788162956
Mo            3.4773996418        7.2116224922        2.5803125452
S             4.9961385638        6.3145063105        1.0303632366
Mo            5.0059022052        9.9143935963        2.7348004783
S             3.4798637066        8.9422336327        4.3009601630
S             3.4064229486        9.0714631132        1.1085444857
Mo            0.2799804743        1.7425303806        2.8223124182
S             1.8763211076        0.8233194039        4.4061483356
S             1.8432580685        0.8589887329        1.1987742299
Mo            1.8577105796        4.4785128730        2.7156095753
S             0.2666989680        3.6424467801        4.3306068460
S             0.2418742766        3.5283284050        1.1649340074
Mo            0.2574807570        7.2318459368        2.6898193999
S             1.9127444370        6.4969659594        4.2095328882
S             1.8460021069        6.3151774994        1.0626448153
Mo            1.8639373802        9.9293598575        2.7681694490
S             0.2949189515        9.0244869021        4.3832622999
S             0.2679223919        9.0600508942        1.1711013603
O             2.0670005342        7.1251372691        5.5621168802



     Writing config-only to output data dir ./MoS2-V-O.save/
     NEW-OLD atomic charge density approx. for the potential

     negative rho (up, down):  2.017E-04 0.000E+00

     total cpu time spent up to now is      215.7 secs

     Self-consistent Calculation

     iteration #  1     ecut=    80.00 Ry     beta= 0.70
     Davidson diagonalization with overlap
     c_bands:  1 eigenvalues not converged
     ethr =  1.00E-06,  avg # of iterations = 20.0

     negative rho (up, down):  3.954E-04 0.000E+00

     total cpu time spent up to now is      231.0 secs

     total energy              =   -2246.39232199 Ry
     estimated scf accuracy    <       0.01981284 Ry

     iteration #  2     ecut=    80.00 Ry     beta= 0.70
     Davidson diagonalization with overlap
     ethr =  6.35E-06,  avg # of iterations =  5.0

     negative rho (up, down):  6.645E-04 0.000E+00

     total cpu time spent up to now is      244.2 secs

     total energy              =   -2246.39775898 Ry
     estimated scf accuracy    <       0.01175980 Ry

     iteration #  3     ecut=    80.00 Ry     beta= 0.70
     Davidson diagonalization with overlap
     ethr =  3.77E-06,  avg # of iterations =  2.0

     negative rho (up, down):  1.172E-03 0.000E+00

     total cpu time spent up to now is      259.9 secs

     total energy              =   -2246.39753206 Ry
     estimated scf accuracy    <       0.00224066 Ry

     iteration #  4     ecut=    80.00 Ry     beta= 0.70
     Davidson diagonalization with overlap
     ethr =  7.18E-07,  avg # of iterations =  4.0

     negative rho (up, down):  1.262E-03 0.000E+00

     total cpu time spent up to now is      272.7 secs

     total energy              =   -2246.39802879 Ry
     estimated scf accuracy    <       0.00056172 Ry

     iteration #  5     ecut=    80.00 Ry     beta= 0.70
     Davidson diagonalization with overlap
     ethr =  1.80E-07,  avg # of iterations =  3.0

     negative rho (up, down):  1.265E-03 0.000E+00

     total cpu time spent up to now is      283.5 secs

     total energy              =   -2246.39802546 Ry
     estimated scf accuracy    <       0.00015185 Ry

     iteration #  6     ecut=    80.00 Ry     beta= 0.70
     Davidson diagonalization with overlap
     ethr =  4.87E-08,  avg # of iterations =  4.0

     negative rho (up, down):  1.161E-03 0.000E+00

     total cpu time spent up to now is      294.9 secs

     total energy              =   -2246.39805195 Ry
     estimated scf accuracy    <       0.00001406 Ry

     iteration #  7     ecut=    80.00 Ry     beta= 0.70
     Davidson diagonalization with overlap
     ethr =  4.51E-09,  avg # of iterations =  5.0

     negative rho (up, down):  9.404E-04 0.000E+00

     total cpu time spent up to now is      306.8 secs

     total energy              =   -2246.39805508 Ry
     estimated scf accuracy    <       0.00000740 Ry

     iteration #  8     ecut=    80.00 Ry     beta= 0.70
     Davidson diagonalization with overlap
     ethr =  2.37E-09,  avg # of iterations =  2.0

     negative rho (up, down):  7.562E-04 0.000E+00

     total cpu time spent up to now is      317.5 secs

     total energy              =   -2246.39805426 Ry
     estimated scf accuracy    <       0.00000368 Ry

     iteration #  9     ecut=    80.00 Ry     beta= 0.70
     Davidson diagonalization with overlap
     ethr =  1.18E-09,  avg # of iterations =  3.0

     negative rho (up, down):  5.158E-04 0.000E+00

     total cpu time spent up to now is      326.0 secs

     total energy              =   -2246.39805357 Ry
     estimated scf accuracy    <       0.00000095 Ry

     iteration # 10     ecut=    80.00 Ry     beta= 0.70
     Davidson diagonalization with overlap
     ethr =  3.06E-10,  avg # of iterations =  5.0

     negative rho (up, down):  3.975E-04 0.000E+00

     total cpu time spent up to now is      337.6 secs

     total energy              =   -2246.39805344 Ry
     estimated scf accuracy    <       0.00000014 Ry

     iteration # 11     ecut=    80.00 Ry     beta= 0.70
     Davidson diagonalization with overlap
     ethr =  4.36E-11,  avg # of iterations =  5.0

     negative rho (up, down):  1.917E-04 0.000E+00

     total cpu time spent up to now is      341.1 secs

     End of self-consistent calculation

          k = 0.0000 0.0000 0.0000 (105382 PWs)   bands (ev):

   -63.0050 -62.9911 -62.9865 -62.9715 -62.9592 -62.9392 -62.9385 -62.9244
   -62.9191 -62.9145 -62.8390 -62.8111 -37.3523 -37.2833 -37.2740 -37.2613
   -37.2392 -37.2277 -37.2025 -37.1979 -37.1843 -37.1753 -37.1656 -37.1626
   -37.1578 -37.1512 -37.1403 -37.1279 -37.1227 -37.1149 -37.1077 -37.1017
   -37.0954 -37.0913 -37.0788 -37.0482 -37.0427 -37.0348 -37.0191 -37.0142
   -37.0064 -36.9785 -36.9638 -36.9574 -36.9439 -36.9285 -36.8880 -36.8297
   -22.6031 -16.0572 -15.3084 -15.2151 -15.0408 -14.9959 -14.8840 -14.6161
   -14.5509 -14.5389 -14.5285 -14.4669 -14.4349 -14.4068 -14.3631 -14.2502
   -14.2381 -14.2234 -14.1675 -14.0400 -13.9876 -13.9630 -13.9364 -13.7482
    -8.1296  -7.8339  -7.7831  -7.6026  -7.4924  -7.3512  -7.3403  -7.3315
    -7.2789  -7.1388  -7.0413  -6.9522  -6.8723  -6.7909  -6.7128  -6.6498
    -6.5387  -6.5003  -6.4138  -6.3781  -6.2412  -6.1486  -6.0106  -5.9779
    -5.9187  -5.8923  -5.8310  -5.8159  -5.7850  -5.7660  -5.7116  -5.6699
    -5.6311  -5.6088  -5.5472  -5.2904  -5.2868  -5.2508  -5.1582  -5.0995
    -5.0787  -5.0588  -5.0317  -4.8716  -4.8188  -4.7043  -4.4820  -4.4039
    -4.3879  -4.3298  -4.3005  -4.1902  -4.1425  -4.0911  -3.9417  -3.8745
    -3.8573  -3.8063  -3.7430  -3.7088  -3.6611  -3.6188  -3.6049  -3.5882
    -3.5402  -3.4779  -3.4144  -3.3490  -3.2335  -3.1682  -2.9799  -2.9464
    -2.8971  -2.8807  -2.8193  -2.7730  -2.7641  -2.7436  -2.6850  -2.5891
    -2.3417  -2.1154  -2.0916  -2.0256  -1.0183  -0.8568  -0.3458  -0.2930
    -0.2583  -0.1322  -0.0850   0.0128   0.0282   0.1370   0.1605   0.2001
     0.2172   0.2690   0.3255   0.3764   0.4319   0.4663   0.4916   0.5331
     0.5962   0.6296   0.6511   0.7006   0.7270   0.7516   0.8279   0.8747
     0.9280   0.9693   1.1810

     the Fermi energy is    -1.5217 ev

!    total energy              =   -2246.39805338 Ry
     estimated scf accuracy    <       0.00000007 Ry
     smearing contrib. (-TS)   =      -0.00000001 Ry
     internal energy E=F+TS    =   -2246.39805337 Ry

     The total energy is F=E-TS. E is the sum of the following terms:
     one-electron contribution =  -18429.64473220 Ry
     hartree contribution      =    9202.34209991 Ry
     xc contribution           =    -392.16290959 Ry
     ewald contribution        =    7382.92513573 Ry
     one-center paw contrib.   =      -9.85764722 Ry

     convergence has been achieved in  11 iterations

     negative rho (up, down):  1.917E-04 0.000E+00

     Forces acting on atoms (cartesian axes, Ry/au):

     atom    1 type  1   force =    -0.01302629    0.00813953   -0.00749582
     atom    2 type  2   force =     0.00024184   -0.00140909   -0.00257874
     atom    3 type  2   force =    -0.00676457    0.00375791   -0.01590621
     atom    4 type  1   force =     0.00624667   -0.00401964    0.00144758
     atom    5 type  2   force =     0.00303370   -0.00579277   -0.00266430
     atom    6 type  2   force =    -0.00006634    0.00305663    0.00533535
     atom    7 type  1   force =    -0.00106288    0.00195279    0.00583159
     atom    8 type  2   force =     0.00068699   -0.00332555    0.00406071
     atom    9 type  2   force =     0.00542014   -0.00169841   -0.00466818
     atom   10 type  1   force =     0.00338197    0.00331965    0.01071127
     atom   11 type  2   force =     0.00192579   -0.00122319   -0.01161060
     atom   12 type  2   force =    -0.00469388   -0.00184941   -0.00437433
     atom   13 type  1   force =     0.00256788   -0.00049183    0.00138158
     atom   14 type  2   force =     0.00226673   -0.00155320    0.00165529
     atom   15 type  2   force =    -0.00261294    0.00219951   -0.00514235
     atom   16 type  1   force =    -0.00192005   -0.00245733   -0.00047574
     atom   17 type  2   force =     0.00658994    0.00266932    0.01220913
     atom   18 type  2   force =    -0.00155715    0.00388582    0.01411153
     atom   19 type  1   force =     0.00659577    0.01657108    0.00831973
     atom   20 type  2   force =     0.01140848   -0.00935710   -0.01645735
     atom   21 type  1   force =     0.00313688   -0.00192383    0.00240082
     atom   22 type  2   force =     0.00911116   -0.00074933   -0.00515094
     atom   23 type  2   force =     0.00101607    0.00509367   -0.01200483
     atom   24 type  1   force =    -0.00031230    0.00119554    0.00387260
     atom   25 type  2   force =     0.00198069    0.00334699   -0.00731050
     atom   26 type  2   force =    -0.00025698   -0.00240434   -0.00159071
     atom   27 type  1   force =     0.00114848    0.02291952    0.00180818
     atom   28 type  2   force =    -0.00366881   -0.00326957    0.00527407
     atom   29 type  2   force =     0.00451525    0.00456992    0.00322592
     atom   30 type  1   force =    -0.01175609    0.00870183    0.00588534
     atom   31 type  2   force =     0.00656588   -0.01237825   -0.03087759
     atom   32 type  2   force =    -0.00640234   -0.00757105    0.00607735
     atom   33 type  1   force =    -0.00413651    0.00865082    0.00528702
     atom   34 type  2   force =    -0.00729292   -0.00351828   -0.01277289
     atom   35 type  2   force =    -0.00014846    0.00903603   -0.00594435
     atom   36 type  3   force =    -0.01216179   -0.04407442    0.04813037
     The non-local contrib.  to forces
     atom    1 type  1   force =     0.00380536    0.02258214   -0.01132372
     atom    2 type  2   force =     0.00119988   -0.01255362   -0.27240546
     atom    3 type  2   force =    -0.00593855   -0.00683171    0.25534720
     atom    4 type  1   force =     0.00253815    0.01097483    0.00268039
     atom    5 type  2   force =     0.00711708   -0.03123422   -0.25596841
     atom    6 type  2   force =    -0.00249641    0.00539686    0.26929263
     atom    7 type  1   force =    -0.01975852    0.00106117   -0.02621118
     atom    8 type  2   force =     0.00746997   -0.00405253   -0.26321862
     atom    9 type  2   force =    -0.00200908   -0.01729480    0.26125826
     atom   10 type  1   force =    -0.00087511    0.00317316    0.00168721
     atom   11 type  2   force =     0.01242280    0.00009865   -0.26924442
     atom   12 type  2   force =    -0.01485590   -0.02147851    0.26042964
     atom   13 type  1   force =     0.00689007    0.02030807   -0.00473527
     atom   14 type  2   force =     0.00464967   -0.01107304   -0.27137375
     atom   15 type  2   force =    -0.00687446   -0.00575257    0.25999392
     atom   16 type  1   force =    -0.00299205    0.03188022   -0.03686760
     atom   17 type  2   force =    -0.00141921   -0.01886986   -0.24610099
     atom   18 type  2   force =    -0.00190850    0.00156549    0.27949351
     atom   19 type  1   force =     0.00829530   -0.00848292    0.01047556
     atom   20 type  2   force =     0.00703313   -0.02215623    0.25154036
     atom   21 type  1   force =    -0.00382575    0.02527431    0.00575581
[...]
     atom   28 type  2   force =     0.00138586   -0.01160400   -0.27874297
     atom   29 type  2   force =     0.00188219   -0.00658549    0.26677213
     atom   30 type  1   force =     0.00520251    0.00286449    0.02030992
     atom   31 type  2   force =     0.00076405   -0.02995818    0.29952836
     atom   32 type  2   force =     0.00585391   -0.01254625    0.28145447
     atom   33 type  1   force =    -0.00141790    0.00419684    0.00102525
     atom   34 type  2   force =    -0.00000437   -0.00817920   -0.27683964
     atom   35 type  2   force =    -0.00147812   -0.01457596    0.26356569
     atom   36 type  3   force =    -0.03896920    0.02501430   -2.30919858
     The ionic contribution  to forces
     atom    1 type  1   force =    -0.09382359    0.60908188    2.43944006
     atom    2 type  2   force =    -0.28766474    0.03078281   38.75206698
     atom    3 type  2   force =     0.05627368    0.01532088  -37.84051952
     atom    4 type  1   force =    -0.58455649   -0.31448003   -0.65021136
     atom    5 type  2   force =    -0.77231952    0.83480595   38.16434697
     atom    6 type  2   force =     0.17919862   -0.53229820  -38.30222504
     atom    7 type  1   force =    -2.56413650   -1.59801316    0.30980983
     atom    8 type  2   force =    -2.02460813    0.08224856   37.52884207
     atom    9 type  2   force =     0.33073490   -0.12267093  -38.81693878
     atom   10 type  1   force =    -0.71310937    0.21963407    1.48093206
     atom   11 type  2   force =    -0.41256127   -1.11901066   38.15700619
     atom   12 type  2   force =     0.25869539    0.51444028  -38.58910173
     atom   13 type  1   force =     0.23627157    0.22687862    2.01991337
     atom   14 type  2   force =     0.10220356   -0.09693338   38.52841740
     atom   15 type  2   force =     0.01930423   -0.01997267  -37.90710165
     atom   16 type  1   force =     0.54070662    2.74194158    1.00579544
     atom   17 type  2   force =     1.43497746    0.10534583   37.69403138
     atom   18 type  2   force =    -0.11375662   -0.51251323  -38.62277723
     atom   19 type  1   force =     3.36425862   -1.44831113   -2.30576482
     atom   20 type  2   force =     0.06750345   -0.19533613  -39.63004183
     atom   21 type  1   force =     0.29129450    0.42589909   -0.20644831
     atom   22 type  2   force =     1.08989415   -0.31498689   37.87365431
     atom   23 type  2   force =    -0.23496845    0.59541918  -38.79857923
     atom   24 type  1   force =    -0.11299697   -0.05741068    1.95617072
     atom   25 type  2   force =     0.17468804    0.05188873   38.60205112
     atom   26 type  2   force =    -0.08836966    0.00415532  -37.70105893
     atom   27 type  1   force =     0.08090246   -0.97364038   -3.49566901
     atom   28 type  2   force =    -0.62907252   -0.44908488   37.59520981
     atom   29 type  2   force =    -0.08586653   -0.27467632  -38.28016867
     atom   30 type  1   force =    -0.99750119   -0.07603681   -2.04305464
     atom   31 type  2   force =     1.07453270    0.19706988   27.96259698
     atom   32 type  2   force =    -0.37614988   -0.06213725  -38.65893122
     atom   33 type  1   force =     0.38286365    0.67506493    1.84996222
     atom   34 type  2   force =    -0.58107032    0.57170965   38.23581731
     atom   35 type  2   force =     0.00148742    0.39759204  -38.25455228
     atom   36 type  3   force =     0.98674075   -0.13176658   49.94708002
     The local contribution  to forces
     atom    1 type  1   force =     0.09461339   -0.63308341   -2.43233277
     atom    2 type  2   force =     0.28607497   -0.02046098  -38.50343843
     atom    3 type  2   force =    -0.05330175   -0.00464395   37.59490394
     atom    4 type  1   force =     0.57910901    0.30595446    0.64802689
     atom    5 type  2   force =     0.77068825   -0.81299208  -37.92763819
     atom    6 type  2   force =    -0.17927912    0.53327205   38.05423396
     atom    7 type  1   force =     2.58024628    1.59208218   -0.28511392
     atom    8 type  2   force =     2.01636266   -0.08143425  -37.28102427
     atom    9 type  2   force =    -0.32248161    0.13434571   38.57437045
     atom   10 type  1   force =     0.71354756   -0.22671353   -1.48499745
     atom   11 type  2   force =     0.40614216    1.12063472  -37.91400695
     atom   12 type  2   force =    -0.25054688   -0.50030928   38.34614531
     atom   13 type  1   force =    -0.24312536   -0.25150285   -2.01322109
     atom   14 type  2   force =    -0.10076947    0.10612221  -38.27813088
     atom   15 type  2   force =    -0.01965763    0.03035431   37.66483594
     atom   16 type  1   force =    -0.54016911   -2.77376299   -0.96654889
     atom   17 type  2   force =    -1.43287991   -0.08364197  -37.45408682
     atom   18 type  2   force =     0.11347027    0.51428086   38.37536919
     atom   19 type  1   force =    -3.37214357    1.45726787    2.31069018
     atom   20 type  2   force =    -0.06844385    0.20474548   39.39011380
     atom   21 type  1   force =    -0.29176021   -0.45199226    0.20185451
     atom   22 type  2   force =    -1.08475930    0.31708515  -37.62992605
     atom   23 type  2   force =     0.22629435   -0.57960016   38.55703746
     atom   24 type  1   force =     0.11832095    0.04530557   -1.95461000
     atom   25 type  2   force =    -0.17562369   -0.04209771  -38.35285178
     atom   26 type  2   force =     0.08526030    0.00569478   37.45309585
     atom   27 type  1   force =    -0.07887506    0.95216018    3.47365671
     atom   28 type  2   force =     0.62807507    0.45981549  -37.33833177
     atom   29 type  2   force =     0.08482887    0.28142140   38.03322954
     atom   30 type  1   force =     0.99241401    0.07315678    2.02294976
     atom   31 type  2   force =    -1.07544381   -0.16846828  -28.25119681
     atom   32 type  2   force =     0.36984634    0.07348374   38.39950138
     atom   33 type  1   force =    -0.38171025   -0.67894169   -1.85153856
     atom   34 type  2   force =     0.58112006   -0.56401361  -37.97968320
     atom   35 type  2   force =    -0.00041234   -0.38310769   38.01092028
     atom   36 type  3   force =    -0.94833329    0.10622771  -47.66428123
     The core correction contribution to forces
     atom    1 type  1   force =     0.00000000    0.00000000    0.00000000
     atom    2 type  2   force =    -0.00007710    0.00033828    0.02102063
     atom    3 type  2   force =     0.00012658    0.00057675   -0.02089828
     atom    4 type  1   force =     0.00000000    0.00000000    0.00000000
     atom    5 type  2   force =    -0.00027133    0.00101569    0.02056352
     atom    6 type  2   force =     0.00011453   -0.00047481   -0.02096030
     atom    7 type  1   force =     0.00000000    0.00000000    0.00000000
     atom    8 type  2   force =    -0.00045891    0.00034180    0.02119184
     atom    9 type  2   force =     0.00073139    0.00057596   -0.02076787
     atom   10 type  1   force =     0.00000000    0.00000000    0.00000000
     atom   11 type  2   force =    -0.00013102   -0.00017929    0.02085482
     atom   12 type  2   force =     0.00067458    0.00110280   -0.02081641
     atom   13 type  1   force =     0.00000000    0.00000000    0.00000000
     atom   14 type  2   force =     0.00007053    0.00007585    0.02107129
     atom   15 type  2   force =     0.00004994    0.00053943   -0.02075190
     atom   16 type  1   force =     0.00000000    0.00000000    0.00000000
     atom   17 type  2   force =     0.00029437    0.00105432    0.02083185
     atom   18 type  2   force =    -0.00009730   -0.00036471   -0.02095548
     atom   19 type  1   force =     0.00000000    0.00000000    0.00000000
     atom   20 type  2   force =    -0.00000334    0.00027830   -0.02110551
     atom   21 type  1   force =     0.00000000    0.00000000    0.00000000
     atom   22 type  2   force =     0.00009904   -0.00020435    0.02099441
     atom   23 type  2   force =    -0.00083305    0.00125663   -0.02078425
     atom   24 type  1   force =     0.00000000    0.00000000    0.00000000
     atom   25 type  2   force =    -0.00003209    0.00042808    0.02098180
     atom   26 type  2   force =    -0.00018092    0.00043524   -0.02091148
     atom   27 type  1   force =     0.00000000    0.00000000    0.00000000
     atom   28 type  2   force =    -0.00008119    0.00085729    0.02147795
     atom   29 type  2   force =    -0.00015095    0.00013961   -0.02079340
     atom   30 type  1   force =     0.00000000    0.00000000    0.00000000
     atom   31 type  2   force =     0.00004575    0.00170306   -0.00988817
     atom   32 type  2   force =    -0.00061767    0.00065712   -0.02143922
     atom   33 type  1   force =     0.00000000    0.00000000    0.00000000
     atom   34 type  2   force =     0.00000546    0.00030074    0.02151872
     atom   35 type  2   force =     0.00015945    0.00090178   -0.02081596
     atom   36 type  3   force =     0.00042426   -0.00024500    0.02447115
     The Hubbard contrib.    to forces
     atom    1 type  1   force =     0.00000000    0.00000000    0.00000000
     atom    2 type  2   force =     0.00000000    0.00000000    0.00000000
     atom    3 type  2   force =     0.00000000    0.00000000    0.00000000
     atom    4 type  1   force =     0.00000000    0.00000000    0.00000000
     atom    5 type  2   force =     0.00000000    0.00000000    0.00000000
     atom    6 type  2   force =     0.00000000    0.00000000    0.00000000
     atom    7 type  1   force =     0.00000000    0.00000000    0.00000000
     atom    8 type  2   force =     0.00000000    0.00000000    0.00000000
     atom    9 type  2   force =     0.00000000    0.00000000    0.00000000
     atom   10 type  1   force =     0.00000000    0.00000000    0.00000000
     atom   11 type  2   force =     0.00000000    0.00000000    0.00000000
     atom   12 type  2   force =     0.00000000    0.00000000    0.00000000
     atom   13 type  1   force =     0.00000000    0.00000000    0.00000000
     atom   14 type  2   force =     0.00000000    0.00000000    0.00000000
     atom   15 type  2   force =     0.00000000    0.00000000    0.00000000
     atom   16 type  1   force =     0.00000000    0.00000000    0.00000000
     atom   17 type  2   force =     0.00000000    0.00000000    0.00000000
     atom   18 type  2   force =     0.00000000    0.00000000    0.00000000
     atom   19 type  1   force =     0.00000000    0.00000000    0.00000000
     atom   20 type  2   force =     0.00000000    0.00000000    0.00000000
     atom   21 type  1   force =     0.00000000    0.00000000    0.00000000
     atom   22 type  2   force =     0.00000000    0.00000000    0.00000000
     atom   23 type  2   force =     0.00000000    0.00000000    0.00000000
     atom   24 type  1   force =     0.00000000    0.00000000    0.00000000
     atom   25 type  2   force =     0.00000000    0.00000000    0.00000000
     atom   26 type  2   force =     0.00000000    0.00000000    0.00000000
     atom   27 type  1   force =     0.00000000    0.00000000    0.00000000
     atom   28 type  2   force =     0.00000000    0.00000000    0.00000000
     atom   29 type  2   force =     0.00000000    0.00000000    0.00000000
     atom   30 type  1   force =     0.00000000    0.00000000    0.00000000
     atom   31 type  2   force =     0.00000000    0.00000000    0.00000000
     atom   32 type  2   force =     0.00000000    0.00000000    0.00000000
     atom   33 type  1   force =     0.00000000    0.00000000    0.00000000
     atom   34 type  2   force =     0.00000000    0.00000000    0.00000000
     atom   35 type  2   force =     0.00000000    0.00000000    0.00000000
     atom   36 type  3   force =     0.00000000    0.00000000    0.00000000
     The SCF correction term to forces
     atom    1 type  1   force =     0.00000780   -0.00002393    0.00002999
     atom    2 type  2   force =     0.00000247   -0.00000007    0.00000439
     atom    3 type  2   force =     0.00000105   -0.00002480    0.00000002
     atom    4 type  1   force =    -0.00000175    0.00000948    0.00001534
     atom    5 type  2   force =    -0.00000077    0.00000539    0.00001567
     atom    6 type  2   force =     0.00000406    0.00001018   -0.00000163
     atom    7 type  1   force =     0.00000568    0.00001467   -0.00002059
     atom    8 type  2   force =     0.00000050   -0.00000427    0.00000515
     atom    9 type  2   force =    -0.00000130    0.00001464   -0.00000844
     atom   10 type  1   force =    -0.00000579    0.00000294   -0.00002783
     atom   11 type  2   force =     0.00000047    0.00000354   -0.00000433
     atom   12 type  2   force =     0.00000672    0.00000614   -0.00001293
     atom   13 type  1   force =    -0.00000681   -0.00002213    0.00001049
     atom   14 type  2   force =    -0.00000478   -0.00000290    0.00000791
     atom   15 type  2   force =    -0.00000817   -0.00002104   -0.00000495
     atom   16 type  1   force =    -0.00000668    0.00002183    0.00003397
     atom   17 type  2   force =    -0.00000850    0.00000658    0.00000766
     atom   18 type  2   force =    -0.00000180   -0.00000243    0.00000922
     atom   19 type  1   force =    -0.00001227    0.00001478   -0.00000630
     atom   20 type  2   force =     0.00000368    0.00001128   -0.00000601
     atom   21 type  1   force =     0.00000256    0.00000434   -0.00001559
     atom   22 type  2   force =    -0.00001050    0.00000990    0.00000938
     atom   23 type  2   force =    -0.00000590   -0.00000004   -0.00001220
     atom   24 type  1   force =     0.00001008   -0.00001060    0.00002189
     atom   25 type  2   force =    -0.00000024   -0.00000012    0.00001299
     atom   26 type  2   force =     0.00000020   -0.00001167    0.00000151
     atom   27 type  1   force =     0.00000038    0.00001263    0.00004391
     atom   28 type  2   force =     0.00001153    0.00000017    0.00000437
     atom   29 type  2   force =     0.00000219   -0.00000077    0.00001084
     atom   30 type  1   force =     0.00000767    0.00001567   -0.00000730
     atom   31 type  2   force =     0.00000321    0.00000418    0.00000343
     atom   32 type  2   force =    -0.00000478    0.00001081   -0.00000366
     atom   33 type  1   force =    -0.00000226   -0.00001664    0.00000188
     atom   34 type  2   force =     0.00001090   -0.00000009    0.00000811
     atom   35 type  2   force =    -0.00000166    0.00000347   -0.00001296
     atom   36 type  3   force =     0.00001051    0.00004017    0.00001650

     Total force =     0.006076     Total SCF correction =     0.000127
     Energy error            =      8.9E-05 Ry
     Gradient error          =      1.9E-03 Ry/Bohr

     bfgs converged in  21 scf cycles and  20 bfgs steps
     (criteria: energy <  1.0E-04 Ry, force <  1.0E-02 Ry/Bohr)

     End of BFGS Geometry Optimization

     Final energy             =   -2246.4507064422 Ry

     File ./MoS2-V-O.bfgs deleted, as requested
Begin final coordinates

ATOMIC_POSITIONS (angstrom)
Mo            6.5688428747        1.7804419043        2.7774121832
S             8.1412143096        0.8654800111        4.3783098404
S             8.1451603008        0.8771159380        1.1887182065
Mo            8.1234185724        4.5266373233        2.7210357234
S             6.5275480705        3.6946143407        4.3245680392
S             6.5562887282        3.5860454860        1.1292009480
Mo            6.5219356513        7.2178609468        2.6537447867
S             8.0646319429        6.3502793753        4.2942376096
S             8.1339006879        6.3441851768        1.1012567722
Mo            8.1482514933        9.9641333440        2.7659220112
S             6.5278382327        8.9821834254        4.3183287216
S             6.5925054613        9.0707517687        1.1178186892
Mo            3.4438769669        1.7862657546        2.7741806436
S             5.0033980210        0.8344356511        4.3583320145
S             5.0083939418        0.8742152947        1.1775338852
Mo            5.0013806098        4.5778750455        2.6724236357
S             3.4682979645        3.6988379838        4.3239193705
S             3.4628322577        3.5789361665        1.1184359327
Mo            3.5040347694        7.2294593711        2.6407896624
S             5.0107048050        6.3307903709        1.0255776300
Mo            4.9995314197        9.9355226290        2.7276072751
S             3.4829963604        8.9572440891        4.3330363190
S             3.4010644836        9.0779591430        1.1161027278
Mo            0.2673202773        1.7748302641        2.7844131459
S             1.8654524135        0.8732819080        4.3798291464
S             1.8572768683        0.8753751652        1.1968599145
Mo            1.8711583326        4.4931352340        2.7039993980
S             0.2724751098        3.6449986046        4.3315204007
S             0.2536006686        3.5739086692        1.1510172621
Mo            0.2440257671        7.2558090751        2.7271391799
S             1.9077778825        6.3519473541        4.2036817416
S             1.8507487474        6.3460550966        1.1195667555
Mo            1.8639714304        9.9592469698        2.7795351706
S             0.2724556662        9.0522389679        4.3666221292
S             0.2815996323        9.0933638157        1.1692958262
O             1.9279385125        6.3314180797        5.7027888386
End final coordinates



     Writing all to output data dir ./MoS2-V-O.save/
 
     init_run     :      4.64s CPU      4.94s WALL (       1 calls)
     electrons    :   1898.74s CPU   2095.81s WALL (      21 calls)
     update_pot   :     61.11s CPU     63.96s WALL (      20 calls)
     forces       :     57.07s CPU     61.55s WALL (      21 calls)

     Called by init_run:
     wfcinit      :      0.50s CPU      0.54s WALL (       1 calls)
     potinit      :      2.37s CPU      2.53s WALL (       1 calls)
     hinit0       :      0.46s CPU      0.48s WALL (       1 calls)

     Called by electrons:
     c_bands      :    280.35s CPU    285.58s WALL (     194 calls)
     sum_band     :    118.46s CPU    132.11s WALL (     194 calls)
     v_of_rho     :    179.40s CPU    206.43s WALL (     206 calls)
     newd         :     61.63s CPU     72.84s WALL (     206 calls)
     PAW_pot      :      8.19s CPU      8.22s WALL (     226 calls)
     mix_rho      :   1271.93s CPU   1410.98s WALL (     194 calls)

     Called by c_bands:
     init_us_2    :      4.65s CPU      4.79s WALL (     409 calls)
     init_us_2:cp :      4.64s CPU      4.79s WALL (     409 calls)
     regterg      :    266.35s CPU    271.40s WALL (     194 calls)

     Called by *egterg:
     rdiaghg      :     17.34s CPU     17.48s WALL (     976 calls)
     h_psi        :    174.72s CPU    176.37s WALL (    1006 calls)
     s_psi        :     16.06s CPU     16.11s WALL (    1006 calls)
     g_psi        :      0.88s CPU      0.88s WALL (     811 calls)

     Called by h_psi:
     h_psi:calbec :     17.69s CPU     17.76s WALL (    1006 calls)
     vloc_psi     :    138.94s CPU    140.42s WALL (    1006 calls)
     add_vuspsi   :     15.81s CPU     15.90s WALL (    1006 calls)

     General routines
     calbec       :     25.87s CPU     25.98s WALL (    1304 calls)
     fft          :    122.95s CPU    142.62s WALL (   13792 calls)
     ffts         :    564.41s CPU    698.59s WALL (  310620 calls)
     fftw         :     88.27s CPU     89.13s WALL (  119054 calls)
     interpolate  :      2.58s CPU      2.94s WALL (     206 calls)
 
     Parallel routines
 
     PWSCF        :  33m50.46s CPU  37m17.59s WALL

 
   This run was terminated on:  19:34:22   1Nov2023            

=------------------------------------------------------------------------------=
   JOB DONE.
=------------------------------------------------------------------------------=
