
     Program PWSCF v.7.2 starts on  2Nov2023 at 10:38:18 

     This program is part of the open-source Quantum ESPRESSO suite
     for quantum simulation of materials; please cite
         "P. Giannozzi et al., J. Phys.:Condens. Matter 21 395502 (2009);
         "P. Giannozzi et al., J. Phys.:Condens. Matter 29 465901 (2017);
         "P. Giannozzi et al., J. Chem. Phys. 152 154105 (2020);
          URL http://www.quantum-espresso.org", 
     in publications or presentations arising from this work. More details at
     http://www.quantum-espresso.org/quote

     Parallel version (MPI & OpenMP), running on      48 processor cores
     Number of MPI processes:                48
     Threads/MPI process:                     1

     MPI processes distributed on     1 nodes
     130618 MiB available memory on the printing compute node when the environment starts
 
     Waiting for input...
     Reading input from standard input
Warning: card &CELL ignored
Warning: card CELL_DYNAMICS = 'BFGS', ignored
Warning: card CELL_DOFREE = '2DXY' ignored
Warning: card / ignored

     Current dimensions of program PWSCF are:
     Max number of different atomic species (ntypx) = 10
     Max number of k-points (npk) =  40000
     Max angular momentum in pseudopotentials (lmaxx) =  4
     file O.pbe-n-kjpaw_psl.0.1.UPF: wavefunction(s)  2P renormalized

     IMPORTANT: XC functional enforced from input :
     Exchange-correlation= RVV10
                           (   1   4  13   4  26   0   0)
     Any further DFT definition will be discarded
     Please, verify this is what you really want


     gamma-point specific algorithms are used
     signal trapping enabled: kill the code with -SIGUSR1 to stop cleanly the simulation 
 
     R & G space division:  proc/nbgrp/npool/nimage =      48
     Subspace diagonalization in iterative solution of the eigenvalue problem:
     one sub-group per band group will be used
     scalapack distributed-memory algorithm (size of sub-group:  2*  2 procs)

 
     Parallelization info
     --------------------
     sticks:   dense  smooth     PW     G-vecs:    dense   smooth      PW
     Min         396     194     47               101632    35090    4376
     Max         398     196     50               101674    35128    4410
     Sum       19091    9389   2349              4879585  1685513  210763
 
     Using Slab Decomposition
 


     bravais-lattice index     =            0
     lattice parameter (alat)  =      17.8707  a.u.
     unit-cell volume          =   17436.2743 (a.u.)^3
     number of atoms/cell      =           36
     number of atomic types    =            3
     number of electrons       =       312.00
     number of Kohn-Sham states=          187
     kinetic-energy cutoff     =      80.0000  Ry
     charge density cutoff     =     650.0000  Ry
     scf convergence threshold =      1.0E-06
     mixing beta               =       0.7000
     number of iterations used =            8  local-TF  mixing
     energy convergence thresh.=      1.0E-04
     force convergence thresh. =      1.0E-02
     Exchange-correlation= RVV10
                           (   1   4  13   4  26   0   0)
     nstep                     =          200


     celldm(1)=  17.870686  celldm(2)=   0.000000  celldm(3)=   0.000000
     celldm(4)=   0.000000  celldm(5)=   0.000000  celldm(6)=   0.000000

     crystal axes: (cart. coord. in units of alat)
               a(1) = (   1.000000   0.000000   0.000000 )  
               a(2) = (   0.000000   1.155671   0.000000 )  
               a(3) = (   0.000000   0.000000   2.643601 )  

     reciprocal axes: (cart. coord. in units 2 pi/alat)
               b(1) = (  1.000000  0.000000  0.000000 )  
               b(2) = (  0.000000  0.865298  0.000000 )  
               b(3) = (  0.000000  0.000000  0.378272 )  


     PseudoPot. # 1 for Mo read from file:
     ../pseudo/Mo_ONCV_PBE-1.0.oncvpsp.upf
     MD5 check sum: 1b5d28e075c9ccadda658a603575cd1f
     Pseudo is Norm-conserving, Zval = 14.0
     Generated using ONCVPSP code by D. R. Hamann
     Using radial grid of 1526 points,  6 beta functions with: 
                l(1) =   0
                l(2) =   0
                l(3) =   1
                l(4) =   1
                l(5) =   2
                l(6) =   2

     PseudoPot. # 2 for S  read from file:
     ../pseudo/s_pbe_v1.4.uspp.F.UPF
     MD5 check sum: 88d86576ff6df21479756cfb9bdac1df
     Pseudo is Ultrasoft + core correction, Zval =  6.0
     Generated by new atomic code, or converted to UPF format
     Using radial grid of  907 points,  6 beta functions with: 
                l(1) =   0
                l(2) =   0
                l(3) =   1
                l(4) =   1
                l(5) =   2
                l(6) =   2
     Q(r) pseudized with  8 coefficients,  rinner =    1.300   1.300   1.300
                                                       1.300   1.300

     PseudoPot. # 3 for O  read from file:
     ../pseudo/O.pbe-n-kjpaw_psl.0.1.UPF
     MD5 check sum: 0234752ac141de4415c5fc33072bef88
     Pseudo is Projector augmented-wave + core cor, Zval =  6.0
     Generated using "atomic" code by A. Dal Corso  v.5.0.99 svn rev. 10869
     Shape of augmentation charge: BESSEL
     Using radial grid of 1095 points,  4 beta functions with: 
                l(1) =   0
                l(2) =   0
                l(3) =   1
                l(4) =   1
     Q(r) pseudized with 0 coefficients 


     atomic species   valence    mass     pseudopotential
        Mo            14.00    95.94000     Mo( 1.00)
        S              6.00    32.06500     S ( 1.00)
        O              6.00    15.99940     O ( 1.00)

     No symmetry found



   Cartesian axes

     site n.     atom                  positions (alat units)
         1           Mo  tau(   1) = (   0.6952221   0.1890506   0.2985846  )
         2           S   tau(   2) = (   0.8646417   0.0856217   0.4689279  )
         3           S   tau(   3) = (   0.8663890   0.0857843   0.1351291  )
         4           Mo  tau(   4) = (   0.8560186   0.4753274   0.2873942  )
         5           S   tau(   5) = (   0.6873294   0.3936244   0.4596353  )
         6           S   tau(   6) = (   0.6929804   0.3713468   0.1185692  )
         7           Mo  tau(   7) = (   0.6862796   0.7633098   0.2825370  )
         8           S   tau(   8) = (   0.8545980   0.6708292   0.4486168  )
         9           S   tau(   9) = (   0.8545123   0.6666874   0.1146125  )
        10           Mo  tau(  10) = (   0.8629403   1.0471007   0.3006803  )
        11           S   tau(  11) = (   0.6868280   0.9456650   0.4634891  )
        12           S   tau(  12) = (   0.6998113   0.9568511   0.1205389  )
        13           Mo  tau(  13) = (   0.3618216   0.1847309   0.2935964  )
        14           S   tau(  14) = (   0.5260962   0.0863870   0.4600448  )
        15           S   tau(  15) = (   0.5348379   0.0894875   0.1297123  )
        16           Mo  tau(  16) = (   0.5265817   0.4772436   0.2784130  )
        17           S   tau(  17) = (   0.3624753   0.3882513   0.4525556  )
        18           S   tau(  18) = (   0.3635411   0.3752055   0.1119148  )
        19           Mo  tau(  19) = (   0.3652268   0.7630864   0.2781795  )
        20           S   tau(  20) = (   0.5269494   0.6690381   0.1096838  )
        21           Mo  tau(  21) = (   0.5300192   1.0470394   0.2900995  )
        22           S   tau(  22) = (   0.3670346   0.9457522   0.4574073  )
        23           S   tau(  23) = (   0.3604225   0.9585725   0.1159032  )
        24           Mo  tau(  24) = (   0.0313099   0.1847895   0.3013130  )
        25           S   tau(  25) = (   0.1956761   0.0838230   0.4650863  )
        26           S   tau(  26) = (   0.1967693   0.0903508   0.1278874  )
        27           Mo  tau(  27) = (   0.1967578   0.4753919   0.2813011  )
        28           S   tau(  28) = (   0.0287851   0.3864324   0.4586755  )
        29           S   tau(  29) = (   0.0244514   0.3729871   0.1239344  )
        30           Mo  tau(  30) = (   0.0286728   0.7631204   0.2856894  )
        31           S   tau(  31) = (   0.2011512   0.6675435   0.4465001  )
        32           S   tau(  32) = (   0.1969214   0.6672839   0.1104564  )
        33           Mo  tau(  33) = (   0.1950294   1.0511147   0.2932237  )
        34           S   tau(  34) = (   0.0312912   0.9612169   0.4667423  )
        35           S   tau(  35) = (   0.0292670   0.9563028   0.1216485  )
        36           O   tau(  36) = (   0.0000000   0.1284079   0.5650415  )

     number of k points=     1  Gaussian smearing, width (Ry)=  0.0100
                       cart. coord. in units 2pi/alat
        k(    1) = (   0.0000000   0.0000000   0.0000000), wk =   2.0000000

     Dense  grid:  2439793 G-vectors     FFT dimensions: ( 150, 180, 384)

     Smooth grid:   842757 G-vectors     FFT dimensions: ( 108, 120, 270)

     Estimated max dynamical RAM per process >     269.22 MB

     Estimated total dynamical RAM >      12.62 GB

     Initial potential from superposition of free atoms

     starting charge     311.9873, renormalised to     312.0000

     negative rho (up, down):  2.759E-04 0.000E+00


---------------------------------------------------------------------------------
Carrying out rVV10 run using the following parameters:
Nqs =      20    Nr_points =    1024   r_max =   100.000
b_value =  6.30000    beta =  0.00901
     q_mesh =  0.00010000  0.00030000  0.00058939  0.00100810
               0.00161396  0.00249058  0.00375900  0.00559430
               0.00824984  0.01209221  0.01765183  0.02569619
               0.03733578  0.05417739  0.07854596  0.11380545
               0.16482331  0.23864234  0.34545298  0.50000000

Gradients computed in Reciprocal space

---------------------------------------------------------------------------------


     Starting wfcs are  216 randomized atomic wfcs
     Checking if some PAW data can be deallocated... 

     total cpu time spent up to now is        6.1 secs

     Self-consistent Calculation

     iteration #  1     ecut=    80.00 Ry     beta= 0.70
     Davidson diagonalization with overlap
     ethr =  1.00E-02,  avg # of iterations =  2.0

     Threshold (ethr) on eigenvalues was too large:
     Diagonalizing with lowered threshold

     Davidson diagonalization with overlap
     ethr =  4.39E-04,  avg # of iterations =  3.0

     negative rho (up, down):  3.530E-08 0.000E+00

     total cpu time spent up to now is       20.3 secs

     total energy              =   -2246.20406089 Ry
     estimated scf accuracy    <       1.62060324 Ry

     iteration #  2     ecut=    80.00 Ry     beta= 0.70
     Davidson diagonalization with overlap
     ethr =  5.19E-04,  avg # of iterations =  4.0

     total cpu time spent up to now is       25.2 secs

     total energy              =   -2246.20255639 Ry
     estimated scf accuracy    <       0.72458993 Ry

     iteration #  3     ecut=    80.00 Ry     beta= 0.70
     Davidson diagonalization with overlap
     ethr =  2.32E-04,  avg # of iterations =  5.0

     total cpu time spent up to now is       29.1 secs

     total energy              =   -2246.19193304 Ry
     estimated scf accuracy    <       0.24257869 Ry

     iteration #  4     ecut=    80.00 Ry     beta= 0.70
     Davidson diagonalization with overlap
     ethr =  7.77E-05,  avg # of iterations =  2.0

     total cpu time spent up to now is       32.9 secs

     total energy              =   -2246.22734942 Ry
     estimated scf accuracy    <       0.03402800 Ry

     iteration #  5     ecut=    80.00 Ry     beta= 0.70
     Davidson diagonalization with overlap
     ethr =  1.09E-05,  avg # of iterations = 17.0

     total cpu time spent up to now is       37.7 secs

     total energy              =   -2246.22993050 Ry
     estimated scf accuracy    <       0.01842635 Ry

     iteration #  6     ecut=    80.00 Ry     beta= 0.70
     Davidson diagonalization with overlap
     ethr =  5.91E-06,  avg # of iterations =  2.0

     total cpu time spent up to now is       41.4 secs

     total energy              =   -2246.22969454 Ry
     estimated scf accuracy    <       0.01193907 Ry

     iteration #  7     ecut=    80.00 Ry     beta= 0.70
     Davidson diagonalization with overlap
     ethr =  3.83E-06,  avg # of iterations =  1.0

     total cpu time spent up to now is       44.9 secs

     total energy              =   -2246.22871070 Ry
     estimated scf accuracy    <       0.00802505 Ry

     iteration #  8     ecut=    80.00 Ry     beta= 0.70
     Davidson diagonalization with overlap
     ethr =  2.57E-06,  avg # of iterations =  1.0

     negative rho (up, down):  2.912E-03 0.000E+00

     total cpu time spent up to now is       51.0 secs

     total energy              =   -2246.22735915 Ry
     estimated scf accuracy    <       0.00484700 Ry

     iteration #  9     ecut=    80.00 Ry     beta= 0.70
     Davidson diagonalization with overlap
     ethr =  1.55E-06,  avg # of iterations =  2.0

     negative rho (up, down):  1.638E-02 0.000E+00

     total cpu time spent up to now is       57.4 secs

     total energy              =   -2246.22713345 Ry
     estimated scf accuracy    <       0.00254538 Ry

     iteration # 10     ecut=    80.00 Ry     beta= 0.70
     Davidson diagonalization with overlap
     ethr =  8.16E-07,  avg # of iterations =  1.0

     negative rho (up, down):  2.568E-02 0.000E+00

     total cpu time spent up to now is       63.8 secs

     total energy              =   -2246.22716648 Ry
     estimated scf accuracy    <       0.00123305 Ry

     iteration # 11     ecut=    80.00 Ry     beta= 0.70
     Davidson diagonalization with overlap
     ethr =  3.95E-07,  avg # of iterations =  2.0

     negative rho (up, down):  1.755E-02 0.000E+00

     total cpu time spent up to now is       72.2 secs

     total energy              =   -2246.22717482 Ry
     estimated scf accuracy    <       0.00026337 Ry

     iteration # 12     ecut=    80.00 Ry     beta= 0.70
     Davidson diagonalization with overlap
     ethr =  8.44E-08,  avg # of iterations =  4.0

     negative rho (up, down):  5.307E-03 0.000E+00

     total cpu time spent up to now is       79.0 secs

     total energy              =   -2246.22718358 Ry
     estimated scf accuracy    <       0.00004825 Ry

     iteration # 13     ecut=    80.00 Ry     beta= 0.70
     Davidson diagonalization with overlap
     ethr =  1.55E-08,  avg # of iterations = 17.0

     negative rho (up, down):  1.742E-03 0.000E+00

     total cpu time spent up to now is       87.8 secs

     total energy              =   -2246.22721502 Ry
     estimated scf accuracy    <       0.00000978 Ry

     iteration # 14     ecut=    80.00 Ry     beta= 0.70
     Davidson diagonalization with overlap
     ethr =  3.13E-09,  avg # of iterations =  2.0

     negative rho (up, down):  4.402E-04 0.000E+00

     total cpu time spent up to now is       95.8 secs

     total energy              =   -2246.22721624 Ry
     estimated scf accuracy    <       0.00000270 Ry

     iteration # 15     ecut=    80.00 Ry     beta= 0.70
     Davidson diagonalization with overlap
     ethr =  8.64E-10,  avg # of iterations =  2.0

     negative rho (up, down):  2.015E-04 0.000E+00

     total cpu time spent up to now is       99.4 secs

     End of self-consistent calculation

          k = 0.0000 0.0000 0.0000 (105382 PWs)   bands (ev):

   -62.9789 -62.9662 -62.9354 -62.9273 -62.9131 -62.9112 -62.8813 -62.8689
   -62.8536 -62.8493 -62.8152 -62.7727 -37.3078 -37.2471 -37.2398 -37.2322
   -37.2168 -37.1884 -37.1750 -37.1656 -37.1425 -37.1368 -37.1314 -37.1290
   -37.1159 -37.1051 -37.0904 -37.0884 -37.0863 -37.0645 -37.0542 -37.0409
   -37.0312 -37.0130 -37.0088 -36.9994 -36.9865 -36.9829 -36.9801 -36.9610
   -36.9588 -36.9459 -36.9409 -36.9132 -36.9005 -36.8444 -36.8010 -36.7935
   -21.7633 -15.9787 -15.2496 -15.1522 -15.1367 -14.9113 -14.8171 -14.7330
   -14.5598 -14.5118 -14.4933 -14.4395 -14.4088 -14.3556 -14.2765 -14.2362
   -14.1860 -14.1652 -14.0790 -14.0309 -13.9209 -13.9071 -13.8734 -13.6557
    -8.3457  -7.9518  -7.6914  -7.5154  -7.3648  -7.3256  -7.3051  -7.2162
    -7.1786  -7.0044  -6.9048  -6.8390  -6.8129  -6.7313  -6.7207  -6.5981
    -6.5441  -6.5187  -6.4677  -6.3131  -6.0904  -6.0773  -5.9594  -5.9122
    -5.8772  -5.8706  -5.7983  -5.7379  -5.7110  -5.6816  -5.6301  -5.6213
    -5.5776  -5.5356  -5.4321  -5.3317  -5.2655  -5.2240  -5.1353  -5.0505
    -5.0206  -4.9948  -4.9124  -4.8630  -4.7092  -4.6097  -4.4786  -4.4191
    -4.3573  -4.3431  -4.2361  -4.1099  -4.0590  -3.9826  -3.8885  -3.8174
    -3.8013  -3.7741  -3.7051  -3.6620  -3.6338  -3.6053  -3.5712  -3.5227
    -3.5033  -3.4612  -3.2972  -3.2660  -3.1754  -3.0383  -2.9530  -2.8896
    -2.8424  -2.8084  -2.7946  -2.7786  -2.6983  -2.6394  -2.4158  -2.2927
    -2.0936  -2.0670  -1.8966  -1.3015  -0.9478  -0.8130  -0.7422  -0.2448
    -0.1983  -0.1181  -0.0470  -0.0086   0.0737   0.1237   0.1613   0.1810
     0.2046   0.2913   0.3796   0.4255   0.4653   0.4932   0.5107   0.5747
     0.6290   0.6683   0.6837   0.7303   0.7469   0.8097   0.8698   0.8948
     1.0184   1.0774   1.2811

     the Fermi energy is    -1.1251 ev

!    total energy              =   -2246.22721723 Ry
     estimated scf accuracy    <       0.00000073 Ry
     smearing contrib. (-TS)   =      -0.00211609 Ry
     internal energy E=F+TS    =   -2246.22510115 Ry

     The total energy is F=E-TS. E is the sum of the following terms:
     one-electron contribution =  -18466.51827627 Ry
     hartree contribution      =    9221.47411674 Ry
     xc contribution           =    -392.09925807 Ry
     ewald contribution        =    7400.78369860 Ry
     one-center paw contrib.   =      -9.86538214 Ry

     convergence has been achieved in  15 iterations

     negative rho (up, down):  2.015E-04 0.000E+00

     Forces acting on atoms (cartesian axes, Ry/au):

     atom    1 type  1   force =     0.02691434    0.01202725    0.00598755
     atom    2 type  2   force =    -0.01164197   -0.00450452    0.01761726
     atom    3 type  2   force =    -0.01236670    0.01042804   -0.00273160
     atom    4 type  1   force =     0.00517994   -0.00527508   -0.00408973
     atom    5 type  2   force =    -0.00417832   -0.00358744   -0.00589515
     atom    6 type  2   force =    -0.00236008    0.00834131   -0.00062222
     atom    7 type  1   force =     0.00303709   -0.00929125   -0.00798681
     atom    8 type  2   force =     0.00337835   -0.00623448    0.01753332
     atom    9 type  2   force =     0.01263892    0.00749686    0.01214034
     atom   10 type  1   force =     0.01397983    0.00553191   -0.01489454
     atom   11 type  2   force =     0.00076830   -0.00749093   -0.00884510
     atom   12 type  2   force =    -0.00372889   -0.00056143    0.00363008
     atom   13 type  1   force =     0.01644273   -0.00333146   -0.01272473
     atom   14 type  2   force =    -0.00460628   -0.00630609    0.01320236
     atom   15 type  2   force =    -0.01384413    0.00244541   -0.01039603
     atom   16 type  1   force =    -0.00297335    0.01218093    0.00179500
     atom   17 type  2   force =     0.00675769    0.00052025    0.00202292
     atom   18 type  2   force =    -0.00004541   -0.00403453    0.00773355
     atom   19 type  1   force =     0.00628933   -0.01328022   -0.00536373
     atom   20 type  2   force =     0.00278715   -0.00415813    0.00186102
     atom   21 type  1   force =    -0.00385303    0.00717314    0.00434798
     atom   22 type  2   force =    -0.00282367   -0.00080652   -0.00230458
     atom   23 type  2   force =    -0.00062835    0.00030433    0.00804688
     atom   24 type  1   force =     0.00890785    0.02198778   -0.08970668
     atom   25 type  2   force =     0.07572240    0.01146332   -0.03124670
     atom   26 type  2   force =    -0.01230914    0.00251932   -0.00116851
     atom   27 type  1   force =    -0.00629953    0.00576875    0.00997362
     atom   28 type  2   force =     0.00564931    0.02091315   -0.01471215
     atom   29 type  2   force =     0.00530061   -0.00839905   -0.00103319
     atom   30 type  1   force =    -0.00860763    0.01033302   -0.00431563
     atom   31 type  2   force =     0.00126422   -0.00004143    0.01704039
     atom   32 type  2   force =    -0.00892245    0.00715555    0.00640548
     atom   33 type  1   force =     0.00953040   -0.00204727   -0.01021346
     atom   34 type  2   force =     0.00364680   -0.04549102   -0.00706383
     atom   35 type  2   force =    -0.00928922    0.00788351    0.01244031
     atom   36 type  3   force =    -0.09971712   -0.02963298    0.09353632
     The non-local contrib.  to forces
     atom    1 type  1   force =    -0.00579964    0.02049615   -0.00303151
     atom    2 type  2   force =     0.39886617    0.14195102    0.08114065
     atom    3 type  2   force =    -0.01554376   -0.00621318    0.26511864
     atom    4 type  1   force =     0.00674210    0.00795568    0.00744628
     atom    5 type  2   force =     0.00659999   -0.03429127   -0.25361262
     atom    6 type  2   force =    -0.00800586    0.00170652    0.26593580
     atom    7 type  1   force =    -0.01719748   -0.00340355   -0.02138703
     atom    8 type  2   force =     0.00379118   -0.00409329   -0.25474689
     atom    9 type  2   force =     0.00854360   -0.01045860    0.27840873
     atom   10 type  1   force =    -0.01013080    0.00934461   -0.01020326
     atom   11 type  2   force =     0.00461920    0.00469267   -0.25921738
     atom   12 type  2   force =    -0.01263323   -0.01786515    0.26261398
     atom   13 type  1   force =    -0.01201339    0.01234872    0.00071579
     atom   14 type  2   force =    -0.00426930   -0.01295563   -0.25738337
     atom   15 type  2   force =    -0.01227673   -0.00678570    0.26039560
     atom   16 type  1   force =    -0.00274934    0.02851738   -0.03119821
     atom   17 type  2   force =     0.00736758   -0.02244185   -0.24614661
     atom   18 type  2   force =    -0.00605503    0.00352660    0.26708540
     atom   19 type  1   force =     0.01372805   -0.00244837   -0.01604378
     atom   20 type  2   force =     0.00039522   -0.02115940    0.26615313
     atom   21 type  1   force =    -0.00412243    0.01897789    0.00330535
     atom   22 type  2   force =    -0.00919591    0.00195119   -0.26090941
     atom   23 type  2   force =     0.00690140   -0.01392050    0.26866819
     atom   24 type  1   force =     0.01215964    0.01383769   -0.01339659
     atom   25 type  2   force =    -0.00527883   -0.00308650   -0.22436270
     atom   26 type  2   force =    -0.00825475   -0.01395009    0.26483189
     atom   27 type  1   force =    -0.00625833    0.00021066    0.01074549
     atom   28 type  2   force =    -0.00598837    0.03314728   -0.27584526
     atom   29 type  2   force =     0.00710931   -0.00652172    0.26902048
     atom   30 type  1   force =     0.00562062    0.01309741    0.00371214
     atom   31 type  2   force =    -0.00670984    0.00182995   -0.25271291
     atom   32 type  2   force =    -0.00339621   -0.00831329    0.27183610
     atom   33 type  1   force =     0.00183442    0.00708159    0.00440602
     atom   34 type  2   force =    -0.00288594   -0.03568931   -0.27765643
     atom   35 type  2   force =    -0.00968046   -0.01187911    0.26958397
     atom   36 type  3   force =    -1.39487991   -0.55485979   -0.96458379
     The ionic contribution  to forces
     atom    1 type  1   force =    -1.24062687    0.65344923    3.30075438
     atom    2 type  2   force =    -6.57567047   -1.48815818   34.94725582
     atom    3 type  2   force =    -0.39682736   -0.07129573  -37.26684199
     atom    4 type  1   force =    -0.44551913    1.89114771   -1.08257814
     atom    5 type  2   force =    -1.59578338    2.18496543   38.36864161
     atom    6 type  2   force =     0.19972638   -0.31537433  -38.70264805
     atom    7 type  1   force =    -2.88523137   -2.98939829    1.57158665
     atom    8 type  2   force =    -1.13600693    0.16691030   37.13955601
     atom    9 type  2   force =     0.28843046    0.01024122  -38.53978484
     atom   10 type  1   force =    -2.16071500   -2.27659254    2.88725653
     atom   11 type  2   force =    -0.97623587   -2.17425566   38.85723995
     atom   12 type  2   force =     0.32869830    0.51313310  -38.45954599
     atom   13 type  1   force =     1.61216928    1.27836175    0.90885054
     atom   14 type  2   force =    -0.11317289   -0.11360520   38.16653861
     atom   15 type  2   force =     0.10910928   -0.09851376  -37.48639767
     atom   16 type  1   force =    -0.10608636    4.49193160   -0.62354744
     atom   17 type  2   force =     1.28385308    2.03705030   37.58948927
     atom   18 type  2   force =    -0.05258396   -0.48719167  -39.19348354
     atom   19 type  1   force =     2.93223202   -2.62774615   -0.31292793
     atom   20 type  2   force =     0.21861860   -0.17021248  -38.94332068
     atom   21 type  1   force =    -0.11493237   -0.56465635   -0.11972158
     atom   22 type  2   force =     0.76297387   -2.16999732   38.16983246
     atom   23 type  2   force =     0.00149919    0.51001987  -38.86284408
     atom   24 type  1   force =     0.20721218    2.54814520   -1.29783847
     atom   25 type  2   force =     4.35547287   -0.59031915   37.22841988
     atom   26 type  2   force =    -0.02650309    0.00088177  -38.36755857
     atom   27 type  1   force =     0.62016235    1.51654330   -3.86519083
     atom   28 type  2   force =     0.32092238    3.46639692   37.07948189
     atom   29 type  2   force =    -0.23692766   -0.11381852  -38.18147595
     atom   30 type  1   force =    -0.28448795   -1.26124404   -1.24051951
     atom   31 type  2   force =     1.40397886    0.07683668   37.08664150
     atom   32 type  2   force =    -0.41895006    0.03562884  -39.15783837
     atom   33 type  1   force =     1.94872307   -2.39638112   -0.32689787
     atom   34 type  2   force =     0.39700685   -3.07399625   38.74178029
     atom   35 type  2   force =    -0.27607361    0.20033139  -38.57012147
     atom   36 type  3   force =     2.05154528    1.40078212   48.55775758
     The local contribution  to forces
     atom    1 type  1   force =     1.27352410   -0.66197988   -3.29255805
     atom    2 type  2   force =     6.18830603    1.34977213  -35.01213343
     atom    3 type  2   force =     0.39927973    0.08771308   37.01936569
     atom    4 type  1   force =     0.44398545   -1.90460207    1.07003342
     atom    5 type  2   force =     1.58573725   -2.15635659  -38.14169795
     atom    6 type  2   force =    -0.19466339    0.32261818   38.45666988
     atom    7 type  1   force =     2.90557201    2.98353544   -1.55927509
     atom    8 type  2   force =     1.13568827   -0.16956911  -36.88813987
     atom    9 type  2   force =    -0.28416030    0.00710733   38.29414958
     atom   10 type  1   force =     2.18481706    2.27301774   -2.89276852
     atom   11 type  2   force =     0.97275548    2.16273485  -38.62790829
     atom   12 type  2   force =    -0.32087427   -0.49720438   38.22103670
     atom   13 type  1   force =    -1.58376925   -1.29400354   -0.92323732
     atom   14 type  2   force =     0.11286902    0.12006699  -37.91668460
     atom   15 type  2   force =    -0.11127014    0.10733631   37.23576752
     atom   16 type  1   force =     0.10597112   -4.50840819    0.65545492
     atom   17 type  2   force =    -1.28420271   -2.01539886  -37.36177377
     atom   18 type  2   force =     0.05845431    0.48049887   38.95438258
     atom   19 type  1   force =    -2.93964913    2.61689934    0.32243072
     atom   20 type  2   force =    -0.21628367    0.18635289   38.69974138
     atom   21 type  1   force =     0.11534677    0.55304087    0.11972656
     atom   22 type  2   force =    -0.75692354    2.16773051  -37.93226643
     atom   23 type  2   force =    -0.00850407   -0.49698573   38.62270393
     atom   24 type  1   force =    -0.21057795   -2.54010315    1.22085904
     atom   25 type  2   force =    -4.27440525    0.60471317  -37.05509615
     atom   26 type  2   force =     0.02227661    0.01488849   38.12213829
     atom   27 type  1   force =    -0.62033473   -1.51121405    3.86331862
     atom   28 type  2   force =    -0.30970189   -3.47745397  -36.84000442
     atom   29 type  2   force =     0.23567983    0.11209666   37.93184894
     atom   30 type  1   force =     0.27010373    1.25856413    1.23139799
     atom   31 type  2   force =    -1.39645067   -0.07872738  -36.83775215
     atom   32 type  2   force =     0.41350654   -0.02069496   38.91285704
     atom   33 type  1   force =    -1.94118991    2.38746753    0.31138186
     atom   34 type  2   force =    -0.39110567    3.06329544  -38.49290639
     atom   35 type  2   force =     0.27611281   -0.18147699   38.33360026
     atom   36 type  3   force =    -0.77241383   -0.88177956  -47.50973837
     The core correction contribution to forces
     atom    1 type  1   force =     0.00000000    0.00000000    0.00000000
     atom    2 type  2   force =    -0.02307040   -0.00804999    0.00111564
     atom    3 type  2   force =     0.00072980    0.00022921   -0.02069125
     atom    4 type  1   force =     0.00000000    0.00000000    0.00000000
     atom    5 type  2   force =    -0.00065560    0.00197371    0.02040560
     atom    6 type  2   force =     0.00057984   -0.00062537   -0.02099355
     atom    7 type  1   force =     0.00000000    0.00000000    0.00000000
     atom    8 type  2   force =    -0.00009374    0.00050957    0.02046568
     atom    9 type  2   force =    -0.00019291    0.00059313   -0.02106832
     atom   10 type  1   force =     0.00000000    0.00000000    0.00000000
     atom   11 type  2   force =    -0.00025060   -0.00053914    0.02064687
     atom   12 type  2   force =     0.00113269    0.00139250   -0.02085184
     atom   13 type  1   force =     0.00000000    0.00000000    0.00000000
     atom   14 type  2   force =     0.00003909    0.00022952    0.02038064
     atom   15 type  2   force =     0.00061330    0.00044263   -0.02055325
     atom   16 type  1   force =     0.00000000    0.00000000    0.00000000
     atom   17 type  2   force =    -0.00029765    0.00120338    0.02008215
     atom   18 type  2   force =     0.00014512   -0.00087765   -0.02069320
     atom   19 type  1   force =     0.00000000    0.00000000    0.00000000
     atom   20 type  2   force =     0.00009338    0.00081229   -0.02120287
     atom   21 type  1   force =     0.00000000    0.00000000    0.00000000
     atom   22 type  2   force =     0.00026810   -0.00037918    0.02068409
     atom   23 type  2   force =    -0.00052944    0.00122141   -0.02092509
     atom   24 type  1   force =     0.00000000    0.00000000    0.00000000
     atom   25 type  2   force =    -0.00023295    0.00020371    0.01948982
     atom   26 type  2   force =     0.00013851    0.00073329   -0.02094684
     atom   27 type  1   force =     0.00000000    0.00000000    0.00000000
     atom   28 type  2   force =     0.00037820   -0.00134461    0.02135101
     atom   29 type  2   force =    -0.00056745   -0.00018056   -0.02080012
     atom   30 type  1   force =     0.00000000    0.00000000    0.00000000
     atom   31 type  2   force =     0.00039009   -0.00001969    0.02050347
     atom   32 type  2   force =    -0.00009959    0.00048266   -0.02093273
     atom   33 type  1   force =     0.00000000    0.00000000    0.00000000
     atom   34 type  2   force =     0.00056060    0.00108519    0.02141067
     atom   35 type  2   force =     0.00030715    0.00095269   -0.02101668
     atom   36 type  3   force =     0.01583767    0.00617047    0.00968181
     The Hubbard contrib.    to forces
     atom    1 type  1   force =     0.00000000    0.00000000    0.00000000
     atom    2 type  2   force =     0.00000000    0.00000000    0.00000000
     atom    3 type  2   force =     0.00000000    0.00000000    0.00000000
     atom    4 type  1   force =     0.00000000    0.00000000    0.00000000
     atom    5 type  2   force =     0.00000000    0.00000000    0.00000000
     atom    6 type  2   force =     0.00000000    0.00000000    0.00000000
     atom    7 type  1   force =     0.00000000    0.00000000    0.00000000
     atom    8 type  2   force =     0.00000000    0.00000000    0.00000000
     atom    9 type  2   force =     0.00000000    0.00000000    0.00000000
     atom   10 type  1   force =     0.00000000    0.00000000    0.00000000
     atom   11 type  2   force =     0.00000000    0.00000000    0.00000000
     atom   12 type  2   force =     0.00000000    0.00000000    0.00000000
     atom   13 type  1   force =     0.00000000    0.00000000    0.00000000
     atom   14 type  2   force =     0.00000000    0.00000000    0.00000000
     atom   15 type  2   force =     0.00000000    0.00000000    0.00000000
     atom   16 type  1   force =     0.00000000    0.00000000    0.00000000
     atom   17 type  2   force =     0.00000000    0.00000000    0.00000000
     atom   18 type  2   force =     0.00000000    0.00000000    0.00000000
     atom   19 type  1   force =     0.00000000    0.00000000    0.00000000
     atom   20 type  2   force =     0.00000000    0.00000000    0.00000000
     atom   21 type  1   force =     0.00000000    0.00000000    0.00000000
     atom   22 type  2   force =     0.00000000    0.00000000    0.00000000
     atom   23 type  2   force =     0.00000000    0.00000000    0.00000000
     atom   24 type  1   force =     0.00000000    0.00000000    0.00000000
     atom   25 type  2   force =     0.00000000    0.00000000    0.00000000
     atom   26 type  2   force =     0.00000000    0.00000000    0.00000000
     atom   27 type  1   force =     0.00000000    0.00000000    0.00000000
     atom   28 type  2   force =     0.00000000    0.00000000    0.00000000
     atom   29 type  2   force =     0.00000000    0.00000000    0.00000000
     atom   30 type  1   force =     0.00000000    0.00000000    0.00000000
     atom   31 type  2   force =     0.00000000    0.00000000    0.00000000
     atom   32 type  2   force =     0.00000000    0.00000000    0.00000000
     atom   33 type  1   force =     0.00000000    0.00000000    0.00000000
     atom   34 type  2   force =     0.00000000    0.00000000    0.00000000
     atom   35 type  2   force =     0.00000000    0.00000000    0.00000000
     atom   36 type  3   force =     0.00000000    0.00000000    0.00000000
     The SCF correction term to forces
     atom    1 type  1   force =    -0.00018362    0.00006200    0.00080223
     atom    2 type  2   force =    -0.00007367   -0.00001923    0.00021808
     atom    3 type  2   force =    -0.00000547   -0.00000508    0.00029681
     atom    4 type  1   force =    -0.00002885    0.00022386    0.00098820
     atom    5 type  2   force =    -0.00007696    0.00012154    0.00034772
     atom    6 type  2   force =     0.00000258    0.00001657    0.00039321
     atom    7 type  1   force =    -0.00010644   -0.00002459    0.00106816
     atom    8 type  2   force =    -0.00000080    0.00000829    0.00037789
     atom    9 type  2   force =     0.00001771    0.00001404    0.00041470
     atom   10 type  1   force =     0.00000820   -0.00023764    0.00080021
     atom   11 type  2   force =    -0.00012026   -0.00012339    0.00037325
     atom   12 type  2   force =    -0.00005275   -0.00001724    0.00035674
     atom   13 type  1   force =     0.00005572   -0.00003814    0.00092577
     atom   14 type  2   force =    -0.00007258   -0.00004151    0.00033059
     atom   15 type  2   force =    -0.00002021   -0.00003382    0.00037128
     atom   16 type  1   force =    -0.00010914    0.00014039    0.00106524
     atom   17 type  2   force =     0.00003701    0.00010754    0.00035138
     atom   18 type  2   force =    -0.00000621    0.00000958    0.00042181
     atom   19 type  1   force =    -0.00002198    0.00001523    0.00115676
     atom   20 type  2   force =    -0.00003673    0.00004883    0.00046955
     atom   21 type  1   force =    -0.00014537   -0.00018901    0.00101715
     atom   22 type  2   force =     0.00005343   -0.00011146    0.00033421
     atom   23 type  2   force =     0.00000421   -0.00003046    0.00042343
     atom   24 type  1   force =     0.00011361    0.00010830    0.00064884
     atom   25 type  2   force =     0.00016619   -0.00004765    0.00028195
     atom   26 type  2   force =     0.00003321   -0.00003388    0.00034623
     atom   27 type  1   force =     0.00013080    0.00022910    0.00107984
     atom   28 type  2   force =     0.00003862    0.00016779    0.00028413
     atom   29 type  2   force =     0.00000621    0.00002534    0.00035297
     atom   30 type  1   force =     0.00015560   -0.00008422    0.00107325
     atom   31 type  2   force =     0.00005541    0.00003927    0.00033999
     atom   32 type  2   force =     0.00001650    0.00005256    0.00046295
     atom   33 type  1   force =     0.00016246   -0.00021501    0.00087603
     atom   34 type  2   force =     0.00007059   -0.00018583    0.00028753
     atom   35 type  2   force =     0.00004452   -0.00004421    0.00037373
     atom   36 type  3   force =     0.00019330    0.00005403    0.00039860

     Total force =     0.210925     Total SCF correction =     0.003892

     BFGS Geometry Optimization
     Energy error            =      0.0E+00 Ry
     Gradient error          =      1.0E-01 Ry/Bohr

     number of scf cycles    =   1
     number of bfgs steps    =   0

     energy             new  =   -2246.2272172316 Ry

     new trust radius        =       0.1398951806 bohr
     new conv_thr            =       0.0000010000 Ry


ATOMIC_POSITIONS (angstrom)
Mo            6.5887908660        1.7941707783        2.8268115072
S             8.1705486749        0.8073203376        4.4438610042
S             8.1866889125        0.8167600252        1.2764379280
Mo            8.0979036694        4.4922654917        2.7156542012
S             6.4976981844        3.7205130980        4.3435410706
S             6.5521008992        3.5161515845        1.1209509652
Mo            6.4915888545        7.2135205671        2.6676580461
S             8.0835154736        6.3405718456        4.2517397956
S             8.0876058775        6.3086694844        1.0902873883
Mo            8.1680168569        9.9051077748        2.8355799100
S             6.4955741625        8.9389627872        4.3784249066
S             6.6159739544        9.0484141150        1.1418282594
Mo            3.4303607799        1.7451929154        2.7697375274
S             4.9727279506        0.8136041697        4.3575194787
S             5.0505077572        0.8475561626        1.2211571206
Mo            4.9781832516        4.5196238709        2.6338344228
S             3.4314176775        3.6718749912        4.2807800621
S             3.4378965512        3.5460937185        1.0624441020
Mo            3.4571899115        7.2092969487        2.6278384983
S             4.9847090905        6.3247319000        1.0382385392
Mo            5.0102249854        9.9053959120        2.7457018112
S             3.4694638946        8.9433244768        4.3243717788
S             3.4080966591        9.0651510282        1.1003265245
Mo            0.3008043187        1.7591449632        2.8019739771
S             1.8905327832        0.7987601349        4.3816743952
S             1.8542863178        0.8557590841        1.2087825059
Mo            1.8573577392        4.4987194534        2.6654751898
S             0.2752033367        3.6654655860        4.3297987654
S             0.2340361673        3.5228046408        1.1714711427
Mo            0.2665971898        7.2221140929        2.6994126933
S             1.9029072459        6.3127769113        4.2314615066
S             1.8575166554        6.3141303684        1.0479489185
Mo            1.8493899341        9.9390557835        2.7675415228
S             0.2978427014        9.0659250187        4.4101314495
S             0.2718557565        9.0476974901        1.1569839070
O            -0.0527680289        1.1986411221        5.3929590501



     Writing config-only to output data dir ./MoS2-V-O.save/
     NEW-OLD atomic charge density approx. for the potential

     negative rho (up, down):  1.359E-04 0.000E+00

     total cpu time spent up to now is      106.7 secs

     Self-consistent Calculation

     iteration #  1     ecut=    80.00 Ry     beta= 0.70
     Davidson diagonalization with overlap
     c_bands:  1 eigenvalues not converged
     ethr =  1.00E-06,  avg # of iterations = 20.0

     negative rho (up, down):  3.911E-04 0.000E+00

     total cpu time spent up to now is      121.5 secs

     total energy              =   -2246.26314083 Ry
     estimated scf accuracy    <       0.01423328 Ry

     iteration #  2     ecut=    80.00 Ry     beta= 0.70
     Davidson diagonalization with overlap
     ethr =  4.56E-06,  avg # of iterations =  5.0

     negative rho (up, down):  6.677E-04 0.000E+00

     total cpu time spent up to now is      139.4 secs

     total energy              =   -2246.26520791 Ry
     estimated scf accuracy    <       0.00419425 Ry

     iteration #  3     ecut=    80.00 Ry     beta= 0.70
     Davidson diagonalization with overlap
     ethr =  1.34E-06,  avg # of iterations =  4.0

     negative rho (up, down):  1.083E-03 0.000E+00

     total cpu time spent up to now is      149.7 secs

     total energy              =   -2246.26566343 Ry
     estimated scf accuracy    <       0.00050697 Ry

     iteration #  4     ecut=    80.00 Ry     beta= 0.70
     Davidson diagonalization with overlap
     ethr =  1.62E-07,  avg # of iterations =  2.0

     negative rho (up, down):  1.187E-03 0.000E+00

     total cpu time spent up to now is      162.8 secs

     total energy              =   -2246.26569949 Ry
     estimated scf accuracy    <       0.00009927 Ry

     iteration #  5     ecut=    80.00 Ry     beta= 0.70
     Davidson diagonalization with overlap
     ethr =  3.18E-08,  avg # of iterations =  2.0

     negative rho (up, down):  1.151E-03 0.000E+00

     total cpu time spent up to now is      174.5 secs

     total energy              =   -2246.26570531 Ry
     estimated scf accuracy    <       0.00003893 Ry

     iteration #  6     ecut=    80.00 Ry     beta= 0.70
     Davidson diagonalization with overlap
     ethr =  1.25E-08,  avg # of iterations =  5.0

     negative rho (up, down):  9.901E-04 0.000E+00

     total cpu time spent up to now is      185.6 secs

     total energy              =   -2246.26570995 Ry
     estimated scf accuracy    <       0.00000597 Ry

     iteration #  7     ecut=    80.00 Ry     beta= 0.70
     Davidson diagonalization with overlap
     ethr =  1.91E-09,  avg # of iterations =  5.0

     negative rho (up, down):  8.184E-04 0.000E+00

     total cpu time spent up to now is      197.1 secs

     total energy              =   -2246.26571088 Ry
     estimated scf accuracy    <       0.00000238 Ry

     iteration #  8     ecut=    80.00 Ry     beta= 0.70
     Davidson diagonalization with overlap
     ethr =  7.62E-10,  avg # of iterations =  2.0

     negative rho (up, down):  2.037E-04 0.000E+00

     total cpu time spent up to now is      200.4 secs

     End of self-consistent calculation

          k = 0.0000 0.0000 0.0000 (105382 PWs)   bands (ev):

   -62.9924 -62.9536 -62.9424 -62.9340 -62.9186 -62.9098 -62.9022 -62.8959
   -62.8747 -62.8662 -62.8454 -62.8102 -37.3238 -37.2647 -37.2367 -37.2208
   -37.2161 -37.2035 -37.1775 -37.1613 -37.1592 -37.1532 -37.1460 -37.1413
   -37.1174 -37.1131 -37.1042 -37.0906 -37.0849 -37.0797 -37.0715 -37.0613
   -37.0560 -37.0317 -37.0289 -37.0184 -37.0139 -37.0058 -36.9918 -36.9876
   -36.9704 -36.9679 -36.9588 -36.9387 -36.9209 -36.8710 -36.8323 -36.8181
   -21.5927 -16.0013 -15.2709 -15.1711 -15.0889 -14.9386 -14.8244 -14.6335
   -14.5788 -14.5193 -14.5138 -14.4572 -14.4304 -14.3783 -14.2837 -14.2397
   -14.2060 -14.1868 -14.1010 -14.0293 -13.9463 -13.9128 -13.9022 -13.6283
    -8.1097  -7.8870  -7.6259  -7.5174  -7.3946  -7.3533  -7.3113  -7.2323
    -7.1927  -6.9942  -6.9174  -6.8509  -6.8287  -6.7504  -6.7151  -6.6071
    -6.5631  -6.5367  -6.4677  -6.3281  -6.0876  -6.0865  -5.9772  -5.9362
    -5.8959  -5.8909  -5.8008  -5.7704  -5.7377  -5.7080  -5.6513  -5.6242
    -5.5933  -5.5384  -5.4339  -5.3432  -5.2715  -5.2164  -5.1552  -5.0726
    -5.0392  -5.0137  -4.9279  -4.8523  -4.7188  -4.6411  -4.4578  -4.4046
    -4.3741  -4.3438  -4.2567  -4.1359  -4.0644  -3.9917  -3.9149  -3.8457
    -3.8153  -3.7739  -3.7217  -3.6593  -3.6256  -3.5968  -3.5828  -3.5409
    -3.4984  -3.4782  -3.3187  -3.2647  -3.1404  -3.0581  -2.9645  -2.9007
    -2.8704  -2.8196  -2.8088  -2.7959  -2.7217  -2.6574  -2.4369  -2.3295
    -2.1187  -2.0804  -1.9507  -1.4044  -0.9416  -0.8263  -0.7364  -0.2619
    -0.2110  -0.1356  -0.0705   0.0035   0.0779   0.1238   0.1646   0.1706
     0.1995   0.2859   0.3676   0.4171   0.4545   0.4829   0.5018   0.5680
     0.6225   0.6500   0.6796   0.7071   0.7688   0.8138   0.8550   0.8770
     0.9818   1.0768   1.2679

     the Fermi energy is    -1.1734 ev

!    total energy              =   -2246.26570929 Ry
     estimated scf accuracy    <       0.00000095 Ry
     smearing contrib. (-TS)   =      -0.00063381 Ry
     internal energy E=F+TS    =   -2246.26507548 Ry

     The total energy is F=E-TS. E is the sum of the following terms:
     one-electron contribution =  -18459.28974247 Ry
     hartree contribution      =    9217.69044908 Ry
     xc contribution           =    -392.09170322 Ry
     ewald contribution        =    7397.28978946 Ry
     one-center paw contrib.   =      -9.86386834 Ry

     convergence has been achieved in   8 iterations

     negative rho (up, down):  2.037E-04 0.000E+00

     Forces acting on atoms (cartesian axes, Ry/au):

     atom    1 type  1   force =     0.01128684    0.00399456    0.00983430
     atom    2 type  2   force =     0.02435924    0.00713377    0.00687716
     atom    3 type  2   force =    -0.01263120    0.00770910   -0.01094139
     atom    4 type  1   force =     0.00645978   -0.00150026   -0.00067320
     atom    5 type  2   force =    -0.00162868   -0.00149998   -0.00423965
     atom    6 type  2   force =    -0.00208275    0.00715123   -0.00115663
     atom    7 type  1   force =     0.00356165   -0.00821531   -0.00134719
     atom    8 type  2   force =     0.00141599   -0.00576267    0.01163442
     atom    9 type  2   force =     0.01059126    0.00542489    0.00751501
     atom   10 type  1   force =     0.00677534    0.00485023   -0.00297051
     atom   11 type  2   force =     0.00231038   -0.00606853   -0.01045977
     atom   12 type  2   force =    -0.00374170    0.00041079    0.00198934
     atom   13 type  1   force =     0.01178433    0.00264093   -0.01014984
     atom   14 type  2   force =     0.00177504   -0.00246581    0.00667182
     atom   15 type  2   force =    -0.00513371    0.00166502   -0.00756216
     atom   16 type  1   force =    -0.00108124    0.00907549    0.00237345
     atom   17 type  2   force =     0.00583726   -0.00007995    0.00107182
     atom   18 type  2   force =    -0.00052837   -0.00200516    0.00681960
     atom   19 type  1   force =     0.00290984   -0.00936263    0.00001521
     atom   20 type  2   force =     0.00272655   -0.00369240   -0.00255569
     atom   21 type  1   force =    -0.00206667    0.00445375    0.00370436
     atom   22 type  2   force =    -0.00196977   -0.00252169   -0.00350824
     atom   23 type  2   force =     0.00102645   -0.00056978    0.00538518
     atom   24 type  1   force =     0.00190445    0.00833468   -0.04476720
     atom   25 type  2   force =     0.04162365    0.01563501   -0.02584258
     atom   26 type  2   force =    -0.00243050   -0.00018251   -0.01127052
     atom   27 type  1   force =    -0.00293167    0.00462447    0.00515940
     atom   28 type  2   force =     0.00369297    0.00518206   -0.01300948
     atom   29 type  2   force =     0.00605239    0.00306762   -0.01082235
     atom   30 type  1   force =    -0.00384809    0.00371573    0.00295862
     atom   31 type  2   force =     0.00102965    0.00141908    0.01169928
     atom   32 type  2   force =    -0.00755291    0.00645360    0.00551442
     atom   33 type  1   force =     0.00383587   -0.00303231   -0.00437407
     atom   34 type  2   force =     0.00427040   -0.03298483   -0.00935077
     atom   35 type  2   force =    -0.00635052    0.00780492    0.00553366
     atom   36 type  3   force =    -0.10125153   -0.03080311    0.08024419
     The non-local contrib.  to forces
     atom    1 type  1   force =    -0.00318936    0.01603272   -0.00506953
     atom    2 type  2   force =     0.38601983    0.14370518    0.09653370
     atom    3 type  2   force =    -0.01315119   -0.00745757    0.26160995
     atom    4 type  1   force =     0.00780830    0.00649676    0.00590868
     atom    5 type  2   force =     0.00764469   -0.03225337   -0.25269519
     atom    6 type  2   force =    -0.00790345    0.00201576    0.26606838
     atom    7 type  1   force =    -0.01640855   -0.00352849   -0.02402776
     atom    8 type  2   force =     0.00226281   -0.00452731   -0.25920736
     atom    9 type  2   force =     0.00586407   -0.01150312    0.27651062
     atom   10 type  1   force =    -0.00968419    0.01153132   -0.01067944
     atom   11 type  2   force =     0.00660971    0.00614543   -0.26140851
     atom   12 type  2   force =    -0.01214710   -0.01770800    0.26330808
     atom   13 type  1   force =    -0.00987868    0.01375075    0.00018137
     atom   14 type  2   force =     0.00405342   -0.01097676   -0.26304000
     atom   15 type  2   force =    -0.00511926   -0.00705150    0.26156184
     atom   16 type  1   force =    -0.00317153    0.03008990   -0.03210549
     atom   17 type  2   force =     0.00569873   -0.02294907   -0.24826933
     atom   18 type  2   force =    -0.00595296    0.00407769    0.26725906
     atom   19 type  1   force =     0.01461174   -0.00137708   -0.01753633
     atom   20 type  2   force =     0.00067954   -0.01990357    0.26307995
     atom   21 type  1   force =    -0.00544505    0.02068759    0.00255627
     atom   22 type  2   force =    -0.00685107    0.00033529   -0.26257681
     atom   23 type  2   force =     0.00825814   -0.01544987    0.26756149
     atom   24 type  1   force =     0.00767517    0.01722560   -0.00166878
     atom   25 type  2   force =     0.00769941   -0.00677340   -0.23761302
     atom   26 type  2   force =    -0.00059745   -0.01556767    0.26010830
     atom   27 type  1   force =    -0.00822756    0.00020521    0.00912372
     atom   28 type  2   force =    -0.00609092    0.02028320   -0.27587554
     atom   29 type  2   force =     0.00581914    0.00045768    0.26285734
     atom   30 type  1   force =     0.00556894    0.01526950    0.00379242
     atom   31 type  2   force =    -0.00819284    0.00302657   -0.25701229
     atom   32 type  2   force =    -0.00221477   -0.00808502    0.27199404
     atom   33 type  1   force =     0.00051321    0.00754736    0.00358541
     atom   34 type  2   force =    -0.00237411   -0.02750451   -0.27942089
     atom   35 type  2   force =    -0.00679720   -0.01201697    0.26594096
     atom   36 type  3   force =    -1.48316405   -0.54238112   -1.01418065
     The ionic contribution  to forces
     atom    1 type  1   force =    -1.49019655    0.43301861    3.61090810
     atom    2 type  2   force =    -6.19615036   -1.47017491   34.65190858
     atom    3 type  2   force =    -0.55777140   -0.21846268  -37.27154802
     atom    4 type  1   force =    -0.51956333    1.98841784   -1.02545023
     atom    5 type  2   force =    -1.58832031    2.19288746   38.36875701
     atom    6 type  2   force =     0.11754659   -0.32095447  -38.68730082
     atom    7 type  1   force =    -2.86795080   -2.78548164    1.49559347
     atom    8 type  2   force =    -1.16408637    0.17060297   37.25019760
     atom    9 type  2   force =     0.27009511   -0.01214742  -38.50031535
     atom   10 type  1   force =    -2.19357807   -2.04504598    2.87186166
     atom   11 type  2   force =    -0.92953140   -2.13581636   38.74426078
     atom   12 type  2   force =     0.27911324    0.54120332  -38.36395229
     atom   13 type  1   force =     1.61858019    1.39141526    0.73119432
     atom   14 type  2   force =    -0.04619783   -0.07396402   38.21029831
     atom   15 type  2   force =     0.25214560   -0.10585538  -37.47399107
     atom   16 type  1   force =    -0.10545212    4.31781977   -0.46906320
     atom   17 type  2   force =     1.22483367    1.94438503   37.61110502
     atom   18 type  2   force =    -0.04811295   -0.43016721  -39.11004255
     atom   19 type  1   force =     2.85575332   -2.45667080   -0.33650658
     atom   20 type  2   force =     0.21423569   -0.14166739  -39.00202848
     atom   21 type  1   force =     0.08675493   -0.58771470    0.08716794
     atom   22 type  2   force =     0.74106196   -2.18518732   38.16381945
     atom   23 type  2   force =     0.04692364    0.46520588  -38.80663384
     atom   24 type  1   force =     0.23247852    1.95377085   -2.10165240
     atom   25 type  2   force =     3.53031121   -0.37652830   37.18418192
     atom   26 type  2   force =     0.13761054   -0.12033044  -38.37417884
     atom   27 type  1   force =     0.77207742    1.52100884   -3.45689162
     atom   28 type  2   force =     0.33714843    3.02418234   37.10410343
     atom   29 type  2   force =    -0.21326736    0.15025766  -38.31114086
     atom   30 type  1   force =    -0.16890447   -1.35282274   -1.23729633
     atom   31 type  2   force =     1.40256445    0.13095536   37.17826386
     atom   32 type  2   force =    -0.40388440    0.02716607  -39.11031596
     atom   33 type  1   force =     1.71400659   -2.24124239   -0.18190690
     atom   34 type  2   force =     0.41978665   -2.78104513   38.72710476
     atom   35 type  2   force =    -0.22893384    0.19188402  -38.53344120
     atom   36 type  3   force =     2.46887383    1.39709800   48.36293033
     The local contribution  to forces
     atom    1 type  1   force =     1.50407585   -0.44497818   -3.59500576
     atom    2 type  2   force =     5.85639710    1.34160976  -34.74108273
     atom    3 type  2   force =     0.55769569    0.23348860   37.01973437
     atom    4 type  1   force =     0.51781374   -1.99588854    1.01981701
     atom    5 type  2   force =     1.57960268   -2.16395720  -38.14018159
     atom    6 type  2   force =    -0.11244366    0.32683962   38.44117450
     atom    7 type  1   force =     2.88772266    2.78075597   -1.47189109
     atom    8 type  2   force =     1.16316513   -0.17226799  -36.99952185
     atom    9 type  2   force =    -0.26543476    0.02853589   38.25256644
     atom   10 type  1   force =     2.20943273    2.03788261   -2.86306468
     atom   11 type  2   force =     0.92537530    2.12408575  -38.51348926
     atom   12 type  2   force =    -0.27191661   -0.52465896   38.12368207
     atom   13 type  1   force =    -1.59632100   -1.40228616   -0.74047629
     atom   14 type  2   force =     0.04428807    0.08223256  -37.96058872
     atom   15 type  2   force =    -0.25254548    0.11414998   37.22556544
     atom   16 type  1   force =     0.10749476   -4.33869027    0.50427344
     atom   17 type  2   force =    -1.22430055   -1.92255507  -37.38138297
     atom   18 type  2   force =     0.05364064    0.42509749   38.87039847
     atom   19 type  1   force =    -2.86727438    2.44852910    0.35500949
     atom   20 type  2   force =    -0.21227344    0.15709511   38.75774183
     atom   21 type  1   force =    -0.08321494    0.57115017   -0.08486535
     atom   22 type  2   force =    -0.73613697    2.18254407  -37.92497247
     atom   23 type  2   force =    -0.05346339   -0.45177019   38.56551609
     atom   24 type  1   force =    -0.23836993   -1.96249778    2.05944319
     atom   25 type  2   force =    -3.49491159    0.39842272  -36.99195925
     atom   26 type  2   force =    -0.13928069    0.13504750   38.12366601
     atom   27 type  1   force =    -0.76630831   -1.51608591    3.45384093
     atom   28 type  2   force =    -0.32769716   -3.03810665  -36.86206033
     atom   29 type  2   force =     0.21399410   -0.14729170   38.05827313
     atom   30 type  1   force =     0.15950947    1.34101650    1.23748361
     atom   31 type  2   force =    -1.39369277   -0.13250536  -36.92972937
     atom   32 type  2   force =     0.39884563   -0.01304442   38.86495968
     atom   33 type  1   force =    -1.71026498    2.23012279    0.17500629
     atom   34 type  2   force =    -0.41370286    2.77450892  -38.47797803
     atom   35 type  2   force =     0.22915299   -0.17324735   38.29408176
     atom   36 type  3   force =    -1.10394951   -0.89162110  -47.27817254
     The core correction contribution to forces
     atom    1 type  1   force =     0.00000000    0.00000000    0.00000000
     atom    2 type  2   force =    -0.02209981   -0.00804115    0.00013412
     atom    3 type  2   force =     0.00045465    0.00017397   -0.02062714
     atom    4 type  1   force =     0.00000000    0.00000000    0.00000000
     atom    5 type  2   force =    -0.00071573    0.00191621    0.02039065
     atom    6 type  2   force =     0.00051769   -0.00063482   -0.02100208
     atom    7 type  1   force =     0.00000000    0.00000000    0.00000000
     atom    8 type  2   force =    -0.00002025    0.00051419    0.02062428
     atom    9 type  2   force =    -0.00005349    0.00059878   -0.02104775
     atom   10 type  1   force =     0.00000000    0.00000000    0.00000000
     atom   11 type  2   force =    -0.00027828   -0.00060241    0.02070022
     atom   12 type  2   force =     0.00108454    0.00140724   -0.02085025
     atom   13 type  1   force =     0.00000000    0.00000000    0.00000000
     atom   14 type  2   force =    -0.00031867    0.00018960    0.02060430
     atom   15 type  2   force =     0.00041739    0.00046375   -0.02057723
     atom   16 type  1   force =     0.00000000    0.00000000    0.00000000
     atom   17 type  2   force =    -0.00023710    0.00116574    0.02014955
     atom   18 type  2   force =     0.00009749   -0.00085164   -0.02070867
     atom   19 type  1   force =     0.00000000    0.00000000    0.00000000
     atom   20 type  2   force =     0.00009008    0.00076527   -0.02114171
     atom   21 type  1   force =     0.00000000    0.00000000    0.00000000
     atom   22 type  2   force =     0.00012022   -0.00034244    0.02075490
     atom   23 type  2   force =    -0.00056046    0.00126599   -0.02090265
     atom   24 type  1   force =     0.00000000    0.00000000    0.00000000
     atom   25 type  2   force =    -0.00128371    0.00047602    0.02020379
     atom   26 type  2   force =    -0.00008393    0.00071061   -0.02078738
     atom   27 type  1   force =     0.00000000    0.00000000    0.00000000
     atom   28 type  2   force =     0.00034220   -0.00097793    0.02141840
     atom   29 type  2   force =    -0.00049105   -0.00027227   -0.02068001
     atom   30 type  1   force =     0.00000000    0.00000000    0.00000000
     atom   31 type  2   force =     0.00043089   -0.00000298    0.02064216
     atom   32 type  2   force =    -0.00018190    0.00044957   -0.02095087
     atom   33 type  1   force =     0.00000000    0.00000000    0.00000000
     atom   34 type  2   force =     0.00054483    0.00080803    0.02152831
     atom   35 type  2   force =     0.00021411    0.00095036   -0.02094759
     atom   36 type  3   force =     0.01671157    0.00603280    0.01034212
     The Hubbard contrib.    to forces
     atom    1 type  1   force =     0.00000000    0.00000000    0.00000000
     atom    2 type  2   force =     0.00000000    0.00000000    0.00000000
     atom    3 type  2   force =     0.00000000    0.00000000    0.00000000
     atom    4 type  1   force =     0.00000000    0.00000000    0.00000000
     atom    5 type  2   force =     0.00000000    0.00000000    0.00000000
     atom    6 type  2   force =     0.00000000    0.00000000    0.00000000
     atom    7 type  1   force =     0.00000000    0.00000000    0.00000000
     atom    8 type  2   force =     0.00000000    0.00000000    0.00000000
     atom    9 type  2   force =     0.00000000    0.00000000    0.00000000
     atom   10 type  1   force =     0.00000000    0.00000000    0.00000000
     atom   11 type  2   force =     0.00000000    0.00000000    0.00000000
     atom   12 type  2   force =     0.00000000    0.00000000    0.00000000
     atom   13 type  1   force =     0.00000000    0.00000000    0.00000000
     atom   14 type  2   force =     0.00000000    0.00000000    0.00000000
     atom   15 type  2   force =     0.00000000    0.00000000    0.00000000
     atom   16 type  1   force =     0.00000000    0.00000000    0.00000000
     atom   17 type  2   force =     0.00000000    0.00000000    0.00000000
     atom   18 type  2   force =     0.00000000    0.00000000    0.00000000
     atom   19 type  1   force =     0.00000000    0.00000000    0.00000000
     atom   20 type  2   force =     0.00000000    0.00000000    0.00000000
     atom   21 type  1   force =     0.00000000    0.00000000    0.00000000
     atom   22 type  2   force =     0.00000000    0.00000000    0.00000000
     atom   23 type  2   force =     0.00000000    0.00000000    0.00000000
     atom   24 type  1   force =     0.00000000    0.00000000    0.00000000
     atom   25 type  2   force =     0.00000000    0.00000000    0.00000000
     atom   26 type  2   force =     0.00000000    0.00000000    0.00000000
     atom   27 type  1   force =     0.00000000    0.00000000    0.00000000
     atom   28 type  2   force =     0.00000000    0.00000000    0.00000000
     atom   29 type  2   force =     0.00000000    0.00000000    0.00000000
     atom   30 type  1   force =     0.00000000    0.00000000    0.00000000
     atom   31 type  2   force =     0.00000000    0.00000000    0.00000000
     atom   32 type  2   force =     0.00000000    0.00000000    0.00000000
     atom   33 type  1   force =     0.00000000    0.00000000    0.00000000
     atom   34 type  2   force =     0.00000000    0.00000000    0.00000000
     atom   35 type  2   force =     0.00000000    0.00000000    0.00000000
     atom   36 type  3   force =     0.00000000    0.00000000    0.00000000
     The SCF correction term to forces
     atom    1 type  1   force =     0.00059815   -0.00007905   -0.00097678
     atom    2 type  2   force =     0.00019374    0.00003442   -0.00059479
     atom    3 type  2   force =     0.00014230   -0.00003369   -0.00008883
     atom    4 type  1   force =     0.00040232   -0.00052678   -0.00092693
     atom    5 type  2   force =     0.00016124   -0.00009354   -0.00048880
     atom    6 type  2   force =     0.00020133   -0.00011534   -0.00007488
     atom    7 type  1   force =     0.00019959    0.00003838   -0.00100008
     atom    8 type  2   force =     0.00009592   -0.00008498   -0.00043653
     atom    9 type  2   force =     0.00012159   -0.00005970   -0.00017721
     atom   10 type  1   force =     0.00060613    0.00048182   -0.00106632
     atom   11 type  2   force =     0.00013630    0.00011860   -0.00050127
     atom   12 type  2   force =     0.00012548    0.00016674   -0.00017654
     atom   13 type  1   force =    -0.00059493   -0.00023938   -0.00102751
     atom   14 type  2   force =    -0.00004869    0.00005235   -0.00058034
     atom   15 type  2   force =    -0.00003069   -0.00004228   -0.00009942
     atom   16 type  1   force =     0.00004891   -0.00014436   -0.00070957
     atom   17 type  2   force =    -0.00015624   -0.00012705   -0.00050872
     atom   18 type  2   force =    -0.00019933   -0.00016195   -0.00006498
     atom   19 type  1   force =    -0.00017959    0.00015570   -0.00092964
     atom   20 type  2   force =    -0.00000406    0.00001773   -0.00018554
     atom   21 type  1   force =    -0.00016036    0.00033022   -0.00113277
     atom   22 type  2   force =    -0.00016265    0.00012824   -0.00051158
     atom   23 type  2   force =    -0.00013023    0.00017795   -0.00013419
     atom   24 type  1   force =     0.00012194   -0.00016445   -0.00086748
     atom   25 type  2   force =    -0.00019041    0.00003751   -0.00063429
     atom   26 type  2   force =    -0.00007772   -0.00004297   -0.00005688
     atom   27 type  1   force =    -0.00047196   -0.00050413   -0.00089190
     atom   28 type  2   force =    -0.00000833   -0.00019937   -0.00057371
     atom   29 type  2   force =    -0.00000118   -0.00008421   -0.00011023
     atom   30 type  1   force =    -0.00002078    0.00025201   -0.00099935
     atom   31 type  2   force =    -0.00007883   -0.00005498   -0.00044335
     atom   32 type  2   force =    -0.00011621   -0.00003305   -0.00015073
     atom   33 type  1   force =    -0.00041770    0.00053948   -0.00103714
     atom   34 type  2   force =     0.00001714    0.00024740   -0.00056319
     atom   35 type  2   force =     0.00001467    0.00023441   -0.00007854
     atom   36 type  3   force =     0.00027788    0.00006785   -0.00065335

     Total force =     0.165744     Total SCF correction =     0.004351
     Energy error            =      3.8E-02 Ry
     Gradient error          =      1.0E-01 Ry/Bohr

     number of scf cycles    =   2
     number of bfgs steps    =   1

     energy             old  =   -2246.2272172316 Ry
     energy             new  =   -2246.2657092866 Ry

     CASE: energy            _new < energy            _old

     new trust radius        =       0.1538846987 bohr
     new conv_thr            =       0.0000001013 Ry


ATOMIC_POSITIONS (angstrom)
Mo            6.5980016387        1.7978112040        2.8321802999
S             8.1798197429        0.8098688412        4.4496585115
S             8.1790818298        0.8218409760        1.2710626080
Mo            8.1016199202        4.4907829351        2.7147268748
S             6.4963242606        3.7192874038        4.3407224092
S             6.5507977468        3.5206622020        1.1203320026
Mo            6.4936653858        7.2083830825        2.6658323467
S             8.0846712878        6.3370111716        4.2596810190
S             8.0943296619        6.3122690826        1.0955408453
Mo            8.1732148568        9.9081479560        2.8319674992
S             6.4967383444        8.9350723251        4.3723378742
S             6.6137105614        9.0485149197        1.1432822699
Mo            3.4382040472        1.7458832492        2.7632007871
S             4.9728318413        0.8115270788        4.3625522773
S             5.0460745576        0.8486829378        1.2161476463
Mo            4.9772407945        4.5255908773        2.6351833859
S             3.4350917578        3.6719178938        4.2815736629
S             3.4376501301        3.5445710120        1.0667119366
Mo            3.4594657320        7.2030325519        2.6270294242
S             4.9863690470        6.3224255583        1.0373631467
Mo            5.0087020059        9.9085060414        2.7480424564
S             3.4681414344        8.9420586905        4.3224308916
S             3.4084663646        9.0649390411        1.1039917988
Mo            0.3030227405        1.7662680467        2.7680340000
S             1.9209203864        0.8075914256        4.3652063836
S             1.8513120060        0.8560596103        1.2034957785
Mo            1.8550704685        4.5016933263        2.6693312250
S             0.2777367905        3.6709960938        4.3216634027
S             0.2375861032        3.5229174787        1.1664081565
Mo            0.2635433797        7.2253703804        2.7000973176
S             1.9035663107        6.3134138819        4.2393571430
S             1.8527355450        6.3181443660        1.0514230757
Mo            1.8525785832        9.9373697814        2.7640049934
S             0.3003332656        9.0440524487        4.4048181097
S             0.2675638972        9.0524347887        1.1613848489
O            -0.1138354142        1.1801699725        5.4435634630



     Writing config-only to output data dir ./MoS2-V-O.save/
     NEW-OLD atomic charge density approx. for the potential

     negative rho (up, down):  1.355E-04 0.000E+00

     total cpu time spent up to now is      207.6 secs

     Self-consistent Calculation

     iteration #  1     ecut=    80.00 Ry     beta= 0.70
     Davidson diagonalization with overlap
     ethr =  1.00E-06,  avg # of iterations = 11.0

     negative rho (up, down):  2.127E-04 0.000E+00

     total cpu time spent up to now is      219.7 secs

     total energy              =   -2246.29328243 Ry
     estimated scf accuracy    <       0.00907032 Ry

     iteration #  2     ecut=    80.00 Ry     beta= 0.70
     Davidson diagonalization with overlap
     ethr =  2.91E-06,  avg # of iterations =  5.0

     negative rho (up, down):  3.247E-04 0.000E+00

     total cpu time spent up to now is      230.5 secs

     total energy              =   -2246.29492966 Ry
     estimated scf accuracy    <       0.00347048 Ry

     iteration #  3     ecut=    80.00 Ry     beta= 0.70
     Davidson diagonalization with overlap
     ethr =  1.11E-06,  avg # of iterations =  4.0

     negative rho (up, down):  4.474E-04 0.000E+00

     total cpu time spent up to now is      247.1 secs

     total energy              =   -2246.29519684 Ry
     estimated scf accuracy    <       0.00030696 Ry

     iteration #  4     ecut=    80.00 Ry     beta= 0.70
     Davidson diagonalization with overlap
     ethr =  9.84E-08,  avg # of iterations =  4.0

     negative rho (up, down):  4.961E-04 0.000E+00

     total cpu time spent up to now is      260.3 secs

     total energy              =   -2246.29523398 Ry
     estimated scf accuracy    <       0.00005402 Ry

     iteration #  5     ecut=    80.00 Ry     beta= 0.70
     Davidson diagonalization with overlap
     ethr =  1.73E-08,  avg # of iterations =  5.0

     negative rho (up, down):  5.061E-04 0.000E+00

     total cpu time spent up to now is      272.4 secs

     total energy              =   -2246.29523761 Ry
     estimated scf accuracy    <       0.00001830 Ry

     iteration #  6     ecut=    80.00 Ry     beta= 0.70
     Davidson diagonalization with overlap
     ethr =  5.87E-09,  avg # of iterations =  5.0

     negative rho (up, down):  4.824E-04 0.000E+00

     total cpu time spent up to now is      287.2 secs

     total energy              =   -2246.29524050 Ry
     estimated scf accuracy    <       0.00000217 Ry

     iteration #  7     ecut=    80.00 Ry     beta= 0.70
     Davidson diagonalization with overlap
     ethr =  6.96E-10,  avg # of iterations =  6.0

     negative rho (up, down):  4.409E-04 0.000E+00

     total cpu time spent up to now is      298.6 secs

     total energy              =   -2246.29524133 Ry
     estimated scf accuracy    <       0.00000073 Ry

     iteration #  8     ecut=    80.00 Ry     beta= 0.70
     Davidson diagonalization with overlap
     ethr =  2.33E-10,  avg # of iterations =  2.0

     negative rho (up, down):  3.737E-04 0.000E+00

     total cpu time spent up to now is      310.5 secs

     total energy              =   -2246.29524146 Ry
     estimated scf accuracy    <       0.00000036 Ry

     iteration #  9     ecut=    80.00 Ry     beta= 0.70
     Davidson diagonalization with overlap
     ethr =  1.15E-10,  avg # of iterations =  2.0

     negative rho (up, down):  3.342E-04 0.000E+00

     total cpu time spent up to now is      319.0 secs

     total energy              =   -2246.29524151 Ry
     estimated scf accuracy    <       0.00000013 Ry

     iteration # 10     ecut=    80.00 Ry     beta= 0.70
     Davidson diagonalization with overlap
     ethr =  4.02E-11,  avg # of iterations =  4.0

     negative rho (up, down):  2.040E-04 0.000E+00

     total cpu time spent up to now is      322.4 secs

     End of self-consistent calculation

          k = 0.0000 0.0000 0.0000 (105382 PWs)   bands (ev):

   -63.0084 -62.9649 -62.9479 -62.9443 -62.9218 -62.9169 -62.9128 -62.8934
   -62.8785 -62.8677 -62.8572 -62.8442 -37.3361 -37.2782 -37.2493 -37.2224
   -37.2128 -37.2066 -37.1883 -37.1755 -37.1675 -37.1633 -37.1549 -37.1537
   -37.1261 -37.1226 -37.1020 -37.0987 -37.0923 -37.0857 -37.0819 -37.0726
   -37.0503 -37.0460 -37.0363 -37.0312 -37.0276 -37.0188 -37.0107 -36.9943
   -36.9777 -36.9752 -36.9692 -36.9534 -36.9293 -36.8858 -36.8546 -36.8364
   -21.7494 -16.0188 -15.2863 -15.1873 -15.0770 -14.9544 -14.8390 -14.5926
   -14.5894 -14.5312 -14.5048 -14.4666 -14.4463 -14.3942 -14.2810 -14.2415
   -14.2184 -14.2003 -14.1187 -14.0360 -13.9608 -13.9335 -13.9023 -13.6072
    -8.0034  -7.8731  -7.6041  -7.5259  -7.4191  -7.3724  -7.3272  -7.2463
    -7.2117  -7.0044  -6.9317  -6.8678  -6.8470  -6.7619  -6.7272  -6.6194
    -6.5804  -6.5523  -6.4684  -6.3473  -6.1002  -6.0943  -5.9950  -5.9556
    -5.9145  -5.9018  -5.8080  -5.7901  -5.7536  -5.7315  -5.6746  -5.6332
    -5.5985  -5.5515  -5.4417  -5.3551  -5.2821  -5.2182  -5.1735  -5.0909
    -5.0539  -5.0364  -4.9443  -4.8433  -4.7307  -4.6636  -4.4678  -4.4060
    -4.3804  -4.3505  -4.2764  -4.1528  -4.0680  -4.0010  -3.9441  -3.8678
    -3.8298  -3.7809  -3.7305  -3.6689  -3.6198  -3.5962  -3.5892  -3.5531
    -3.4988  -3.4821  -3.3415  -3.2610  -3.1267  -3.0658  -2.9900  -2.9033
    -2.8793  -2.8335  -2.8179  -2.8045  -2.7390  -2.6698  -2.4699  -2.3617
    -2.1359  -2.0929  -1.9962  -1.5475  -0.9350  -0.8403  -0.7110  -0.2740
    -0.2261  -0.1490  -0.0892   0.0094   0.0751   0.1218   0.1612   0.1701
     0.1989   0.2810   0.3555   0.4071   0.4439   0.4772   0.4874   0.5594
     0.6127   0.6379   0.6764   0.6956   0.7836   0.8100   0.8398   0.8682
     0.9580   1.0781   1.2517

     the Fermi energy is    -1.2416 ev

!    total energy              =   -2246.29524161 Ry
     estimated scf accuracy    <       0.00000004 Ry
     smearing contrib. (-TS)   =      -0.00007209 Ry
     internal energy E=F+TS    =   -2246.29516952 Ry

     The total energy is F=E-TS. E is the sum of the following terms:
     one-electron contribution =  -18451.75316705 Ry
     hartree contribution      =    9213.83663371 Ry
     xc contribution           =    -392.10506395 Ry
     ewald contribution        =    7393.58836135 Ry
     one-center paw contrib.   =      -9.86193358 Ry

     convergence has been achieved in  10 iterations

     negative rho (up, down):  2.040E-04 0.000E+00

     Forces acting on atoms (cartesian axes, Ry/au):

     atom    1 type  1   force =     0.00030246   -0.00197267    0.00986382
     atom    2 type  2   force =     0.03615063    0.01193937   -0.01040917
     atom    3 type  2   force =    -0.01230996    0.00531750   -0.01368029
     atom    4 type  1   force =     0.00551463    0.00179883   -0.00011563
     atom    5 type  2   force =     0.00029295    0.00046883   -0.00228609
     atom    6 type  2   force =    -0.00106785    0.00583338    0.00009628
     atom    7 type  1   force =     0.00332061   -0.00704893    0.00157761
     atom    8 type  2   force =     0.00031226   -0.00542149    0.00796774
     atom    9 type  2   force =     0.00865199    0.00374479    0.00430300
     atom   10 type  1   force =     0.00069634    0.00421893    0.00304640
     atom   11 type  2   force =     0.00340449   -0.00425881   -0.00986687
     atom   12 type  2   force =    -0.00318445    0.00069711    0.00187564
     atom   13 type  1   force =     0.00822401    0.00617026   -0.00966916
     atom   14 type  2   force =     0.00605770    0.00028507    0.00282680
     atom   15 type  2   force =     0.00100952    0.00066218   -0.00503610
     atom   16 type  1   force =     0.00083539    0.00629288    0.00203819
     atom   17 type  2   force =     0.00450163   -0.00018280    0.00057871
     atom   18 type  2   force =    -0.00071437    0.00009427    0.00610752
     atom   19 type  1   force =     0.00126065   -0.00588193    0.00233083
     atom   20 type  2   force =     0.00259110   -0.00285396   -0.00447368
     atom   21 type  1   force =    -0.00096767    0.00237160    0.00177927
     atom   22 type  2   force =    -0.00130253   -0.00322782   -0.00357094
     atom   23 type  2   force =     0.00192294   -0.00134960    0.00391361
     atom   24 type  1   force =    -0.00085401   -0.00010046   -0.01655388
     atom   25 type  2   force =     0.01688426    0.01535996   -0.01802151
     atom   26 type  2   force =     0.00478695   -0.00281341   -0.01628902
     atom   27 type  1   force =     0.00025528    0.00296059    0.00113435
     atom   28 type  2   force =     0.00204964   -0.00546620   -0.01028835
     atom   29 type  2   force =     0.00545186    0.01147098   -0.01623622
     atom   30 type  1   force =    -0.00068094   -0.00022922    0.00576251
     atom   31 type  2   force =     0.00107428    0.00140938    0.00812764
     atom   32 type  2   force =    -0.00601982    0.00584780    0.00509833
     atom   33 type  1   force =     0.00186966   -0.00261879   -0.00209675
     atom   34 type  2   force =     0.00420819   -0.02237197   -0.00880040
     atom   35 type  2   force =    -0.00400963    0.00665009    0.00157256
     atom   36 type  3   force =    -0.09051820   -0.02779574    0.07739324
     The non-local contrib.  to forces
     atom    1 type  1   force =    -0.00028066    0.01218868   -0.00603741
     atom    2 type  2   force =     0.35391765    0.13564200    0.11709365
     atom    3 type  2   force =    -0.01015592   -0.00837519    0.26064346
     atom    4 type  1   force =     0.00861178    0.00519752    0.00487048
     atom    5 type  2   force =     0.00819328   -0.03055539   -0.25167982
     atom    6 type  2   force =    -0.00731600    0.00232552    0.26686045
     atom    7 type  1   force =    -0.01607138   -0.00366309   -0.02576240
     atom    8 type  2   force =     0.00159612   -0.00468734   -0.26197849
     atom    9 type  2   force =     0.00320326   -0.01244502    0.27486126
     atom   10 type  1   force =    -0.00846476    0.01389110   -0.00929448
     atom   11 type  2   force =     0.00855183    0.00769479   -0.26174248
     atom   12 type  2   force =    -0.01155275   -0.01812324    0.26451996
     atom   13 type  1   force =    -0.00783917    0.01565569    0.00056048
     atom   14 type  2   force =     0.01058304   -0.00894412   -0.26671793
     atom   15 type  2   force =    -0.00076461   -0.00749658    0.26222363
     atom   16 type  1   force =    -0.00362754    0.03166882   -0.03290076
     atom   17 type  2   force =     0.00366544   -0.02317604   -0.25013613
     atom   18 type  2   force =    -0.00556522    0.00420856    0.26754948
     atom   19 type  1   force =     0.01488475   -0.00048840   -0.01872202
     atom   20 type  2   force =     0.00066817   -0.01844247    0.26127198
     atom   21 type  1   force =    -0.00607341    0.02253184    0.00236793
     atom   22 type  2   force =    -0.00469522   -0.00011251   -0.26328091
     atom   23 type  2   force =     0.00888364   -0.01654171    0.26711313
     atom   24 type  1   force =     0.00128747    0.01781828    0.00969933
     atom   25 type  2   force =     0.01405304   -0.00989724   -0.24782621
     atom   26 type  2   force =     0.00548762   -0.01678313    0.25753461
     atom   27 type  1   force =    -0.00903832    0.00048467    0.00816905
     atom   28 type  2   force =    -0.00553339    0.01032490   -0.27512207
     atom   29 type  2   force =     0.00435380    0.00565815    0.25853776
     atom   30 type  1   force =     0.00590610    0.01666607    0.00397741
     atom   31 type  2   force =    -0.00936151    0.00329734   -0.25991420
[...]
     atom   28 type  2   force =    -0.00153530   -0.01339427   -0.27766104
     atom   29 type  2   force =     0.00144751   -0.00777748    0.26641724
     atom   30 type  1   force =     0.00489295    0.01829458    0.00461733
     atom   31 type  2   force =    -0.00966545    0.00236837   -0.26677546
     atom   32 type  2   force =     0.00652626   -0.01411038    0.27011597
     atom   33 type  1   force =    -0.00249237    0.00685532    0.00228877
     atom   34 type  2   force =    -0.00239986   -0.00726771   -0.27845817
     atom   35 type  2   force =    -0.00034268   -0.01326835    0.26529341
     atom   36 type  3   force =    -0.01622123   -0.02194126   -2.32033823
     The ionic contribution  to forces
     atom    1 type  1   force =    -1.12348343    1.29887493   -1.41591294
     atom    2 type  2   force =    -0.21924110   -0.02080921   28.66230539
     atom    3 type  2   force =     0.03996629   -0.14002918  -38.15030534
     atom    4 type  1   force =    -0.12833967    1.23593609   -0.88165489
     atom    5 type  2   force =    -1.32581611    2.13564797   37.75005022
     atom    6 type  2   force =     0.18171065   -0.18100960  -38.81562276
     atom    7 type  1   force =    -2.81348616   -2.36485052    2.45857522
     atom    8 type  2   force =    -1.11618253    0.13174950   37.97768486
     atom    9 type  2   force =     0.31258976    0.05822826  -38.22925633
     atom   10 type  1   force =    -0.46028121   -1.65915271   -0.80410326
     atom   11 type  2   force =    -0.99989287   -2.30476009   38.09163138
     atom   12 type  2   force =     0.11834326    0.19228499  -38.50412642
     atom   13 type  1   force =     0.12193912    1.02428546    0.86200778
     atom   14 type  2   force =    -1.03358177   -0.06412016   37.92751389
     atom   15 type  2   force =    -0.03647007   -0.18652038  -38.32860406
     atom   16 type  1   force =    -0.37582468    3.82159566    0.72844900
     atom   17 type  2   force =     0.78180378    1.43978790   37.92068005
     atom   18 type  2   force =    -0.17175126   -0.24753650  -38.57561551
     atom   19 type  1   force =     2.63318944   -2.00772659    2.07171880
     atom   20 type  2   force =    -0.01039619    0.04199395  -39.03663299
     atom   21 type  1   force =    -0.55669821   -0.84302377    0.20760323
     atom   22 type  2   force =     0.41862548   -1.71078173   38.33521520
     atom   23 type  2   force =    -0.17166594    0.18781365  -38.27455927
     atom   24 type  1   force =     0.99497018    0.99584925   -2.12440470
     atom   25 type  2   force =     1.17826861    0.06776258   38.07166207
     atom   26 type  2   force =     0.00240898   -0.13230134  -38.35315379
     atom   27 type  1   force =     0.48359700    0.84153350   -1.17396360
     atom   28 type  2   force =     0.55211914    1.51260104   37.46010984
     atom   29 type  2   force =    -0.00487491    0.08241558  -38.52387179
     atom   30 type  1   force =     0.16813307   -1.17497939    1.02130269
     atom   31 type  2   force =     1.27838242    0.09755313   38.03787327
     atom   32 type  2   force =    -0.30125370    0.04955399  -38.41923392
     atom   33 type  1   force =     1.02100338   -0.98006165    1.49455540
     atom   34 type  2   force =     0.60333574   -1.45504604   38.30119197
     atom   35 type  2   force =     0.05844482    0.05640985  -38.27015168
     atom   36 type  3   force =    -0.09959131    0.20083157   50.50104300
     The local contribution  to forces
     atom    1 type  1   force =     1.11535703   -1.30987200    1.40409803
     atom    2 type  2   force =     0.21234312    0.01479018  -28.94838974
     atom    3 type  2   force =    -0.03774261    0.14995487   37.89252873
     atom    4 type  1   force =     0.12349244   -1.24029226    0.87889481
     atom    5 type  2   force =     1.32076045   -2.11557139  -37.51270452
     atom    6 type  2   force =    -0.18141800    0.18351235   38.57145447
     atom    7 type  1   force =     2.83275642    2.36518176   -2.43128599
     atom    8 type  2   force =     1.11029966   -0.13321320  -37.73112137
     atom    9 type  2   force =    -0.30692195   -0.04453950   37.97895854
     atom   10 type  1   force =     0.45863697    1.64204615    0.78707878
     atom   11 type  2   force =     0.99392213    2.30421067  -37.84966991
     atom   12 type  2   force =    -0.11127086   -0.17955210   38.25996374
     atom   13 type  1   force =    -0.12392726   -1.05009558   -0.86425909
     atom   14 type  2   force =     1.03298570    0.06961303  -37.67464011
     atom   15 type  2   force =     0.03735224    0.19533116   38.08964600
     atom   16 type  1   force =     0.37586404   -3.85562324   -0.69470508
     atom   17 type  2   force =    -0.77788425   -1.41663054  -37.68336138
     atom   18 type  2   force =     0.17246986    0.25285326   38.32882971
     atom   19 type  1   force =    -2.64731422    2.00311420   -2.04642924
     atom   20 type  2   force =     0.01163075   -0.02813054   38.79508931
     atom   21 type  1   force =     0.55632976    0.81317627   -0.21035930
     atom   22 type  2   force =    -0.41474068    1.70980657  -38.09412467
     atom   23 type  2   force =     0.16464391   -0.17543565   38.02934947
     atom   24 type  1   force =    -0.98489399   -1.00225659    2.10478137
     atom   25 type  2   force =    -1.17924556   -0.06017173  -37.81999754
     atom   26 type  2   force =    -0.00549869    0.14097174   38.10977651
     atom   27 type  1   force =    -0.48062982   -0.84773866    1.16795935
     atom   28 type  2   force =    -0.55120517   -1.50006178  -37.20351902
     atom   29 type  2   force =     0.00407744   -0.07464055   38.27770721
     atom   30 type  1   force =    -0.17307324    1.15655303   -1.02558818
     atom   31 type  2   force =    -1.26966259   -0.09927900  -37.79124994
     atom   32 type  2   force =     0.29472392   -0.03646100   38.17164166
     atom   33 type  1   force =    -1.01862126    0.97340191   -1.49663948
     atom   34 type  2   force =    -0.60105014    1.46126610  -38.04411686
     atom   35 type  2   force =    -0.05829495   -0.04416778   38.02599081
     atom   36 type  3   force =     0.11608283   -0.17887231  -48.20515013
     The core correction contribution to forces
     atom    1 type  1   force =     0.00000000    0.00000000    0.00000000
     atom    2 type  2   force =    -0.00032629   -0.00037254   -0.00976036
     atom    3 type  2   force =     0.00002897    0.00037289   -0.02133008
     atom    4 type  1   force =     0.00000000    0.00000000    0.00000000
     atom    5 type  2   force =    -0.00039918    0.00096056    0.02067540
     atom    6 type  2   force =     0.00023332   -0.00024609   -0.02082184
     atom    7 type  1   force =     0.00000000    0.00000000    0.00000000
     atom    8 type  2   force =    -0.00023721    0.00017289    0.02095129
     atom    9 type  2   force =     0.00054424    0.00083722   -0.02103130
     atom   10 type  1   force =     0.00000000    0.00000000    0.00000000
     atom   11 type  2   force =    -0.00010686   -0.00018328    0.02093814
     atom   12 type  2   force =     0.00053618    0.00092521   -0.02085984
     atom   13 type  1   force =     0.00000000    0.00000000    0.00000000
     atom   14 type  2   force =     0.00003202    0.00000770    0.02139886
     atom   15 type  2   force =     0.00011074    0.00025537   -0.02062165
     atom   16 type  1   force =     0.00000000    0.00000000    0.00000000
     atom   17 type  2   force =     0.00035359    0.00111415    0.02055068
     atom   18 type  2   force =    -0.00007551   -0.00019020   -0.02092400
     atom   19 type  1   force =     0.00000000    0.00000000    0.00000000
     atom   20 type  2   force =     0.00009511    0.00069135   -0.02120795
     atom   21 type  1   force =     0.00000000    0.00000000    0.00000000
     atom   22 type  2   force =    -0.00002109   -0.00032172    0.02075775
     atom   23 type  2   force =    -0.00058951    0.00095960   -0.02090685
     atom   24 type  1   force =     0.00000000    0.00000000    0.00000000
     atom   25 type  2   force =    -0.00008985    0.00032292    0.02131289
     atom   26 type  2   force =    -0.00021670    0.00029882   -0.02076341
     atom   27 type  1   force =     0.00000000    0.00000000    0.00000000
     atom   28 type  2   force =     0.00008491    0.00086566    0.02146498
     atom   29 type  2   force =    -0.00014001    0.00024971   -0.02078168
     atom   30 type  1   force =     0.00000000    0.00000000    0.00000000
     atom   31 type  2   force =     0.00046434    0.00008439    0.02097265
     atom   32 type  2   force =    -0.00062446    0.00079124   -0.02102938
     atom   33 type  1   force =     0.00000000    0.00000000    0.00000000
     atom   34 type  2   force =     0.00015312    0.00029638    0.02159617
     atom   35 type  2   force =     0.00004675    0.00080923   -0.02090162
     atom   36 type  3   force =     0.00016953    0.00021468    0.02460813
     The Hubbard contrib.    to forces
     atom    1 type  1   force =     0.00000000    0.00000000    0.00000000
     atom    2 type  2   force =     0.00000000    0.00000000    0.00000000
     atom    3 type  2   force =     0.00000000    0.00000000    0.00000000
     atom    4 type  1   force =     0.00000000    0.00000000    0.00000000
     atom    5 type  2   force =     0.00000000    0.00000000    0.00000000
     atom    6 type  2   force =     0.00000000    0.00000000    0.00000000
     atom    7 type  1   force =     0.00000000    0.00000000    0.00000000
     atom    8 type  2   force =     0.00000000    0.00000000    0.00000000
     atom    9 type  2   force =     0.00000000    0.00000000    0.00000000
     atom   10 type  1   force =     0.00000000    0.00000000    0.00000000
     atom   11 type  2   force =     0.00000000    0.00000000    0.00000000
     atom   12 type  2   force =     0.00000000    0.00000000    0.00000000
     atom   13 type  1   force =     0.00000000    0.00000000    0.00000000
     atom   14 type  2   force =     0.00000000    0.00000000    0.00000000
     atom   15 type  2   force =     0.00000000    0.00000000    0.00000000
     atom   16 type  1   force =     0.00000000    0.00000000    0.00000000
     atom   17 type  2   force =     0.00000000    0.00000000    0.00000000
     atom   18 type  2   force =     0.00000000    0.00000000    0.00000000
     atom   19 type  1   force =     0.00000000    0.00000000    0.00000000
     atom   20 type  2   force =     0.00000000    0.00000000    0.00000000
     atom   21 type  1   force =     0.00000000    0.00000000    0.00000000
     atom   22 type  2   force =     0.00000000    0.00000000    0.00000000
     atom   23 type  2   force =     0.00000000    0.00000000    0.00000000
     atom   24 type  1   force =     0.00000000    0.00000000    0.00000000
     atom   25 type  2   force =     0.00000000    0.00000000    0.00000000
     atom   26 type  2   force =     0.00000000    0.00000000    0.00000000
     atom   27 type  1   force =     0.00000000    0.00000000    0.00000000
     atom   28 type  2   force =     0.00000000    0.00000000    0.00000000
     atom   29 type  2   force =     0.00000000    0.00000000    0.00000000
     atom   30 type  1   force =     0.00000000    0.00000000    0.00000000
     atom   31 type  2   force =     0.00000000    0.00000000    0.00000000
     atom   32 type  2   force =     0.00000000    0.00000000    0.00000000
     atom   33 type  1   force =     0.00000000    0.00000000    0.00000000
     atom   34 type  2   force =     0.00000000    0.00000000    0.00000000
     atom   35 type  2   force =     0.00000000    0.00000000    0.00000000
     atom   36 type  3   force =     0.00000000    0.00000000    0.00000000
     The SCF correction term to forces
     atom    1 type  1   force =    -0.00002053   -0.00003219   -0.00000502
     atom    2 type  2   force =    -0.00005640   -0.00002541   -0.00002929
     atom    3 type  2   force =    -0.00000936   -0.00000980    0.00000204
     atom    4 type  1   force =    -0.00002997    0.00001092   -0.00004195
     atom    5 type  2   force =    -0.00001373   -0.00000303   -0.00002106
     atom    6 type  2   force =    -0.00000283   -0.00000070    0.00000139
     atom    7 type  1   force =    -0.00001717    0.00002305   -0.00001584
     atom    8 type  2   force =    -0.00001298    0.00001566   -0.00001877
     atom    9 type  2   force =    -0.00000205    0.00000811    0.00000073
     atom   10 type  1   force =    -0.00004208   -0.00000901   -0.00002004
     atom   11 type  2   force =    -0.00000528    0.00000765   -0.00001489
     atom   12 type  2   force =     0.00000046    0.00000309    0.00001016
     atom   13 type  1   force =     0.00003792   -0.00000734   -0.00003993
     atom   14 type  2   force =     0.00001737   -0.00001245   -0.00001722
     atom   15 type  2   force =     0.00000465   -0.00000382    0.00000855
     atom   16 type  1   force =     0.00000377    0.00001529   -0.00003160
     atom   17 type  2   force =     0.00001981   -0.00000186   -0.00002293
     atom   18 type  2   force =     0.00000740   -0.00000326   -0.00000089
     atom   19 type  1   force =     0.00002197    0.00001072   -0.00003378
     atom   20 type  2   force =    -0.00000042    0.00000372    0.00000419
     atom   21 type  1   force =     0.00001806   -0.00000254   -0.00000549
     atom   22 type  2   force =     0.00001764    0.00000052   -0.00001987
     atom   23 type  2   force =     0.00000566   -0.00000190    0.00000237
     atom   24 type  1   force =    -0.00002206   -0.00001403   -0.00007847
     atom   25 type  2   force =     0.00002536   -0.00001191   -0.00003252
     atom   26 type  2   force =     0.00000568   -0.00000653   -0.00000521
     atom   27 type  1   force =     0.00000944    0.00001590   -0.00003726
     atom   28 type  2   force =    -0.00000123    0.00001646   -0.00003121
     atom   29 type  2   force =    -0.00000018    0.00000294   -0.00000829
     atom   30 type  1   force =    -0.00000840    0.00001770   -0.00003499
     atom   31 type  2   force =     0.00000507    0.00001315   -0.00002557
     atom   32 type  2   force =     0.00000464    0.00000709   -0.00000193
     atom   33 type  1   force =     0.00001265   -0.00002661   -0.00004131
     atom   34 type  2   force =    -0.00001090   -0.00000917   -0.00002963
     atom   35 type  2   force =    -0.00000359    0.00000182    0.00000093
     atom   36 type  3   force =    -0.00011087   -0.00003904   -0.00005895

     Total force =     0.005357     Total SCF correction =     0.000242
     Energy error            =      7.2E-05 Ry
     Gradient error          =      1.5E-03 Ry/Bohr

     bfgs converged in  23 scf cycles and  22 bfgs steps
     (criteria: energy <  1.0E-04 Ry, force <  1.0E-02 Ry/Bohr)

     End of BFGS Geometry Optimization

     Final energy             =   -2246.4498594470 Ry

     File ./MoS2-V-O.bfgs deleted, as requested
Begin final coordinates

ATOMIC_POSITIONS (angstrom)
Mo            6.5763305067        1.7873269133        2.7456045985
S             8.1719728249        0.8575470483        4.2687629222
S             8.1698921976        0.8478639470        1.1863252279
Mo            8.1605964336        4.5064897038        2.7118705695
S             6.5559651607        3.6832535639        4.3112992723
S             6.5911814879        3.5918694454        1.0993574089
Mo            6.5459656747        7.1925597535        2.6841392611
S             8.1287630832        6.3114649184        4.3070792751
S             8.1714015464        6.3458120097        1.1222126151
Mo            8.1751103184        9.9146752641        2.7611013318
S             6.5599630642        8.9572019433        4.3386528109
S             6.6103121211        9.0259817513        1.1315501205
Mo            3.4650192664        1.7585450322        2.7501907761
S             5.0360999002        0.8370006314        4.3462505998
S             5.0270798354        0.8355447348        1.1567481135
Mo            5.0315747756        4.5519425307        2.6529686902
S             3.5002133329        3.6757434457        4.2981761286
S             3.4760599765        3.5714354591        1.1026023755
Mo            3.5096597198        7.1929054357        2.6730093030
S             5.0313045450        6.3292121767        1.0495802081
Mo            5.0327638277        9.9193204219        2.7398375338
S             3.5006887012        8.9605255718        4.3314015459
S             3.4403411985        9.0420909166        1.1341683790
Mo            0.3230838260        1.7742235013        2.7442689045
S             1.8875753814        0.8676504509        4.3587208057
S             1.8934358301        0.8430910316        1.1614485333
Mo            1.9032041725        4.5072898246        2.6981192553
S             0.3097601783        3.6208538476        4.3121076572
S             0.2994912761        3.5879727854        1.1280296326
Mo            0.3115780805        7.2304657519        2.7389911179
S             1.9473493938        6.3067481020        4.2994772683
S             1.8924601009        6.3434025797        1.1079975216
Mo            1.8877487659        9.9488040542        2.7691220452
S             0.3060463250        9.0365956614        4.3680511177
S             0.3156776192        9.0536257821        1.1636044773
O            -1.2733234360        0.8782326414        5.7675124680
End final coordinates



     Writing all to output data dir ./MoS2-V-O.save/
 
     init_run     :      4.70s CPU      5.16s WALL (       1 calls)
     electrons    :   2147.64s CPU   2357.52s WALL (      23 calls)
     update_pot   :     68.43s CPU     71.39s WALL (      22 calls)
     forces       :     65.81s CPU     70.71s WALL (      23 calls)

     Called by init_run:
     wfcinit      :      0.51s CPU      0.56s WALL (       1 calls)
     potinit      :      2.39s CPU      2.55s WALL (       1 calls)
     hinit0       :      0.46s CPU      0.60s WALL (       1 calls)

     Called by electrons:
     c_bands      :    306.80s CPU    312.13s WALL (     211 calls)
     sum_band     :    137.84s CPU    152.69s WALL (     211 calls)
     v_of_rho     :    210.75s CPU    239.53s WALL (     226 calls)
     newd         :     83.57s CPU     95.93s WALL (     226 calls)
     PAW_pot      :      9.00s CPU      9.03s WALL (     248 calls)
     mix_rho      :   1425.55s CPU   1573.46s WALL (     211 calls)

     Called by c_bands:
     init_us_2    :      5.08s CPU      5.24s WALL (     445 calls)
     init_us_2:cp :      5.07s CPU      5.23s WALL (     445 calls)
     regterg      :    291.53s CPU    296.67s WALL (     211 calls)

     Called by *egterg:
     rdiaghg      :     19.91s CPU     20.07s WALL (    1136 calls)
     h_psi        :    190.52s CPU    191.98s WALL (    1167 calls)
     s_psi        :     17.65s CPU     17.71s WALL (    1167 calls)
     g_psi        :      0.93s CPU      0.94s WALL (     955 calls)

     Called by h_psi:
     h_psi:calbec :     19.22s CPU     19.30s WALL (    1167 calls)
     vloc_psi     :    151.65s CPU    152.95s WALL (    1167 calls)
     add_vuspsi   :     17.21s CPU     17.28s WALL (    1167 calls)

     General routines
     calbec       :     27.86s CPU     27.97s WALL (    1492 calls)
     fft          :    155.95s CPU    177.03s WALL (   15127 calls)
     ffts         :    631.46s CPU    774.22s WALL (  341663 calls)
     fftw         :     91.66s CPU     92.30s WALL (  128912 calls)
     interpolate  :      2.87s CPU      3.26s WALL (     226 calls)
 
     Parallel routines
 
     PWSCF        :  38m17.94s CPU  41m59.72s WALL

 
   This run was terminated on:  11:20:18   2Nov2023            

=------------------------------------------------------------------------------=
   JOB DONE.
=------------------------------------------------------------------------------=
