
     Program PWSCF v.7.2 starts on  1Nov2023 at 13:27:26 

     This program is part of the open-source Quantum ESPRESSO suite
     for quantum simulation of materials; please cite
         "P. Giannozzi et al., J. Phys.:Condens. Matter 21 395502 (2009);
         "P. Giannozzi et al., J. Phys.:Condens. Matter 29 465901 (2017);
         "P. Giannozzi et al., J. Chem. Phys. 152 154105 (2020);
          URL http://www.quantum-espresso.org", 
     in publications or presentations arising from this work. More details at
     http://www.quantum-espresso.org/quote

     Parallel version (MPI & OpenMP), running on      48 processor cores
     Number of MPI processes:                48
     Threads/MPI process:                     1

     MPI processes distributed on     1 nodes
     63157 MiB available memory on the printing compute node when the environment starts
 
     Waiting for input...
     Reading input from standard input
Warning: card &CELL ignored
Warning: card CELL_DYNAMICS = 'BFGS', ignored
Warning: card CELL_DOFREE = '2DXY' ignored
Warning: card / ignored

     Current dimensions of program PWSCF are:
     Max number of different atomic species (ntypx) = 10
     Max number of k-points (npk) =  40000
     Max angular momentum in pseudopotentials (lmaxx) =  4
     file O.pbe-n-kjpaw_psl.0.1.UPF: wavefunction(s)  2P renormalized

     IMPORTANT: XC functional enforced from input :
     Exchange-correlation= RVV10
                           (   1   4  13   4  26   0   0)
     Any further DFT definition will be discarded
     Please, verify this is what you really want


     gamma-point specific algorithms are used
     signal trapping enabled: kill the code with -SIGUSR1 to stop cleanly the simulation 
 
     R & G space division:  proc/nbgrp/npool/nimage =      48
     Subspace diagonalization in iterative solution of the eigenvalue problem:
     one sub-group per band group will be used
     scalapack distributed-memory algorithm (size of sub-group:  2*  2 procs)

 
     Parallelization info
     --------------------
     sticks:   dense  smooth     PW     G-vecs:    dense   smooth      PW
     Min         396     194     47               101632    35090    4376
     Max         398     196     50               101674    35128    4410
     Sum       19091    9389   2349              4879585  1685513  210763
 
     Using Slab Decomposition
 


     bravais-lattice index     =            0
     lattice parameter (alat)  =      17.8707  a.u.
     unit-cell volume          =   17436.2743 (a.u.)^3
     number of atoms/cell      =           36
     number of atomic types    =            3
     number of electrons       =       312.00
     number of Kohn-Sham states=          187
     kinetic-energy cutoff     =      80.0000  Ry
     charge density cutoff     =     650.0000  Ry
     scf convergence threshold =      1.0E-06
     mixing beta               =       0.7000
     number of iterations used =            8  local-TF  mixing
     energy convergence thresh.=      1.0E-04
     force convergence thresh. =      1.0E-02
     Exchange-correlation= RVV10
                           (   1   4  13   4  26   0   0)
     nstep                     =          200


     celldm(1)=  17.870686  celldm(2)=   0.000000  celldm(3)=   0.000000
     celldm(4)=   0.000000  celldm(5)=   0.000000  celldm(6)=   0.000000

     crystal axes: (cart. coord. in units of alat)
               a(1) = (   1.000000   0.000000   0.000000 )  
               a(2) = (   0.000000   1.155671   0.000000 )  
               a(3) = (   0.000000   0.000000   2.643601 )  

     reciprocal axes: (cart. coord. in units 2 pi/alat)
               b(1) = (  1.000000  0.000000  0.000000 )  
               b(2) = (  0.000000  0.865298  0.000000 )  
               b(3) = (  0.000000  0.000000  0.378272 )  


     PseudoPot. # 1 for Mo read from file:
     ../pseudo/Mo_ONCV_PBE-1.0.oncvpsp.upf
     MD5 check sum: 1b5d28e075c9ccadda658a603575cd1f
     Pseudo is Norm-conserving, Zval = 14.0
     Generated using ONCVPSP code by D. R. Hamann
     Using radial grid of 1526 points,  6 beta functions with: 
                l(1) =   0
                l(2) =   0
                l(3) =   1
                l(4) =   1
                l(5) =   2
                l(6) =   2

     PseudoPot. # 2 for S  read from file:
     ../pseudo/s_pbe_v1.4.uspp.F.UPF
     MD5 check sum: 88d86576ff6df21479756cfb9bdac1df
     Pseudo is Ultrasoft + core correction, Zval =  6.0
     Generated by new atomic code, or converted to UPF format
     Using radial grid of  907 points,  6 beta functions with: 
                l(1) =   0
                l(2) =   0
                l(3) =   1
                l(4) =   1
                l(5) =   2
                l(6) =   2
     Q(r) pseudized with  8 coefficients,  rinner =    1.300   1.300   1.300
                                                       1.300   1.300

     PseudoPot. # 3 for O  read from file:
     ../pseudo/O.pbe-n-kjpaw_psl.0.1.UPF
     MD5 check sum: 0234752ac141de4415c5fc33072bef88
     Pseudo is Projector augmented-wave + core cor, Zval =  6.0
     Generated using "atomic" code by A. Dal Corso  v.5.0.99 svn rev. 10869
     Shape of augmentation charge: BESSEL
     Using radial grid of 1095 points,  4 beta functions with: 
                l(1) =   0
                l(2) =   0
                l(3) =   1
                l(4) =   1
     Q(r) pseudized with 0 coefficients 


     atomic species   valence    mass     pseudopotential
        Mo            14.00    95.94000     Mo( 1.00)
        S              6.00    32.06500     S ( 1.00)
        O              6.00    15.99940     O ( 1.00)

     No symmetry found



   Cartesian axes

     site n.     atom                  positions (alat units)
         1           Mo  tau(   1) = (   0.6952221   0.1890506   0.2985846  )
         2           S   tau(   2) = (   0.8646417   0.0856217   0.4689279  )
         3           S   tau(   3) = (   0.8663890   0.0857843   0.1351291  )
         4           Mo  tau(   4) = (   0.8560186   0.4753274   0.2873942  )
         5           S   tau(   5) = (   0.6873294   0.3936244   0.4596353  )
         6           S   tau(   6) = (   0.6929804   0.3713468   0.1185692  )
         7           Mo  tau(   7) = (   0.6862796   0.7633098   0.2825370  )
         8           S   tau(   8) = (   0.8545980   0.6708292   0.4486168  )
         9           S   tau(   9) = (   0.8545123   0.6666874   0.1146125  )
        10           Mo  tau(  10) = (   0.8629403   1.0471007   0.3006803  )
        11           S   tau(  11) = (   0.6868280   0.9456650   0.4634891  )
        12           S   tau(  12) = (   0.6998113   0.9568511   0.1205389  )
        13           Mo  tau(  13) = (   0.3618216   0.1847309   0.2935964  )
        14           S   tau(  14) = (   0.5260962   0.0863870   0.4600448  )
        15           S   tau(  15) = (   0.5348379   0.0894875   0.1297123  )
        16           Mo  tau(  16) = (   0.5265817   0.4772436   0.2784130  )
        17           S   tau(  17) = (   0.3624753   0.3882513   0.4525556  )
        18           S   tau(  18) = (   0.3635411   0.3752055   0.1119148  )
        19           Mo  tau(  19) = (   0.3652268   0.7630864   0.2781795  )
        20           S   tau(  20) = (   0.5269494   0.6690381   0.1096838  )
        21           Mo  tau(  21) = (   0.5300192   1.0470394   0.2900995  )
        22           S   tau(  22) = (   0.3670346   0.9457522   0.4574073  )
        23           S   tau(  23) = (   0.3604225   0.9585725   0.1159032  )
        24           Mo  tau(  24) = (   0.0313099   0.1847895   0.3013130  )
        25           S   tau(  25) = (   0.1956761   0.0838230   0.4650863  )
        26           S   tau(  26) = (   0.1967693   0.0903508   0.1278874  )
        27           Mo  tau(  27) = (   0.1967578   0.4753919   0.2813011  )
        28           S   tau(  28) = (   0.0287851   0.3864324   0.4586755  )
        29           S   tau(  29) = (   0.0244514   0.3729871   0.1239344  )
        30           Mo  tau(  30) = (   0.0286728   0.7631204   0.2856894  )
        31           S   tau(  31) = (   0.2011512   0.6675435   0.4465001  )
        32           S   tau(  32) = (   0.1969214   0.6672839   0.1104564  )
        33           Mo  tau(  33) = (   0.1950294   1.0511147   0.2932237  )
        34           S   tau(  34) = (   0.0312912   0.9612169   0.4667423  )
        35           S   tau(  35) = (   0.0292670   0.9563028   0.1216485  )
        36           O   tau(  36) = (   0.2222222   0.2568157   0.5650415  )

     number of k points=     1  Gaussian smearing, width (Ry)=  0.0100
                       cart. coord. in units 2pi/alat
        k(    1) = (   0.0000000   0.0000000   0.0000000), wk =   2.0000000

     Dense  grid:  2439793 G-vectors     FFT dimensions: ( 150, 180, 384)

     Smooth grid:   842757 G-vectors     FFT dimensions: ( 108, 120, 270)

     Estimated max dynamical RAM per process >     269.22 MB

     Estimated total dynamical RAM >      12.62 GB

     Initial potential from superposition of free atoms

     starting charge     311.9873, renormalised to     312.0000

     negative rho (up, down):  2.751E-04 0.000E+00


---------------------------------------------------------------------------------
Carrying out rVV10 run using the following parameters:
Nqs =      20    Nr_points =    1024   r_max =   100.000
b_value =  6.30000    beta =  0.00901
     q_mesh =  0.00010000  0.00030000  0.00058939  0.00100810
               0.00161396  0.00249058  0.00375900  0.00559430
               0.00824984  0.01209221  0.01765183  0.02569619
               0.03733578  0.05417739  0.07854596  0.11380545
               0.16482331  0.23864234  0.34545298  0.50000000

Gradients computed in Reciprocal space

---------------------------------------------------------------------------------


     Starting wfcs are  216 randomized atomic wfcs
     Checking if some PAW data can be deallocated... 

     total cpu time spent up to now is        5.9 secs

     Self-consistent Calculation

     iteration #  1     ecut=    80.00 Ry     beta= 0.70
     Davidson diagonalization with overlap
     ethr =  1.00E-02,  avg # of iterations =  2.0

     Threshold (ethr) on eigenvalues was too large:
     Diagonalizing with lowered threshold

     Davidson diagonalization with overlap
     ethr =  4.42E-04,  avg # of iterations =  4.0

     negative rho (up, down):  3.655E-08 0.000E+00

     total cpu time spent up to now is       21.9 secs

     total energy              =   -2246.15063179 Ry
     estimated scf accuracy    <       1.63201419 Ry

     iteration #  2     ecut=    80.00 Ry     beta= 0.70
     Davidson diagonalization with overlap
     ethr =  5.23E-04,  avg # of iterations =  4.0

     total cpu time spent up to now is       27.0 secs

     total energy              =   -2246.15717469 Ry
     estimated scf accuracy    <       0.82364197 Ry

     iteration #  3     ecut=    80.00 Ry     beta= 0.70
     Davidson diagonalization with overlap
     ethr =  2.64E-04,  avg # of iterations =  4.0

     total cpu time spent up to now is       31.2 secs

     total energy              =   -2246.13650684 Ry
     estimated scf accuracy    <       0.27243203 Ry

     iteration #  4     ecut=    80.00 Ry     beta= 0.70
     Davidson diagonalization with overlap
     ethr =  8.73E-05,  avg # of iterations =  9.0

     total cpu time spent up to now is       35.7 secs

     total energy              =   -2246.18782035 Ry
     estimated scf accuracy    <       0.03522623 Ry

     iteration #  5     ecut=    80.00 Ry     beta= 0.70
     Davidson diagonalization with overlap
     ethr =  1.13E-05,  avg # of iterations = 17.0

     total cpu time spent up to now is       40.5 secs

     total energy              =   -2246.18903931 Ry
     estimated scf accuracy    <       0.01794079 Ry

     iteration #  6     ecut=    80.00 Ry     beta= 0.70
     Davidson diagonalization with overlap
     ethr =  5.75E-06,  avg # of iterations =  2.0

     total cpu time spent up to now is       44.4 secs

     total energy              =   -2246.18875548 Ry
     estimated scf accuracy    <       0.01351244 Ry

     iteration #  7     ecut=    80.00 Ry     beta= 0.70
     Davidson diagonalization with overlap
     ethr =  4.33E-06,  avg # of iterations =  1.0

     total cpu time spent up to now is       48.1 secs

     total energy              =   -2246.18804006 Ry
     estimated scf accuracy    <       0.00883596 Ry

     iteration #  8     ecut=    80.00 Ry     beta= 0.70
     Davidson diagonalization with overlap
     ethr =  2.83E-06,  avg # of iterations =  2.0

     negative rho (up, down):  3.007E-04 0.000E+00

     total cpu time spent up to now is       54.4 secs

     total energy              =   -2246.18657344 Ry
     estimated scf accuracy    <       0.00573080 Ry

     iteration #  9     ecut=    80.00 Ry     beta= 0.70
     Davidson diagonalization with overlap
     ethr =  1.84E-06,  avg # of iterations =  9.0

     negative rho (up, down):  1.323E-02 0.000E+00

     total cpu time spent up to now is       61.4 secs

     total energy              =   -2246.18637275 Ry
     estimated scf accuracy    <       0.00261635 Ry

     iteration # 10     ecut=    80.00 Ry     beta= 0.70
     Davidson diagonalization with overlap
     ethr =  8.39E-07,  avg # of iterations =  2.0

     negative rho (up, down):  1.937E-02 0.000E+00

     total cpu time spent up to now is       67.9 secs

     total energy              =   -2246.18619887 Ry
     estimated scf accuracy    <       0.00146821 Ry

     iteration # 11     ecut=    80.00 Ry     beta= 0.70
     Davidson diagonalization with overlap
     ethr =  4.71E-07,  avg # of iterations =  2.0

     negative rho (up, down):  1.958E-02 0.000E+00

     total cpu time spent up to now is       75.1 secs

     total energy              =   -2246.18630798 Ry
     estimated scf accuracy    <       0.00052595 Ry

     iteration # 12     ecut=    80.00 Ry     beta= 0.70
     Davidson diagonalization with overlap
     ethr =  1.69E-07,  avg # of iterations =  2.0

     negative rho (up, down):  7.865E-03 0.000E+00

     total cpu time spent up to now is       82.4 secs

     total energy              =   -2246.18630276 Ry
     estimated scf accuracy    <       0.00008675 Ry

     iteration # 13     ecut=    80.00 Ry     beta= 0.70
     Davidson diagonalization with overlap
     ethr =  2.78E-08,  avg # of iterations =  5.0

     negative rho (up, down):  2.665E-03 0.000E+00

     total cpu time spent up to now is       93.7 secs

     total energy              =   -2246.18636506 Ry
     estimated scf accuracy    <       0.00002259 Ry

     iteration # 14     ecut=    80.00 Ry     beta= 0.70
     Davidson diagonalization with overlap
     ethr =  7.24E-09,  avg # of iterations =  2.0

     negative rho (up, down):  7.651E-04 0.000E+00

     total cpu time spent up to now is      103.5 secs

     total energy              =   -2246.18636595 Ry
     estimated scf accuracy    <       0.00000640 Ry

     iteration # 15     ecut=    80.00 Ry     beta= 0.70
     Davidson diagonalization with overlap
     ethr =  2.05E-09,  avg # of iterations =  5.0

     negative rho (up, down):  4.931E-04 0.000E+00

     total cpu time spent up to now is      113.4 secs

     total energy              =   -2246.18637021 Ry
     estimated scf accuracy    <       0.00000305 Ry

     iteration # 16     ecut=    80.00 Ry     beta= 0.70
     Davidson diagonalization with overlap
     ethr =  9.79E-10,  avg # of iterations =  4.0

     negative rho (up, down):  2.961E-04 0.000E+00

     total cpu time spent up to now is      120.7 secs

     total energy              =   -2246.18637367 Ry
     estimated scf accuracy    <       0.00000105 Ry

     iteration # 17     ecut=    80.00 Ry     beta= 0.70
     Davidson diagonalization with overlap
     ethr =  3.38E-10,  avg # of iterations =  4.0

     negative rho (up, down):  2.088E-04 0.000E+00

     total cpu time spent up to now is      124.3 secs

     End of self-consistent calculation

          k = 0.0000 0.0000 0.0000 (105382 PWs)   bands (ev):

   -62.9910 -62.9706 -62.9474 -62.9403 -62.9282 -62.9246 -62.9189 -62.9030
   -62.8999 -62.8817 -62.8540 -62.8276 -37.3385 -37.2712 -37.2599 -37.2429
   -37.2228 -37.2085 -37.1950 -37.1760 -37.1652 -37.1537 -37.1514 -37.1355
   -37.1287 -37.1190 -37.1092 -37.1057 -37.1037 -37.0903 -37.0786 -37.0729
   -37.0681 -37.0564 -37.0498 -37.0363 -37.0276 -37.0127 -37.0119 -36.9980
   -36.9961 -36.9824 -36.9795 -36.9412 -36.9123 -36.8826 -36.8525 -36.8452
   -19.5986 -16.0181 -15.3940 -15.2174 -15.0439 -15.0194 -14.8701 -14.8199
   -14.5582 -14.5363 -14.4955 -14.4740 -14.4335 -14.4103 -14.3927 -14.2817
   -14.2236 -14.2086 -14.1441 -14.0418 -13.9596 -13.9424 -13.9300 -13.8998
    -7.7695  -7.7227  -7.5865  -7.5038  -7.3803  -7.3627  -7.3186  -7.2818
    -7.1996  -6.9462  -6.9115  -6.8492  -6.8004  -6.7786  -6.7295  -6.5881
    -6.5830  -6.4886  -6.4210  -6.3350  -6.0960  -6.0860  -6.0297  -5.9889
    -5.9217  -5.8846  -5.8125  -5.8023  -5.7549  -5.7238  -5.6841  -5.6299
    -5.6206  -5.5285  -5.4858  -5.4070  -5.2405  -5.2112  -5.1483  -5.1189
    -5.0931  -5.0591  -4.9325  -4.7910  -4.6528  -4.6152  -4.4440  -4.4253
    -4.3397  -4.2994  -4.2410  -4.1437  -4.0304  -3.9779  -3.9192  -3.8677
    -3.8286  -3.7746  -3.7140  -3.6957  -3.6258  -3.5916  -3.5806  -3.5488
    -3.4952  -3.4712  -3.2806  -3.2142  -3.1009  -3.0264  -2.9643  -2.8912
    -2.8710  -2.8282  -2.7753  -2.7469  -2.7400  -2.6714  -2.4177  -2.2626
    -2.1070  -2.0396  -2.0180  -1.7579  -1.4728  -0.8737  -0.8305  -0.2738
    -0.2227  -0.2028  -0.1295  -0.0805   0.0645   0.1295   0.1503   0.1594
     0.1984   0.2625   0.3494   0.3849   0.4444   0.4772   0.5082   0.5419
     0.6005   0.6450   0.6707   0.6771   0.7257   0.7789   0.7973   0.8211
     0.8545   0.9468   1.1791

     the Fermi energy is    -1.6153 ev

!    total energy              =   -2246.18637276 Ry
     estimated scf accuracy    <       0.00000027 Ry
     smearing contrib. (-TS)   =      -0.00376488 Ry
     internal energy E=F+TS    =   -2246.18260788 Ry

     The total energy is F=E-TS. E is the sum of the following terms:
     one-electron contribution =  -18456.95578463 Ry
     hartree contribution      =    9216.51142805 Ry
     xc contribution           =    -391.91808964 Ry
     ewald contribution        =    7396.05353201 Ry
     one-center paw contrib.   =      -9.87369367 Ry

     convergence has been achieved in  17 iterations

     negative rho (up, down):  2.088E-04 0.000E+00

     Forces acting on atoms (cartesian axes, Ry/au):

     atom    1 type  1   force =     0.01184598   -0.02665922    0.00659627
     atom    2 type  2   force =    -0.01476929    0.01678097    0.00245978
     atom    3 type  2   force =    -0.01273925    0.00866440   -0.00312434
     atom    4 type  1   force =    -0.00000651    0.01007344   -0.00704717
     atom    5 type  2   force =     0.00186475   -0.00550769   -0.00577874
     atom    6 type  2   force =     0.00151644    0.00786843   -0.00142629
     atom    7 type  1   force =     0.00613567   -0.01470275   -0.00889788
     atom    8 type  2   force =     0.00109551   -0.00497641    0.01750827
     atom    9 type  2   force =     0.01371159    0.00708625    0.01139513
     atom   10 type  1   force =    -0.00911710    0.01317179   -0.02667308
     atom   11 type  2   force =     0.00392891   -0.00238882   -0.00631888
     atom   12 type  2   force =    -0.00103681    0.00056267    0.00661202
     atom   13 type  1   force =     0.03060500   -0.00492997   -0.04139952
     atom   14 type  2   force =     0.00589162   -0.00014112    0.01359783
     atom   15 type  2   force =    -0.01328435    0.00495267   -0.00796692
     atom   16 type  1   force =     0.00252440    0.03399569   -0.01143835
     atom   17 type  2   force =    -0.01607974   -0.01175051    0.00501920
     atom   18 type  2   force =    -0.00278448   -0.00541200    0.01338304
     atom   19 type  1   force =     0.00663314   -0.01658004   -0.00227589
     atom   20 type  2   force =     0.00201876   -0.00576821   -0.00086286
     atom   21 type  1   force =    -0.00688361    0.00610978   -0.00249184
     atom   22 type  2   force =    -0.00114271   -0.00573075   -0.00261316
     atom   23 type  2   force =    -0.00012647    0.00182392    0.00589349
     atom   24 type  1   force =    -0.01877219   -0.00311371   -0.03559036
     atom   25 type  2   force =     0.01342369    0.12586791    0.05384520
     atom   26 type  2   force =    -0.01206928   -0.00172469   -0.00354301
     atom   27 type  1   force =     0.00373589   -0.00273850    0.00766535
     atom   28 type  2   force =    -0.01111269    0.00659500   -0.01960739
     atom   29 type  2   force =     0.00305021   -0.00132299   -0.00073685
     atom   30 type  1   force =    -0.00207429    0.00730561   -0.00203609
     atom   31 type  2   force =     0.00085752    0.00142786    0.01745967
     atom   32 type  2   force =    -0.01042266    0.01340172    0.00572961
     atom   33 type  1   force =     0.01396523   -0.03306117   -0.01704161
     atom   34 type  2   force =     0.00192109   -0.04388511   -0.01003216
     atom   35 type  2   force =    -0.00593378    0.00819566    0.01346258
     atom   36 type  3   force =     0.01362981   -0.08349011    0.03627496
     The non-local contrib.  to forces
     atom    1 type  1   force =    -0.00013840    0.03548571   -0.00846710
     atom    2 type  2   force =    -0.00866101    0.00381860   -0.27438600
     atom    3 type  2   force =    -0.01316228   -0.00008998    0.27223532
     atom    4 type  1   force =     0.01082469   -0.00405599    0.00827236
     atom    5 type  2   force =     0.00949407   -0.03271566   -0.25192337
     atom    6 type  2   force =    -0.00146577    0.00666992    0.26177359
     atom    7 type  1   force =    -0.01969662   -0.00011852   -0.01841944
     atom    8 type  2   force =     0.00556999   -0.00273584   -0.25855531
     atom    9 type  2   force =     0.00855738   -0.00259127    0.27483231
     atom   10 type  1   force =     0.00349073    0.00139385    0.00039083
     atom   11 type  2   force =     0.01417706    0.00607520   -0.26101890
     atom   12 type  2   force =    -0.01214179   -0.01510194    0.26354574
     atom   13 type  1   force =    -0.00040341    0.02148212    0.00275000
     atom   14 type  2   force =     0.01061283   -0.00735638   -0.26670962
     atom   15 type  2   force =    -0.01621023   -0.00232067    0.26325260
     atom   16 type  1   force =    -0.00201174   -0.00000340   -0.03543262
     atom   17 type  2   force =    -0.12726461   -0.09775235   -0.14350566
     atom   18 type  2   force =    -0.00506060   -0.00291825    0.27339573
     atom   19 type  1   force =     0.01936129   -0.00465035   -0.01834362
     atom   20 type  2   force =    -0.00125647   -0.01994473    0.26694698
     atom   21 type  1   force =     0.00523681    0.02822448    0.00732036
     atom   22 type  2   force =    -0.00595193   -0.00140264   -0.25544863
     atom   23 type  2   force =     0.00461431   -0.01567891    0.27135253
     atom   24 type  1   force =     0.00245856    0.00734678   -0.00473647
     atom   25 type  2   force =     0.06155653    0.32920686    0.01589412
     atom   26 type  2   force =    -0.00383471   -0.01375531    0.26291201
     atom   27 type  1   force =     0.00059370    0.00656735    0.01948582
     atom   28 type  2   force =     0.01169766   -0.01703844   -0.27186936
     atom   29 type  2   force =     0.00808313    0.00271944    0.26034610
     atom   30 type  1   force =    -0.01080809    0.00940919    0.00824720
     atom   31 type  2   force =    -0.00686477   -0.00397566   -0.25266903
     atom   32 type  2   force =    -0.00219391   -0.00642727    0.27322379
     atom   33 type  1   force =    -0.00565248    0.01859657   -0.02346492
     atom   34 type  2   force =    -0.00169381   -0.04003065   -0.27075285
     atom   35 type  2   force =     0.00412295   -0.01208296    0.27480592
     atom   36 type  3   force =    -0.00285123   -0.53944313   -0.50614510
     The ionic contribution  to forces
     atom    1 type  1   force =     0.61021411   -0.03471018    4.16604150
     atom    2 type  2   force =    -1.42967108   -0.13800626   38.89134585
     atom    3 type  2   force =    -0.32270509   -0.13952242  -36.78790096
     atom    4 type  1   force =    -0.61224454    1.34257595   -0.87227763
     atom    5 type  2   force =    -0.77359668    1.80088721   38.42154872
     atom    6 type  2   force =     0.38078173   -0.41194066  -38.68056697
     atom    7 type  1   force =    -2.55024125   -2.56888137    1.64677773
     atom    8 type  2   force =    -1.18632761    0.35797395   37.15470454
     atom    9 type  2   force =     0.27817657    0.08430563  -38.52308433
     atom   10 type  1   force =    -1.51460300   -0.99576696    4.52803254
     atom   11 type  2   force =    -0.51607078   -1.79620106   38.96743491
     atom   12 type  2   force =     0.45328716    0.61017116  -38.33461334
     atom   13 type  1   force =     2.57008789   -0.16565252   -2.01265213
     atom   14 type  2   force =     1.14642679   -0.75323748   37.96342670
     atom   15 type  2   force =     0.34598154   -0.23031185  -37.55325361
     atom   16 type  1   force =     0.90127284    4.87468482   -1.31848772
     atom   17 type  2   force =     3.53302251    4.11087066   35.59409665
     atom   18 type  2   force =     0.02040365   -0.46547618  -39.57965168
     atom   19 type  1   force =     2.96777869   -2.04580896   -0.52796781
     atom   20 type  2   force =     0.30916108   -0.06671909  -39.01839506
     atom   21 type  1   force =     0.54179023   -0.71271259   -0.08558529
     atom   22 type  2   force =     0.65883130   -2.16525598   38.16087686
     atom   23 type  2   force =    -0.02471006    0.52802151  -38.86632251
     atom   24 type  1   force =    -2.84832933    0.18708487    1.84201044
     atom   25 type  2   force =    -0.04905417   -4.37443943   36.48326426
     atom   26 type  2   force =    -0.32857450   -0.22593277  -38.42284087
     atom   27 type  1   force =    -0.22021972    2.60230243   -5.72581262
     atom   28 type  2   force =    -2.34658798    2.68541401   36.73213703
     atom   29 type  2   force =    -0.49655451   -0.25823215  -38.22720605
     atom   30 type  1   force =    -0.64209609   -0.53000889   -1.15346368
     atom   31 type  2   force =     1.17662972    0.79226366   36.91646372
     atom   32 type  2   force =    -0.49546106    0.18844779  -39.27153896
     atom   33 type  1   force =     0.67523834   -2.34505737    0.22311823
     atom   34 type  2   force =    -0.01378426   -1.90747638   39.11027836
     atom   35 type  2   force =    -0.37697863    0.34966855  -38.37256925
     atom   36 type  3   force =     0.17872616    1.81667832   46.53263241
     The local contribution  to forces
     atom    1 type  1   force =    -0.59821599   -0.02743552   -4.15152896
     atom    2 type  2   force =     1.42335926    0.15110956  -38.63560764
     atom    3 type  2   force =     0.32253176    0.14833314   36.53315769
     atom    4 type  1   force =     0.60139586   -1.32848887    0.85635866
     atom    5 type  2   force =     0.76667289   -1.77552645  -38.19589880
     atom    6 type  2   force =    -0.37809318    0.41393648   38.43780372
     atom    7 type  1   force =     2.57598338    2.55422569   -1.63780459
     atom    8 type  2   force =     1.18205989   -0.36062909  -36.89942586
     atom    9 type  2   force =    -0.27277742   -0.07480544   38.28019266
     atom   10 type  1   force =     1.50196931    1.00760190   -4.55567912
     atom   11 type  2   force =     0.50645347    1.78832874  -38.73359665
     atom   12 type  2   force =    -0.44331796   -0.59573505   38.09818783
     atom   13 type  1   force =    -2.53897847    0.13919352    1.96782230
     atom   14 type  2   force =    -1.15057013    0.76042337  -37.70416954
     atom   15 type  2   force =    -0.34389569    0.23733298   37.30233724
     atom   16 type  1   force =    -0.89668697   -4.84060901    1.34193186
     atom   17 type  2   force =    -3.42772058   -4.02926653  -35.46103156
     atom   18 type  2   force =    -0.01822184    0.46350016   39.34027337
     atom   19 type  1   force =    -2.98043316    2.03384825    0.54349804
     atom   20 type  2   force =    -0.30612578    0.08012578   38.77147877
     atom   21 type  1   force =    -0.55392191    0.69066365    0.07515312
     atom   22 type  2   force =    -0.65422568    2.16121665  -37.92862223
     atom   23 type  2   force =     0.02042201   -0.51179945   38.62153873
     atom   24 type  1   force =     2.82698428   -0.19755578   -1.87355169
     atom   25 type  2   force =     0.00380114    4.18886103  -36.45178876
     atom   26 type  2   force =     0.32042017    0.23718922   38.17686489
     atom   27 type  1   force =     0.22334669   -2.61155888    5.71335930
     atom   28 type  2   force =     2.32345018   -2.66261510  -36.50138676
     atom   29 type  2   force =     0.49214466    0.25480770   37.98614645
     atom   30 type  1   force =     0.65083660    0.52790263    1.14261307
     atom   31 type  2   force =    -1.16928085   -0.78704806  -36.66699066
     atom   32 type  2   force =     0.48739401   -0.16897082   39.02470539
     atom   33 type  1   force =    -0.65560623    2.29340258   -0.21730514
     atom   34 type  2   force =     0.01709463    1.90237689  -38.87072463
     atom   35 type  2   force =     0.36733770   -0.33035527   38.13213183
     atom   36 type  3   force =    -0.16235969   -1.36686673  -45.99538565
     The core correction contribution to forces
     atom    1 type  1   force =     0.00000000    0.00000000    0.00000000
     atom    2 type  2   force =     0.00016005   -0.00013452    0.02097346
     atom    3 type  2   force =     0.00059835   -0.00004537   -0.02098282
     atom    4 type  1   force =     0.00000000    0.00000000    0.00000000
     atom    5 type  2   force =    -0.00072101    0.00183249    0.02037226
     atom    6 type  2   force =     0.00029607   -0.00082026   -0.02079197
     atom    7 type  1   force =     0.00000000    0.00000000    0.00000000
     atom    8 type  2   force =    -0.00019767    0.00040951    0.02064665
     atom    9 type  2   force =    -0.00022041    0.00016109   -0.02089975
     atom   10 type  1   force =     0.00000000    0.00000000    0.00000000
     atom   11 type  2   force =    -0.00064025   -0.00056666    0.02073996
     atom   12 type  2   force =     0.00112525    0.00127476   -0.02088204
     atom   13 type  1   force =     0.00000000    0.00000000    0.00000000
     atom   14 type  2   force =    -0.00053172    0.00001466    0.02091129
     atom   15 type  2   force =     0.00084286    0.00024030   -0.02067192
     atom   16 type  1   force =     0.00000000    0.00000000    0.00000000
     atom   17 type  2   force =     0.00594866    0.00444666    0.01536925
     atom   18 type  2   force =     0.00010766   -0.00054035   -0.02103557
     atom   19 type  1   force =     0.00000000    0.00000000    0.00000000
     atom   20 type  2   force =     0.00021989    0.00075959   -0.02122492
     atom   21 type  1   force =     0.00000000    0.00000000    0.00000000
     atom   22 type  2   force =     0.00020345   -0.00030397    0.02044340
     atom   23 type  2   force =    -0.00044521    0.00130445   -0.02103179
     atom   24 type  1   force =     0.00000000    0.00000000    0.00000000
     atom   25 type  2   force =    -0.00288825   -0.01782792    0.00631851
     atom   26 type  2   force =    -0.00009112    0.00076439   -0.02088112
     atom   27 type  1   force =     0.00000000    0.00000000    0.00000000
     atom   28 type  2   force =     0.00026881    0.00085630    0.02137270
     atom   29 type  2   force =    -0.00065230   -0.00065035   -0.02040911
     atom   30 type  1   force =     0.00000000    0.00000000    0.00000000
     atom   31 type  2   force =     0.00039347    0.00021988    0.02053186
     atom   32 type  2   force =    -0.00016755    0.00037025   -0.02102196
     atom   33 type  1   force =     0.00000000    0.00000000    0.00000000
     atom   34 type  2   force =     0.00031486    0.00122146    0.02104954
     atom   35 type  2   force =    -0.00041234    0.00097754   -0.02127553
     atom   36 type  3   force =     0.00016767    0.00617545    0.00494597
     The Hubbard contrib.    to forces
     atom    1 type  1   force =     0.00000000    0.00000000    0.00000000
     atom    2 type  2   force =     0.00000000    0.00000000    0.00000000
     atom    3 type  2   force =     0.00000000    0.00000000    0.00000000
     atom    4 type  1   force =     0.00000000    0.00000000    0.00000000
     atom    5 type  2   force =     0.00000000    0.00000000    0.00000000
     atom    6 type  2   force =     0.00000000    0.00000000    0.00000000
     atom    7 type  1   force =     0.00000000    0.00000000    0.00000000
     atom    8 type  2   force =     0.00000000    0.00000000    0.00000000
     atom    9 type  2   force =     0.00000000    0.00000000    0.00000000
     atom   10 type  1   force =     0.00000000    0.00000000    0.00000000
     atom   11 type  2   force =     0.00000000    0.00000000    0.00000000
     atom   12 type  2   force =     0.00000000    0.00000000    0.00000000
     atom   13 type  1   force =     0.00000000    0.00000000    0.00000000
     atom   14 type  2   force =     0.00000000    0.00000000    0.00000000
     atom   15 type  2   force =     0.00000000    0.00000000    0.00000000
     atom   16 type  1   force =     0.00000000    0.00000000    0.00000000
     atom   17 type  2   force =     0.00000000    0.00000000    0.00000000
     atom   18 type  2   force =     0.00000000    0.00000000    0.00000000
     atom   19 type  1   force =     0.00000000    0.00000000    0.00000000
     atom   20 type  2   force =     0.00000000    0.00000000    0.00000000
     atom   21 type  1   force =     0.00000000    0.00000000    0.00000000
     atom   22 type  2   force =     0.00000000    0.00000000    0.00000000
     atom   23 type  2   force =     0.00000000    0.00000000    0.00000000
     atom   24 type  1   force =     0.00000000    0.00000000    0.00000000
     atom   25 type  2   force =     0.00000000    0.00000000    0.00000000
     atom   26 type  2   force =     0.00000000    0.00000000    0.00000000
     atom   27 type  1   force =     0.00000000    0.00000000    0.00000000
     atom   28 type  2   force =     0.00000000    0.00000000    0.00000000
     atom   29 type  2   force =     0.00000000    0.00000000    0.00000000
     atom   30 type  1   force =     0.00000000    0.00000000    0.00000000
     atom   31 type  2   force =     0.00000000    0.00000000    0.00000000
     atom   32 type  2   force =     0.00000000    0.00000000    0.00000000
     atom   33 type  1   force =     0.00000000    0.00000000    0.00000000
     atom   34 type  2   force =     0.00000000    0.00000000    0.00000000
     atom   35 type  2   force =     0.00000000    0.00000000    0.00000000
     atom   36 type  3   force =     0.00000000    0.00000000    0.00000000
     The SCF correction term to forces
     atom    1 type  1   force =    -0.00001444    0.00000088    0.00052547
     atom    2 type  2   force =     0.00004279   -0.00000630    0.00010873
     atom    3 type  2   force =    -0.00000269   -0.00001086    0.00034106
     atom    4 type  1   force =     0.00001677    0.00004245    0.00057409
     atom    5 type  2   force =     0.00001478    0.00001483    0.00009708
     atom    6 type  2   force =    -0.00000310    0.00002306    0.00032999
     atom    7 type  1   force =     0.00008946    0.00007156    0.00052305
     atom    8 type  2   force =    -0.00000979    0.00000516    0.00011289
     atom    9 type  2   force =    -0.00002523    0.00001634    0.00032888
     atom   10 type  1   force =     0.00002516   -0.00005690    0.00055731
     atom   11 type  2   force =     0.00000871   -0.00002494    0.00009643
     atom   12 type  2   force =     0.00000983   -0.00004615    0.00034846
     atom   13 type  1   force =    -0.00010171    0.00004703    0.00065494
     atom   14 type  2   force =    -0.00004684    0.00001481    0.00011363
     atom   15 type  2   force =    -0.00000354    0.00001202    0.00034341
     atom   16 type  1   force =    -0.00005043   -0.00007662    0.00052476
     atom   17 type  2   force =    -0.00006642   -0.00004884    0.00006515
     atom   18 type  2   force =    -0.00001405    0.00002272    0.00037583
     atom   19 type  1   force =    -0.00007438    0.00003113    0.00051214
     atom   20 type  2   force =     0.00001934    0.00001035    0.00030600
     atom   21 type  1   force =     0.00001057   -0.00006565    0.00059460
     atom   22 type  2   force =    -0.00000054    0.00001531    0.00011207
     atom   23 type  2   force =    -0.00000823   -0.00002358    0.00033116
     atom   24 type  1   force =     0.00011360    0.00001052    0.00066200
     atom   25 type  2   force =     0.00000775    0.00006748    0.00013170
     atom   26 type  2   force =     0.00001018    0.00000988    0.00037672
     atom   27 type  1   force =     0.00001452   -0.00004928    0.00060749
     atom   28 type  2   force =     0.00005793   -0.00002167    0.00011365
     atom   29 type  2   force =     0.00002853    0.00003248    0.00036039
     atom   30 type  1   force =    -0.00000742    0.00000279    0.00054195
     atom   31 type  2   force =    -0.00002075   -0.00003184    0.00009841
     atom   32 type  2   force =     0.00000515   -0.00001813    0.00033599
     atom   33 type  1   force =    -0.00001510   -0.00000284    0.00058486
     atom   34 type  2   force =    -0.00001103    0.00002368    0.00009206
     atom   35 type  2   force =    -0.00000417   -0.00001210    0.00034425
     atom   36 type  3   force =    -0.00005380   -0.00003391    0.00020196

     Total force =     0.209934     Total SCF correction =     0.002375

     BFGS Geometry Optimization
     Energy error            =      0.0E+00 Ry
     Gradient error          =      1.3E-01 Ry/Bohr

     number of scf cycles    =   1
     number of bfgs steps    =   0

     energy             new  =   -2246.1863727563 Ry

     new trust radius        =       0.1375581010 bohr
     new conv_thr            =       0.0000010000 Ry


ATOMIC_POSITIONS (angstrom)
Mo            6.5808170319        1.7736987779        2.8271336251
S             8.1688937652        0.8185841300        4.4358400113
S             8.1864917644        0.8158267496        1.2762300976
Mo            8.0951591182        4.5003875784        2.7140891934
S             6.5008960420        3.7194969458        4.3436026714
S             6.5541522659        3.5159013497        1.1205254678
Mo            6.4932285513        7.2106569232        2.6671759280
S             8.0823074489        6.3412375889        4.2517265428
S             8.0881735055        6.3084521961        1.0898930431
Mo            8.1557944888        9.9091506241        2.8293469748
S             6.4972466834        8.9416627036        4.3797617271
S             6.6173985453        9.0490089667        1.1434062306
Mo            3.4378551313        1.7443470242        2.7545634773
S             4.9782832006        0.8168665297        4.3577287546
S             5.0508039808        0.8488829472        1.2224425485
Mo            4.9810925365        4.5311677450        2.6268316331
S             3.4193326281        3.6653815861        4.2823656252
S             3.4364470985        3.5453647928        1.0654336843
Mo            3.4573718475        7.2075507614        2.6294725128
S             4.9843024755        6.3238798823        1.0367971229
Mo            5.0086212702        9.9048332081        2.7420823381
S             3.4703534233        8.9407186865        4.3242084883
S             3.4083622388        9.0659551606        1.0991869998
Mo            0.2861566727        1.7458618257        2.8306111009
S             1.8575657248        0.8593004359        4.4267030893
S             1.8544132457        0.8535132516        1.2075259761
Mo            1.8626682548        4.4942176117        2.6642537088
S             0.2663332647        3.6578887511        4.3272083179
S             0.2328453096        3.5265491292        1.1716279573
Mo            0.2700544832        7.2205120569        2.7006189731
S             1.9026920270        6.3135544274        4.2316833796
S             1.8567227822        6.3174356987        1.0475912617
Mo            1.8517367437        9.9226439338        2.7639282181
S             0.2969294985        9.0667748266        4.4085606750
S             0.2736313780        9.0478626692        1.1575248722
O             2.1087148075        2.3844633793        5.3626576438



     Writing config-only to output data dir ./MoS2-V-O.save/
     NEW-OLD atomic charge density approx. for the potential

     negative rho (up, down):  2.030E-04 0.000E+00

     total cpu time spent up to now is      131.8 secs

     Self-consistent Calculation

     iteration #  1     ecut=    80.00 Ry     beta= 0.70
     Davidson diagonalization with overlap
     ethr =  1.00E-06,  avg # of iterations = 14.0

     negative rho (up, down):  1.769E-04 0.000E+00

     total cpu time spent up to now is      147.5 secs

     total energy              =   -2246.22518479 Ry
     estimated scf accuracy    <       0.01771746 Ry

     iteration #  2     ecut=    80.00 Ry     beta= 0.70
     Davidson diagonalization with overlap
     ethr =  5.68E-06,  avg # of iterations =  4.0

     negative rho (up, down):  2.042E-04 0.000E+00

     total cpu time spent up to now is      158.9 secs

     total energy              =   -2246.22709093 Ry
     estimated scf accuracy    <       0.00628324 Ry

     iteration #  3     ecut=    80.00 Ry     beta= 0.70
     Davidson diagonalization with overlap
     ethr =  2.01E-06,  avg # of iterations =  4.0

     negative rho (up, down):  2.090E-04 0.000E+00

     total cpu time spent up to now is      170.4 secs

     total energy              =   -2246.22767043 Ry
     estimated scf accuracy    <       0.00047731 Ry

     iteration #  4     ecut=    80.00 Ry     beta= 0.70
     Davidson diagonalization with overlap
     ethr =  1.53E-07,  avg # of iterations =  6.0

     negative rho (up, down):  2.096E-04 0.000E+00

     total cpu time spent up to now is      183.1 secs

     total energy              =   -2246.22774919 Ry
     estimated scf accuracy    <       0.00005077 Ry

     iteration #  5     ecut=    80.00 Ry     beta= 0.70
     Davidson diagonalization with overlap
     ethr =  1.63E-08,  avg # of iterations =  5.0

     negative rho (up, down):  2.121E-04 0.000E+00

     total cpu time spent up to now is      197.9 secs

     total energy              =   -2246.22776218 Ry
     estimated scf accuracy    <       0.00001030 Ry

     iteration #  6     ecut=    80.00 Ry     beta= 0.70
     Davidson diagonalization with overlap
     ethr =  3.30E-09,  avg # of iterations =  3.0

     negative rho (up, down):  2.132E-04 0.000E+00

     total cpu time spent up to now is      213.5 secs

     total energy              =   -2246.22776345 Ry
     estimated scf accuracy    <       0.00000262 Ry

     iteration #  7     ecut=    80.00 Ry     beta= 0.70
     Davidson diagonalization with overlap
     ethr =  8.41E-10,  avg # of iterations =  5.0

     negative rho (up, down):  2.089E-04 0.000E+00

     total cpu time spent up to now is      217.2 secs

     End of self-consistent calculation

          k = 0.0000 0.0000 0.0000 (105382 PWs)   bands (ev):

   -63.0214 -62.9922 -62.9521 -62.9375 -62.9241 -62.9201 -62.9184 -62.8999
   -62.8952 -62.8663 -62.8622 -62.7971 -37.3409 -37.2838 -37.2773 -37.2544
   -37.2227 -37.2132 -37.2013 -37.1812 -37.1703 -37.1547 -37.1468 -37.1363
   -37.1266 -37.1173 -37.1066 -37.1023 -37.0982 -37.0869 -37.0754 -37.0745
   -37.0713 -37.0562 -37.0396 -37.0294 -37.0263 -37.0200 -37.0058 -36.9978
   -36.9934 -36.9854 -36.9672 -36.9450 -36.9067 -36.8784 -36.8414 -36.8276
   -20.0163 -16.0169 -15.3444 -15.2226 -15.0452 -14.9953 -14.8646 -14.7934
   -14.5550 -14.5242 -14.4977 -14.4810 -14.4382 -14.4069 -14.3708 -14.2846
   -14.2187 -14.2137 -14.1391 -14.0181 -13.9581 -13.9503 -13.9058 -13.8764
    -7.8366  -7.7506  -7.5827  -7.4976  -7.3834  -7.3632  -7.3308  -7.2919
    -7.2196  -6.9555  -6.9068  -6.8600  -6.7880  -6.7735  -6.7516  -6.5943
    -6.5821  -6.5080  -6.4211  -6.3340  -6.0891  -6.0408  -6.0275  -5.9806
    -5.9184  -5.8877  -5.8043  -5.8018  -5.7569  -5.7293  -5.6939  -5.6400
    -5.6078  -5.5120  -5.4522  -5.3981  -5.2393  -5.2174  -5.1430  -5.1197
    -5.0831  -5.0725  -4.9366  -4.7935  -4.6685  -4.6310  -4.4375  -4.4147
    -4.3492  -4.2994  -4.2506  -4.1679  -4.0530  -3.9765  -3.9321  -3.8677
    -3.8128  -3.7813  -3.7244  -3.7065  -3.6160  -3.5902  -3.5675  -3.5490
    -3.4927  -3.4828  -3.2793  -3.2209  -3.1060  -3.0433  -2.9454  -2.8883
    -2.8720  -2.8199  -2.7769  -2.7666  -2.7462  -2.6703  -2.4430  -2.2983
    -2.1120  -2.0701  -2.0512  -1.7562  -1.3454  -0.8517  -0.8338  -0.2621
    -0.2275  -0.1951  -0.1171  -0.0606   0.0592   0.1453   0.1599   0.1707
     0.2228   0.2693   0.3495   0.3954   0.4586   0.4679   0.5111   0.5368
     0.6096   0.6381   0.6604   0.6737   0.7414   0.7773   0.8028   0.8369
     0.8693   0.9507   1.2092

     the Fermi energy is    -1.5508 ev

!    total energy              =   -2246.22776344 Ry
     estimated scf accuracy    <       0.00000047 Ry
     smearing contrib. (-TS)   =      -0.00115584 Ry
     internal energy E=F+TS    =   -2246.22660760 Ry

     The total energy is F=E-TS. E is the sum of the following terms:
     one-electron contribution =  -18452.65968610 Ry
     hartree contribution      =    9214.34805854 Ry
     xc contribution           =    -391.94544963 Ry
     ewald contribution        =    7393.90153074 Ry
     one-center paw contrib.   =      -9.87106116 Ry

     convergence has been achieved in   7 iterations

     negative rho (up, down):  2.089E-04 0.000E+00

     Forces acting on atoms (cartesian axes, Ry/au):

     atom    1 type  1   force =     0.00312817   -0.01479918    0.00070326
     atom    2 type  2   force =    -0.00862167    0.01065683   -0.00087579
     atom    3 type  2   force =    -0.01420008    0.00596579   -0.01158302
     atom    4 type  1   force =     0.00230357    0.00626894   -0.00302355
     atom    5 type  2   force =    -0.00021931   -0.00415011   -0.00692777
     atom    6 type  2   force =     0.00071338    0.00539675    0.00014477
     atom    7 type  1   force =     0.00489243   -0.00990520   -0.00267889
     atom    8 type  2   force =     0.00047125   -0.00480227    0.01233439
     atom    9 type  2   force =     0.01252346    0.00658905    0.00624046
     atom   10 type  1   force =    -0.00138050    0.00970942   -0.00818848
     atom   11 type  2   force =     0.00331858   -0.00230987   -0.00935771
     atom   12 type  2   force =    -0.00289872    0.00012973    0.00245380
     atom   13 type  1   force =     0.01569839    0.00000794   -0.02337841
     atom   14 type  2   force =     0.00375600   -0.00085995    0.00807517
     atom   15 type  2   force =    -0.00326799    0.00133577   -0.01190162
     atom   16 type  1   force =    -0.00072875    0.01837541    0.00001001
     atom   17 type  2   force =     0.00312037   -0.00495649   -0.01011145
     atom   18 type  2   force =    -0.00080073   -0.00123659    0.00765934
     atom   19 type  1   force =     0.00552763   -0.01020091    0.00112842
     atom   20 type  2   force =     0.00213241   -0.00158715   -0.00717818
     atom   21 type  1   force =    -0.00646378    0.00390916    0.00175646
     atom   22 type  2   force =    -0.00031476   -0.00608585   -0.00388371
     atom   23 type  2   force =    -0.00012649   -0.00230391    0.00182564
     atom   24 type  1   force =    -0.01136495    0.00094618   -0.01688309
     atom   25 type  2   force =     0.01643445    0.12864784    0.03865682
     atom   26 type  2   force =    -0.00807250   -0.00583785   -0.00476821
     atom   27 type  1   force =     0.00007341   -0.00226178    0.00693305
     atom   28 type  2   force =    -0.01015208    0.00336260   -0.01848560
     atom   29 type  2   force =     0.00287414    0.00163224   -0.00451480
     atom   30 type  1   force =    -0.00235536    0.00239034    0.00456701
     atom   31 type  2   force =     0.00138046   -0.00024930    0.01190608
     atom   32 type  2   force =    -0.00812194    0.01009439    0.00445895
     atom   33 type  1   force =     0.00875970   -0.01131103    0.00467723
     atom   34 type  2   force =     0.00004153   -0.03191488   -0.01496256
     atom   35 type  2   force =    -0.00392409    0.00661534    0.00582719
     atom   36 type  3   force =    -0.00413565   -0.10726140    0.03934479
     The non-local contrib.  to forces
     atom    1 type  1   force =     0.00020104    0.03277578   -0.00856654
     atom    2 type  2   force =    -0.00491128   -0.00037524   -0.27427250
     atom    3 type  2   force =    -0.01285584   -0.00404058    0.26449202
     atom    4 type  1   force =     0.00872240   -0.00108222    0.00774813
     atom    5 type  2   force =     0.00784348   -0.03215198   -0.25628028
     atom    6 type  2   force =    -0.00249017    0.00318666    0.26498188
     atom    7 type  1   force =    -0.02063603   -0.00249348   -0.02149601
     atom    8 type  2   force =     0.00579276   -0.00219131   -0.26136985
     atom    9 type  2   force =     0.00713981   -0.00260545    0.27092375
     atom   10 type  1   force =     0.00158443    0.00221716   -0.00076132
     atom   11 type  2   force =     0.01267049    0.00590142   -0.26382490
     atom   12 type  2   force =    -0.01280941   -0.01572416    0.26236784
     atom   13 type  1   force =     0.00156087    0.02099558    0.00792189
     atom   14 type  2   force =     0.01070884   -0.00747282   -0.26913802
     atom   15 type  2   force =    -0.00861326   -0.00639255    0.25909449
     atom   16 type  1   force =    -0.00662381    0.00571438   -0.03845397
     atom   17 type  2   force =    -0.09759061   -0.07932041   -0.17384213
     atom   18 type  2   force =    -0.00204043   -0.00133056    0.27120137
     atom   19 type  1   force =     0.02156958   -0.00659733   -0.01988288
     atom   20 type  2   force =    -0.00068612   -0.01509330    0.26163501
     atom   21 type  1   force =     0.00376986    0.02910625    0.00512490
     atom   22 type  2   force =    -0.00425010   -0.00199591   -0.25568951
     atom   23 type  2   force =     0.00331914   -0.01864511    0.27027470
     atom   24 type  1   force =     0.00246343    0.00564787   -0.00208661
     atom   25 type  2   force =     0.07516612    0.36794419    0.05892598
     atom   26 type  2   force =    -0.00028651   -0.01677614    0.26479512
     atom   27 type  1   force =     0.00185715    0.00588597    0.01771687
     atom   28 type  2   force =     0.00301781   -0.01313846   -0.27349198
     atom   29 type  2   force =     0.00686309    0.00304687    0.26002925
     atom   30 type  1   force =    -0.01078302    0.00915253    0.00663989
     atom   31 type  2   force =    -0.00668814   -0.00387134   -0.25641147
     atom   32 type  2   force =     0.00006998   -0.00868360    0.27293675
     atom   33 type  1   force =    -0.00385242    0.00597445   -0.03605718
     atom   34 type  2   force =    -0.00398953   -0.03089431   -0.27346075
     atom   35 type  2   force =     0.00573109   -0.01318348    0.27145399
     atom   36 type  3   force =    -0.08434250   -0.85692406   -0.66946767
     The ionic contribution  to forces
     atom    1 type  1   force =     0.36778723    0.37751603    4.42721408
     atom    2 type  2   force =    -1.19030870   -0.26049504   38.98559380
     atom    3 type  2   force =    -0.31512384   -0.13785457  -36.91510683
     atom    4 type  1   force =    -0.61316682    1.17214872   -0.92620561
     atom    5 type  2   force =    -0.84448769    1.76235612   38.31691750
     atom    6 type  2   force =     0.34218937   -0.50237338  -38.56887343
     atom    7 type  1   force =    -2.52955870   -2.25195515    1.61417882
     atom    8 type  2   force =    -1.18073642    0.38007647   37.31264746
     atom    9 type  2   force =     0.30718946    0.08103188  -38.52239950
     atom   10 type  1   force =    -1.21590390   -1.04838811    4.28333832
     atom   11 type  2   force =    -0.48171300   -1.79438025   38.90600512
     atom   12 type  2   force =     0.38305491    0.55701636  -38.28020979
     atom   13 type  1   force =     2.14531981   -0.19032410   -2.72953174
     atom   14 type  2   force =     1.02477833   -0.72928098   38.06929391
     atom   15 type  2   force =     0.45348905   -0.24539017  -37.65769893
     atom   16 type  1   force =     0.84732124    4.33369308   -1.24866048
     atom   17 type  2   force =     3.52645743    4.00666043   35.58078046
     atom   18 type  2   force =    -0.00074185   -0.39663796  -39.47539153
     atom   19 type  1   force =     2.90605043   -1.90311657   -0.42454614
     atom   20 type  2   force =     0.28576621    0.02157367  -39.15587813
     atom   21 type  1   force =     0.50978054   -0.84098062    0.08348534
     atom   22 type  2   force =     0.63072737   -2.08334162   38.18720246
     atom   23 type  2   force =     0.02732254    0.47691649  -38.85489742
     atom   24 type  1   force =    -2.33132040   -0.06450280    1.30878965
     atom   25 type  2   force =    -0.25678582   -5.10974812   36.00791391
     atom   26 type  2   force =    -0.33138803   -0.27577078  -38.24751065
     atom   27 type  1   force =    -0.22640806    2.50893422   -5.34289739
     atom   28 type  2   force =    -2.21575184    2.53928940   36.64989496
     atom   29 type  2   force =    -0.44333720   -0.17690736  -38.20989648
     atom   30 type  1   force =    -0.60111824   -0.63255792   -1.03304780
     atom   31 type  2   force =     1.16234367    0.76770260   37.03057329
     atom   32 type  2   force =    -0.49508709    0.12337801  -39.22030847
     atom   33 type  1   force =     0.48443009   -1.51827031    0.54709733
     atom   34 type  2   force =    -0.02682366   -1.58736276   39.03178603
     atom   35 type  2   force =    -0.36917798    0.36553341  -38.30782262
     atom   36 type  3   force =     0.26493155    2.27581166   46.77817051
     The local contribution  to forces
     atom    1 type  1   force =    -0.36497365   -0.42496336   -4.41857106
     atom    2 type  2   force =     1.18639470    0.27146953  -38.73346123
     atom    3 type  2   force =     0.31320526    0.14768841   36.65955642
     atom    4 type  1   force =     0.60660641   -1.16460069    0.91483508
     atom    5 type  2   force =     0.83716073   -1.73610013  -38.08820393
     atom    6 type  2   force =    -0.33926277    0.50531657   38.32460932
     atom    7 type  1   force =     2.55522106    2.24468794   -1.59589736
     atom    8 type  2   force =     1.17559442   -0.38302049  -37.05994894
     atom    9 type  2   force =    -0.30167291   -0.07197829   38.27835523
     atom   10 type  1   force =     1.21291962    1.05557608   -4.29127767
     atom   11 type  2   force =     0.47292585    1.78665829  -38.67266528
     atom   12 type  2   force =    -0.37426301   -0.54248526   38.04099095
     atom   13 type  1   force =    -2.13087298    0.16923337    2.69732123
     atom   14 type  2   force =    -1.03101887    0.73579308  -37.81340568
     atom   15 type  2   force =    -0.44877064    0.25270952   37.40706280
     atom   16 type  1   force =    -0.84122318   -4.32109370    1.28654178
     atom   17 type  2   force =    -3.43001016   -3.93553387  -35.43416001
     atom   18 type  2   force =     0.00202981    0.39724645   39.23252983
     atom   19 type  1   force =    -2.92202718    1.89972646    0.44493356
     atom   20 type  2   force =    -0.28308160   -0.00859874   38.90786072
     atom   21 type  1   force =    -0.52003512    0.81559316   -0.08748180
     atom   22 type  2   force =    -0.62692775    2.07951789  -37.95622423
     atom   23 type  2   force =    -0.03044576   -0.46194629   38.60736762
     atom   24 type  1   force =     2.31732440    0.05974067   -1.32449877
     atom   25 type  2   force =     0.20183384    4.89124921  -36.03157668
     atom   26 type  2   force =     0.32389895    0.28579078   37.99869782
     atom   27 type  1   force =     0.22449844   -2.51686589    5.33125936
     atom   28 type  2   force =     2.20175727   -2.52326342  -36.41665695
     atom   29 type  2   force =     0.43988947    0.17611135   37.96545767
     atom   30 type  1   force =     0.60936375    0.62575850    1.03046561
     atom   31 type  2   force =    -1.15472036   -0.76422184  -36.78314482
     atom   32 type  2   force =     0.48712681   -0.10504381   38.97261848
     atom   33 type  1   force =    -0.47176117    1.50064310   -0.50717435
     atom   34 type  2   force =     0.03046314    1.58531768  -38.79481190
     atom   35 type  2   force =     0.36004010   -0.34679828   38.06329801
     atom   36 type  3   force =    -0.18579512   -1.53584308  -46.07619265
     The core correction contribution to forces
     atom    1 type  1   force =     0.00000000    0.00000000    0.00000000
     atom    2 type  2   force =     0.00011749   -0.00000015    0.02102709
     atom    3 type  2   force =     0.00052800    0.00016307   -0.02080641
     atom    4 type  1   force =     0.00000000    0.00000000    0.00000000
     atom    5 type  2   force =    -0.00071931    0.00176831    0.02045944
     atom    6 type  2   force =     0.00029563   -0.00076171   -0.02083319
     atom    7 type  1   force =     0.00000000    0.00000000    0.00000000
     atom    8 type  2   force =    -0.00020156    0.00039779    0.02076291
     atom    9 type  2   force =    -0.00012626    0.00016529   -0.02082900
     atom   10 type  1   force =     0.00000000    0.00000000    0.00000000
     atom   11 type  2   force =    -0.00052949   -0.00057426    0.02079608
     atom   12 type  2   force =     0.00107808    0.00125482   -0.02083730
     atom   13 type  1   force =     0.00000000    0.00000000    0.00000000
     atom   14 type  2   force =    -0.00063142    0.00007975    0.02102383
     atom   15 type  2   force =     0.00064047    0.00040049   -0.02059273
     atom   16 type  1   force =     0.00000000    0.00000000    0.00000000
     atom   17 type  2   force =     0.00448610    0.00335566    0.01682401
     atom   18 type  2   force =    -0.00004689   -0.00053372   -0.02097903
     atom   19 type  1   force =     0.00000000    0.00000000    0.00000000
     atom   20 type  2   force =     0.00018586    0.00060296   -0.02110444
     atom   21 type  1   force =     0.00000000    0.00000000    0.00000000
     atom   22 type  2   force =     0.00015798   -0.00031060    0.02048346
     atom   23 type  2   force =    -0.00028382    0.00136464   -0.02105946
     atom   24 type  1   force =     0.00000000    0.00000000    0.00000000
     atom   25 type  2   force =    -0.00380166   -0.02102559    0.00290480
     atom   26 type  2   force =    -0.00026329    0.00086459   -0.02091074
     atom   27 type  1   force =     0.00000000    0.00000000    0.00000000
     atom   28 type  2   force =     0.00060713    0.00062738    0.02145573
     atom   29 type  2   force =    -0.00056249   -0.00056201   -0.02040335
     atom   30 type  1   force =     0.00000000    0.00000000    0.00000000
     atom   31 type  2   force =     0.00036857    0.00024234    0.02063838
     atom   32 type  2   force =    -0.00029159    0.00043088   -0.02101128
     atom   33 type  1   force =     0.00000000    0.00000000    0.00000000
     atom   34 type  2   force =     0.00033102    0.00091307    0.02115535
     atom   35 type  2   force =    -0.00052410    0.00101601   -0.02120740
     atom   36 type  3   force =     0.00112014    0.00978836    0.00682629
     The Hubbard contrib.    to forces
     atom    1 type  1   force =     0.00000000    0.00000000    0.00000000
     atom    2 type  2   force =     0.00000000    0.00000000    0.00000000
     atom    3 type  2   force =     0.00000000    0.00000000    0.00000000
     atom    4 type  1   force =     0.00000000    0.00000000    0.00000000
     atom    5 type  2   force =     0.00000000    0.00000000    0.00000000
     atom    6 type  2   force =     0.00000000    0.00000000    0.00000000
     atom    7 type  1   force =     0.00000000    0.00000000    0.00000000
     atom    8 type  2   force =     0.00000000    0.00000000    0.00000000
     atom    9 type  2   force =     0.00000000    0.00000000    0.00000000
     atom   10 type  1   force =     0.00000000    0.00000000    0.00000000
     atom   11 type  2   force =     0.00000000    0.00000000    0.00000000
     atom   12 type  2   force =     0.00000000    0.00000000    0.00000000
     atom   13 type  1   force =     0.00000000    0.00000000    0.00000000
     atom   14 type  2   force =     0.00000000    0.00000000    0.00000000
     atom   15 type  2   force =     0.00000000    0.00000000    0.00000000
     atom   16 type  1   force =     0.00000000    0.00000000    0.00000000
     atom   17 type  2   force =     0.00000000    0.00000000    0.00000000
     atom   18 type  2   force =     0.00000000    0.00000000    0.00000000
     atom   19 type  1   force =     0.00000000    0.00000000    0.00000000
     atom   20 type  2   force =     0.00000000    0.00000000    0.00000000
     atom   21 type  1   force =     0.00000000    0.00000000    0.00000000
     atom   22 type  2   force =     0.00000000    0.00000000    0.00000000
     atom   23 type  2   force =     0.00000000    0.00000000    0.00000000
     atom   24 type  1   force =     0.00000000    0.00000000    0.00000000
     atom   25 type  2   force =     0.00000000    0.00000000    0.00000000
     atom   26 type  2   force =     0.00000000    0.00000000    0.00000000
     atom   27 type  1   force =     0.00000000    0.00000000    0.00000000
     atom   28 type  2   force =     0.00000000    0.00000000    0.00000000
     atom   29 type  2   force =     0.00000000    0.00000000    0.00000000
     atom   30 type  1   force =     0.00000000    0.00000000    0.00000000
     atom   31 type  2   force =     0.00000000    0.00000000    0.00000000
     atom   32 type  2   force =     0.00000000    0.00000000    0.00000000
     atom   33 type  1   force =     0.00000000    0.00000000    0.00000000
     atom   34 type  2   force =     0.00000000    0.00000000    0.00000000
     atom   35 type  2   force =     0.00000000    0.00000000    0.00000000
     atom   36 type  3   force =     0.00000000    0.00000000    0.00000000
     The SCF correction term to forces
     atom    1 type  1   force =     0.00011266   -0.00013233    0.00060610
     atom    2 type  2   force =     0.00008524    0.00005302    0.00021636
     atom    3 type  2   force =     0.00004544    0.00000475    0.00026110
     atom    4 type  1   force =     0.00014069   -0.00020158    0.00057816
     atom    5 type  2   force =    -0.00001742   -0.00002714    0.00015882
     atom    6 type  2   force =    -0.00001957    0.00002389    0.00023950
     atom    7 type  1   force =    -0.00013479   -0.00014922    0.00051498
     atom    8 type  2   force =     0.00002116   -0.00006944    0.00022214
     atom    9 type  2   force =    -0.00000755   -0.00002908    0.00016929
     atom   10 type  1   force =     0.00001847    0.00029959    0.00049150
     atom   11 type  2   force =    -0.00003617    0.00008022    0.00031059
     atom   12 type  2   force =     0.00003982    0.00006326    0.00012143
     atom   13 type  1   force =    -0.00031019    0.00009838    0.00088952
     atom   14 type  2   force =    -0.00008177    0.00001632    0.00028045
     atom   15 type  2   force =    -0.00001450    0.00000377    0.00021206
     atom   16 type  1   force =    -0.00020389    0.00005693    0.00056200
     atom   17 type  2   force =    -0.00022328   -0.00012300    0.00026553
     atom   18 type  2   force =    -0.00000226    0.00001450    0.00027801
     atom   19 type  1   force =    -0.00006608   -0.00021817    0.00060319
     atom   20 type  2   force =    -0.00005282   -0.00007645    0.00028798
     atom   21 type  1   force =     0.00002006    0.00018566    0.00060734
     atom   22 type  2   force =    -0.00002317    0.00003969    0.00032343
     atom   23 type  2   force =    -0.00003948    0.00000165    0.00011952
     atom   24 type  1   force =     0.00016674    0.00005572    0.00089196
     atom   25 type  2   force =     0.00002109    0.00022345    0.00046812
     atom   26 type  2   force =    -0.00003452    0.00004899    0.00013955
     atom   27 type  1   force =     0.00012499   -0.00022078    0.00083353
     atom   28 type  2   force =     0.00021667   -0.00015701    0.00029195
     atom   29 type  2   force =     0.00002040   -0.00006132    0.00027743
     atom   30 type  1   force =     0.00018126    0.00003253    0.00048863
     atom   31 type  2   force =     0.00007583   -0.00010576    0.00023002
     atom   32 type  2   force =     0.00005906    0.00000820    0.00020279
     atom   33 type  1   force =    -0.00005769    0.00033702    0.00079075
     atom   34 type  2   force =     0.00005968    0.00010674    0.00034803
     atom   35 type  2   force =     0.00000592    0.00004299    0.00008453
     atom   36 type  3   force =    -0.00005061   -0.00009899   -0.00001238

     Total force =     0.195012     Total SCF correction =     0.002809
     Energy error            =      4.1E-02 Ry
     Gradient error          =      1.3E-01 Ry/Bohr

     number of scf cycles    =   2
     number of bfgs steps    =   1

     energy             old  =   -2246.1863727563 Ry
     energy             new  =   -2246.2277634417 Ry

     CASE: energy            _new < energy            _old


     WARNING: bfgs curvature condition failed, Theta= 0.927
     new trust radius        =       0.1513139111 bohr
     new conv_thr            =       0.0000001286 Ry


ATOMIC_POSITIONS (angstrom)
Mo            6.5850593670        1.7617267166        2.8291713440
S             8.1621290581        0.8265392433        4.4362442531
S             8.1785433082        0.8200789759        1.2717493672
Mo            8.0958771800        4.5051228724        2.7112021208
S             6.5013414402        3.7166821135        4.3398451276
S             6.5547931314        3.5197563800        1.1201776164
Mo            6.4964484277        7.2035094567        2.6638864980
S             8.0827566390        6.3383653819        4.2604063360
S             8.0958660001        6.3124642448        1.0949837004
Mo            8.1528503862        9.9158149733        2.8194369140
S             6.4993665474        8.9402825102        4.3750959726
S             6.6162069576        9.0492045803        1.1459953292
Mo            3.4511956632        1.7429907893        2.7358479584
S             4.9810806855        0.8165589032        4.3639998237
S             5.0461215354        0.8506653413        1.2165276245
Mo            4.9815605362        4.5462793186        2.6236823125
S             3.4158761037        3.6605942229        4.2805891411
S             3.4354294610        3.5434867998        1.0715156127
Mo            3.4609273295        7.1997935012        2.6291978971
S             4.9855252249        6.3217941661        1.0343161592
Mo            5.0047042164        9.9077386819        2.7419444688
S             3.4699401276        8.9372374663        4.3222746484
S             3.4082878547        9.0657378740        1.1013817713
Mo            0.2774314892        1.7452993537        2.8155263741
S             1.8664010478        0.9341920490        4.4536231239
S             1.8485642853        0.8512136146        1.2050594631
Mo            1.8637208180        4.4927560752        2.6685328572
S             0.2600980792        3.6607571555        4.3160277708
S             0.2345841180        3.5266945771        1.1700140177
Mo            0.2687467605        7.2232724802        2.7014849923
S             1.9033597509        6.3138700466        4.2402159308
S             1.8513121869        6.3242837187        1.0505637683
Mo            1.8583229822        9.9099975077        2.7606931110
S             0.2974719370        9.0447066567        4.4011200315
S             0.2707697452        9.0521886906        1.1630561815
O             2.1111788528        2.3279344159        5.3849502526



     Writing config-only to output data dir ./MoS2-V-O.save/
     NEW-OLD atomic charge density approx. for the potential

     negative rho (up, down):  1.978E-04 0.000E+00

     total cpu time spent up to now is      224.6 secs

     Self-consistent Calculation

     iteration #  1     ecut=    80.00 Ry     beta= 0.70
     Davidson diagonalization with overlap
     ethr =  1.00E-06,  avg # of iterations = 19.0

     negative rho (up, down):  1.196E-04 0.000E+00

     total cpu time spent up to now is      239.0 secs

     total energy              =   -2246.26439675 Ry
     estimated scf accuracy    <       0.01354810 Ry

     iteration #  2     ecut=    80.00 Ry     beta= 0.70
     Davidson diagonalization with overlap
     ethr =  4.34E-06,  avg # of iterations =  5.0

     negative rho (up, down):  1.149E-04 0.000E+00

     total cpu time spent up to now is      255.2 secs

     total energy              =   -2246.26634371 Ry
     estimated scf accuracy    <       0.00611910 Ry

     iteration #  3     ecut=    80.00 Ry     beta= 0.70
     Davidson diagonalization with overlap
     ethr =  1.96E-06,  avg # of iterations =  4.0

     negative rho (up, down):  8.396E-05 0.000E+00

     total cpu time spent up to now is      269.5 secs

     total energy              =   -2246.26688776 Ry
     estimated scf accuracy    <       0.00038959 Ry

     iteration #  4     ecut=    80.00 Ry     beta= 0.70
     Davidson diagonalization with overlap
     ethr =  1.25E-07,  avg # of iterations =  5.0

     negative rho (up, down):  8.157E-05 0.000E+00

     total cpu time spent up to now is      284.7 secs

     total energy              =   -2246.26694069 Ry
     estimated scf accuracy    <       0.00002385 Ry

     iteration #  5     ecut=    80.00 Ry     beta= 0.70
     Davidson diagonalization with overlap
     ethr =  7.64E-09,  avg # of iterations =  5.0

     negative rho (up, down):  8.586E-05 0.000E+00

     total cpu time spent up to now is      298.9 secs

     total energy              =   -2246.26694845 Ry
     estimated scf accuracy    <       0.00000676 Ry

     iteration #  6     ecut=    80.00 Ry     beta= 0.70
     Davidson diagonalization with overlap
     ethr =  2.17E-09,  avg # of iterations =  2.0

     negative rho (up, down):  9.402E-05 0.000E+00

     total cpu time spent up to now is      312.6 secs

     total energy              =   -2246.26694904 Ry
     estimated scf accuracy    <       0.00000219 Ry

     iteration #  7     ecut=    80.00 Ry     beta= 0.70
     Davidson diagonalization with overlap
     ethr =  7.03E-10,  avg # of iterations =  5.0

     negative rho (up, down):  1.038E-04 0.000E+00

     total cpu time spent up to now is      326.2 secs

     total energy              =   -2246.26694923 Ry
     estimated scf accuracy    <       0.00000069 Ry

     iteration #  8     ecut=    80.00 Ry     beta= 0.70
     Davidson diagonalization with overlap
     ethr =  2.22E-10,  avg # of iterations =  5.0

     negative rho (up, down):  1.243E-04 0.000E+00

     total cpu time spent up to now is      338.8 secs

     total energy              =   -2246.26694935 Ry
     estimated scf accuracy    <       0.00000021 Ry

     iteration #  9     ecut=    80.00 Ry     beta= 0.70
     Davidson diagonalization with overlap
     ethr =  6.82E-11,  avg # of iterations =  5.0

     negative rho (up, down):  2.070E-04 0.000E+00

     total cpu time spent up to now is      342.6 secs

     End of self-consistent calculation

          k = 0.0000 0.0000 0.0000 (105382 PWs)   bands (ev):

   -63.0415 -62.9919 -62.9484 -62.9343 -62.9202 -62.9163 -62.9121 -62.8996
   -62.8789 -62.8701 -62.8313 -62.7821 -37.3396 -37.2948 -37.2826 -37.2524
   -37.2191 -37.2118 -37.1971 -37.1788 -37.1685 -37.1545 -37.1418 -37.1311
   -37.1194 -37.1132 -37.1005 -37.0963 -37.0866 -37.0821 -37.0716 -37.0709
   -37.0604 -37.0548 -37.0428 -37.0226 -37.0154 -36.9996 -36.9971 -36.9924
   -36.9894 -36.9832 -36.9538 -36.9409 -36.9019 -36.8662 -36.8348 -36.8126
   -20.7364 -16.0150 -15.3046 -15.2203 -15.0430 -14.9720 -14.8593 -14.7225
   -14.5494 -14.5213 -14.4967 -14.4821 -14.4354 -14.3999 -14.3454 -14.2725
   -14.2229 -14.2025 -14.1308 -14.0081 -13.9613 -13.9484 -13.8984 -13.7559
    -7.9549  -7.7350  -7.5820  -7.5214  -7.3918  -7.3600  -7.3483  -7.2961
    -7.2328  -6.9804  -6.9115  -6.8799  -6.7909  -6.7749  -6.7539  -6.6030
    -6.5778  -6.5245  -6.4193  -6.3328  -6.1003  -6.0342  -6.0110  -5.9616
    -5.9112  -5.8805  -5.7951  -5.7843  -5.7544  -5.7294  -5.6980  -5.6477
    -5.5893  -5.4980  -5.4233  -5.3956  -5.2547  -5.2122  -5.1441  -5.1094
    -5.0830  -5.0594  -4.9332  -4.7965  -4.6931  -4.6351  -4.4486  -4.4048
    -4.3541  -4.2901  -4.2498  -4.1970  -4.0688  -3.9773  -3.9296  -3.8747
    -3.7938  -3.7725  -3.7332  -3.7065  -3.6176  -3.5811  -3.5508  -3.5480
    -3.4839  -3.4773  -3.2830  -3.2247  -3.1224  -3.0456  -2.9368  -2.8782
    -2.8680  -2.8142  -2.7810  -2.7694  -2.7441  -2.6676  -2.4971  -2.3210
    -2.1391  -2.0920  -2.0654  -1.7969  -1.2276  -0.8364  -0.8270  -0.2574
    -0.2350  -0.1803  -0.1010  -0.0344   0.0550   0.1529   0.1696   0.1888
     0.2454   0.2836   0.3640   0.4017   0.4643   0.4798   0.5129   0.5346
     0.6201   0.6353   0.6593   0.6783   0.7568   0.7875   0.8091   0.8546
     0.8834   0.9548   1.2526

     the Fermi energy is    -1.5123 ev

!    total energy              =   -2246.26694932 Ry
     estimated scf accuracy    <       0.00000005 Ry
     smearing contrib. (-TS)   =      -0.00014188 Ry
     internal energy E=F+TS    =   -2246.26680744 Ry

     The total energy is F=E-TS. E is the sum of the following terms:
     one-electron contribution =  -18448.68251762 Ry
     hartree contribution      =    9212.37369535 Ry
     xc contribution           =    -392.00065788 Ry
     ewald contribution        =    7391.90969933 Ry
     one-center paw contrib.   =      -9.86702661 Ry

     convergence has been achieved in   9 iterations

     negative rho (up, down):  2.070E-04 0.000E+00

     Forces acting on atoms (cartesian axes, Ry/au):

     atom    1 type  1   force =    -0.00372738   -0.00487554   -0.00509399
     atom    2 type  2   force =    -0.00336290    0.00576669   -0.00265645
     atom    3 type  2   force =    -0.01459324    0.00295778   -0.01680985
     atom    4 type  1   force =     0.00395065    0.00280036   -0.00078740
     atom    5 type  2   force =    -0.00170072   -0.00314143   -0.00717805
     atom    6 type  2   force =    -0.00024315    0.00406775    0.00162342
     atom    7 type  1   force =     0.00333826   -0.00524342    0.00127363
     atom    8 type  2   force =    -0.00016847   -0.00466387    0.00832520
     atom    9 type  2   force =     0.01076158    0.00591306    0.00229470
     atom   10 type  1   force =     0.00315942    0.00626212    0.00382197
     atom   11 type  2   force =     0.00290263   -0.00204002   -0.01070544
     atom   12 type  2   force =    -0.00398095   -0.00012164   -0.00001997
     atom   13 type  1   force =     0.00223264    0.00424774   -0.00828838
     atom   14 type  2   force =     0.00143857   -0.00130361    0.00360842
     atom   15 type  2   force =     0.00475598   -0.00260474   -0.01456961
     atom   16 type  1   force =    -0.00227769    0.00303906    0.00734233
     atom   17 type  2   force =     0.02021373    0.00563436   -0.02004257
     atom   18 type  2   force =     0.00037729    0.00268249    0.00265919
     atom   19 type  1   force =     0.00451885   -0.00475565    0.00236434
     atom   20 type  2   force =     0.00226004    0.00196407   -0.01074015
     atom   21 type  1   force =    -0.00538494    0.00177900    0.00358140
     atom   22 type  2   force =     0.00038563   -0.00589253   -0.00365092
     atom   23 type  2   force =    -0.00054954   -0.00515995   -0.00011511
     atom   24 type  1   force =    -0.00476078    0.00547514   -0.00357231
     atom   25 type  2   force =     0.01640632    0.11054406    0.01661821
     atom   26 type  2   force =    -0.00444673   -0.00860392   -0.00430212
     atom   27 type  1   force =    -0.00301467   -0.00112070    0.00438227
     atom   28 type  2   force =    -0.00907873    0.00096785   -0.01500465
     atom   29 type  2   force =     0.00281407    0.00401534   -0.00724575
     atom   30 type  1   force =    -0.00234934   -0.00137958    0.00784844
     atom   31 type  2   force =     0.00175040   -0.00205271    0.00762004
     atom   32 type  2   force =    -0.00563989    0.00652668    0.00414960
     atom   33 type  1   force =     0.00454485    0.00421191    0.01719829
     atom   34 type  2   force =    -0.00107537   -0.02079032   -0.01585108
     atom   35 type  2   force =    -0.00205765    0.00497744    0.00079750
     atom   36 type  3   force =    -0.01739879   -0.11008326    0.05112487
     The non-local contrib.  to forces
     atom    1 type  1   force =     0.00077862    0.02996635   -0.00836043
     atom    2 type  2   force =    -0.00111778   -0.00390771   -0.27328214
     atom    3 type  2   force =    -0.01272984   -0.00797373    0.25814614
     atom    4 type  1   force =     0.00690842    0.00141099    0.00738970
     atom    5 type  2   force =     0.00668997   -0.03166118   -0.25928950
     atom    6 type  2   force =    -0.00366532    0.00094260    0.26785844
     atom    7 type  1   force =    -0.02043683   -0.00437625   -0.02426469
     atom    8 type  2   force =     0.00601286   -0.00176654   -0.26316168
     atom    9 type  2   force =     0.00533238   -0.00290162    0.26765463
     atom   10 type  1   force =     0.00071293    0.00301827   -0.00125442
     atom   11 type  2   force =     0.01126944    0.00601765   -0.26559404
     atom   12 type  2   force =    -0.01306419   -0.01650316    0.26209595
     atom   13 type  1   force =    -0.00061114    0.01777821    0.01332987
     atom   14 type  2   force =     0.00963140   -0.00766746   -0.27041227
     atom   15 type  2   force =    -0.00196255   -0.01103430    0.25504667
     atom   16 type  1   force =    -0.00973700    0.01391208   -0.03958228
     atom   17 type  2   force =    -0.06356213   -0.05582519   -0.20620080
     atom   18 type  2   force =     0.00035551    0.00044053    0.26910244
     atom   19 type  1   force =     0.02325120   -0.00764533   -0.02102002
     atom   20 type  2   force =    -0.00028778   -0.01088979    0.25748850
     atom   21 type  1   force =     0.00231831    0.02986426    0.00330987
     atom   22 type  2   force =    -0.00273154   -0.00209384   -0.25496460
     atom   23 type  2   force =     0.00226588   -0.02111035    0.26957031
     atom   24 type  1   force =     0.00482901    0.00201819    0.00279606
     atom   25 type  2   force =     0.08275403    0.38216220    0.09409607
     atom   26 type  2   force =     0.00312364   -0.01797761    0.26708888
     atom   27 type  1   force =     0.00169713    0.00478485    0.01538597
     atom   28 type  2   force =    -0.00474176   -0.00898638   -0.27425978
     atom   29 type  2   force =     0.00573277    0.00320552    0.26033125
     atom   30 type  1   force =    -0.01032614    0.00948935    0.00540069
     atom   31 type  2   force =    -0.00668479   -0.00352217   -0.25950943
[...]
     atom   28 type  2   force =     0.00115725   -0.01252901   -0.27715064
     atom   29 type  2   force =    -0.00104406   -0.00849706    0.26694890
     atom   30 type  1   force =    -0.00495531    0.01790081    0.00367424
     atom   31 type  2   force =    -0.00647313    0.00162765   -0.26771602
     atom   32 type  2   force =     0.00666159   -0.01422473    0.27062650
     atom   33 type  1   force =    -0.00156911    0.01735674    0.01675767
     atom   34 type  2   force =     0.00279294   -0.00618759   -0.27893574
     atom   35 type  2   force =     0.00049684   -0.01217793    0.26561982
     atom   36 type  3   force =     0.03045770   -0.03929605   -2.31910445
     The ionic contribution  to forces
     atom    1 type  1   force =    -0.15054558    0.91416558    0.81849875
     atom    2 type  2   force =    -1.17899388    0.04677229   38.05904458
     atom    3 type  2   force =    -0.01412371   -0.20270032  -38.37249863
     atom    4 type  1   force =    -0.47148200    0.88329060   -1.02093759
     atom    5 type  2   force =    -0.81760259    1.44134872   37.94553437
     atom    6 type  2   force =     0.19255603   -0.21312979  -38.64011795
     atom    7 type  1   force =    -2.63930417   -2.00024936    2.48643047
     atom    8 type  2   force =    -1.28702138    0.10199922   38.13349149
     atom    9 type  2   force =     0.29837791    0.10284352  -38.29905635
     atom   10 type  1   force =    -0.99831317   -0.97969443    1.68293958
     atom   11 type  2   force =    -0.43105033   -1.68356072   38.37079512
     atom   12 type  2   force =     0.19581172    0.17107620  -38.23660712
     atom   13 type  1   force =     1.14610403    1.19140261   -1.65848073
     atom   14 type  2   force =     0.99468268   -0.07428056   37.87958008
     atom   15 type  2   force =     0.04034642   -0.23615916  -38.32460781
     atom   16 type  1   force =     0.33422920    3.88164259    0.42741492
     atom   17 type  2   force =     1.34647136    2.13669529   37.71796518
     atom   18 type  2   force =    -0.18949152   -0.15733225  -38.89316170
     atom   19 type  1   force =     2.77993056   -2.32398674    2.34385799
     atom   20 type  2   force =     0.02619385    0.06948908  -39.05515201
     atom   21 type  1   force =     0.50095273   -0.82532733    0.00363198
     atom   22 type  2   force =     0.98031396   -2.26821922   38.04577167
     atom   23 type  2   force =    -0.12956934    0.19704870  -38.49793945
     atom   24 type  1   force =    -1.00343289    0.93326730   -2.40969369
     atom   25 type  2   force =     0.27816904   -0.09959523   28.62622220
     atom   26 type  2   force =    -0.02428830   -0.18395666  -38.24669601
     atom   27 type  1   force =     0.14739878    1.28448958   -0.92000472
     atom   28 type  2   force =    -0.54127996    1.51142444   37.42715145
     atom   29 type  2   force =    -0.00273737    0.11843316  -38.56329142
     atom   30 type  1   force =    -0.13925635   -1.10359903    1.39706219
     atom   31 type  2   force =     1.15479256    0.13562994   37.99805720
     atom   32 type  2   force =    -0.32727556    0.10900551  -38.17695191
     atom   33 type  1   force =     0.49102542   -1.72638452   -0.70243762
     atom   34 type  2   force =    -0.57133608   -1.41643283   38.34028286
     atom   35 type  2   force =    -0.07200087    0.02897453  -38.17645126
     atom   36 type  3   force =     0.08174880    0.23560929   50.49035389
     The local contribution  to forces
     atom    1 type  1   force =     0.15204348   -0.94258196   -0.82053356
     atom    2 type  2   force =     1.18053013   -0.03888810  -37.80747197
     atom    3 type  2   force =     0.01704881    0.21088099   38.12954395
     atom    4 type  1   force =     0.46845979   -0.88939146    1.01469199
     atom    5 type  2   force =     0.81321787   -1.41867016  -37.70840771
     atom    6 type  2   force =    -0.19302530    0.21871569   38.39367892
     atom    7 type  1   force =     2.65410805    1.99525973   -2.46111863
     atom    8 type  2   force =     1.27828261   -0.10424562  -37.88707627
     atom    9 type  2   force =    -0.29163071   -0.08942048   38.05077942
     atom   10 type  1   force =     0.99614228    0.97310674   -1.68567533
     atom   11 type  2   force =     0.42661271    1.68315973  -38.12955327
     atom   12 type  2   force =    -0.18842987   -0.15888012   37.99121121
     atom   13 type  1   force =    -1.13607657   -1.20159001    1.64582007
     atom   14 type  2   force =    -0.99458039    0.07947485  -37.62665328
     atom   15 type  2   force =    -0.04120802    0.24452723   38.08509256
     atom   16 type  1   force =    -0.33396579   -3.91322997   -0.39435527
     atom   17 type  2   force =    -1.34168763   -2.11662501  -37.48062936
     atom   18 type  2   force =     0.18896938    0.16021525   38.64935827
     atom   19 type  1   force =    -2.79965749    2.32405378   -2.31631438
     atom   20 type  2   force =    -0.02701208   -0.05514678   38.81404200
     atom   21 type  1   force =    -0.50149574    0.79507893   -0.00615526
     atom   22 type  2   force =    -0.97419390    2.26785793  -37.80360977
     atom   23 type  2   force =     0.12230410   -0.18428077   38.25379174
     atom   24 type  1   force =     0.99295338   -0.94031804    2.38886849
     atom   25 type  2   force =    -0.27041741    0.09125677  -28.91168478
     atom   26 type  2   force =     0.02248536    0.19346117   37.98995325
     atom   27 type  1   force =    -0.14306347   -1.28838068    0.91694289
     atom   28 type  2   force =     0.54058163   -1.49994106  -37.17006840
     atom   29 type  2   force =     0.00339341   -0.11005083   38.31746348
     atom   30 type  1   force =     0.14418338    1.08665943   -1.40076933
     atom   31 type  2   force =    -1.14843426   -0.13728587  -37.75152552
     atom   32 type  2   force =     0.32101346   -0.09493837   37.92604949
     atom   33 type  1   force =    -0.48899571    1.70707204    0.68461809
     atom   34 type  2   force =     0.56941463    1.42353436  -38.08292865
     atom   35 type  2   force =     0.07163409   -0.01672754   37.93186789
     atom   36 type  3   force =    -0.11148137   -0.19701921  -48.19581449
     The core correction contribution to forces
     atom    1 type  1   force =     0.00000000    0.00000000    0.00000000
     atom    2 type  2   force =     0.00010375    0.00041838    0.02132730
     atom    3 type  2   force =     0.00018792    0.00026198   -0.02077470
     atom    4 type  1   force =     0.00000000    0.00000000    0.00000000
     atom    5 type  2   force =    -0.00036772    0.00113191    0.02055987
     atom    6 type  2   force =     0.00012455   -0.00019698   -0.02093114
     atom    7 type  1   force =     0.00000000    0.00000000    0.00000000
     atom    8 type  2   force =    -0.00045460    0.00006860    0.02099056
     atom    9 type  2   force =     0.00061624    0.00082255   -0.02100498
     atom   10 type  1   force =     0.00000000    0.00000000    0.00000000
     atom   11 type  2   force =    -0.00003481   -0.00024685    0.02077325
     atom   12 type  2   force =     0.00063721    0.00087048   -0.02093480
     atom   13 type  1   force =     0.00000000    0.00000000    0.00000000
     atom   14 type  2   force =     0.00000478    0.00001671    0.02139914
     atom   15 type  2   force =    -0.00005744    0.00032890   -0.02058946
     atom   16 type  1   force =     0.00000000    0.00000000    0.00000000
     atom   17 type  2   force =     0.00042203    0.00094204    0.02069395
     atom   18 type  2   force =    -0.00022908   -0.00024361   -0.02083488
     atom   19 type  1   force =     0.00000000    0.00000000    0.00000000
     atom   20 type  2   force =    -0.00002635    0.00074885   -0.02123807
     atom   21 type  1   force =     0.00000000    0.00000000    0.00000000
     atom   22 type  2   force =     0.00015072   -0.00020368    0.02092768
     atom   23 type  2   force =    -0.00058140    0.00089803   -0.02086862
     atom   24 type  1   force =     0.00000000    0.00000000    0.00000000
     atom   25 type  2   force =     0.00041814   -0.00047382   -0.00978201
     atom   26 type  2   force =    -0.00008076    0.00030270   -0.02135484
     atom   27 type  1   force =     0.00000000    0.00000000    0.00000000
     atom   28 type  2   force =    -0.00005794    0.00080547    0.02145660
     atom   29 type  2   force =     0.00011155    0.00031109   -0.02078947
     atom   30 type  1   force =     0.00000000    0.00000000    0.00000000
     atom   31 type  2   force =     0.00030303    0.00016948    0.02094597
     atom   32 type  2   force =    -0.00061574    0.00082102   -0.02100657
     atom   33 type  1   force =     0.00000000    0.00000000    0.00000000
     atom   34 type  2   force =    -0.00016480    0.00026156    0.02160767
     atom   35 type  2   force =    -0.00006930    0.00073484   -0.02090941
     atom   36 type  3   force =    -0.00032412    0.00040115    0.02459390
     The Hubbard contrib.    to forces
     atom    1 type  1   force =     0.00000000    0.00000000    0.00000000
     atom    2 type  2   force =     0.00000000    0.00000000    0.00000000
     atom    3 type  2   force =     0.00000000    0.00000000    0.00000000
     atom    4 type  1   force =     0.00000000    0.00000000    0.00000000
     atom    5 type  2   force =     0.00000000    0.00000000    0.00000000
     atom    6 type  2   force =     0.00000000    0.00000000    0.00000000
     atom    7 type  1   force =     0.00000000    0.00000000    0.00000000
     atom    8 type  2   force =     0.00000000    0.00000000    0.00000000
     atom    9 type  2   force =     0.00000000    0.00000000    0.00000000
     atom   10 type  1   force =     0.00000000    0.00000000    0.00000000
     atom   11 type  2   force =     0.00000000    0.00000000    0.00000000
     atom   12 type  2   force =     0.00000000    0.00000000    0.00000000
     atom   13 type  1   force =     0.00000000    0.00000000    0.00000000
     atom   14 type  2   force =     0.00000000    0.00000000    0.00000000
     atom   15 type  2   force =     0.00000000    0.00000000    0.00000000
     atom   16 type  1   force =     0.00000000    0.00000000    0.00000000
     atom   17 type  2   force =     0.00000000    0.00000000    0.00000000
     atom   18 type  2   force =     0.00000000    0.00000000    0.00000000
     atom   19 type  1   force =     0.00000000    0.00000000    0.00000000
     atom   20 type  2   force =     0.00000000    0.00000000    0.00000000
     atom   21 type  1   force =     0.00000000    0.00000000    0.00000000
     atom   22 type  2   force =     0.00000000    0.00000000    0.00000000
     atom   23 type  2   force =     0.00000000    0.00000000    0.00000000
     atom   24 type  1   force =     0.00000000    0.00000000    0.00000000
     atom   25 type  2   force =     0.00000000    0.00000000    0.00000000
     atom   26 type  2   force =     0.00000000    0.00000000    0.00000000
     atom   27 type  1   force =     0.00000000    0.00000000    0.00000000
     atom   28 type  2   force =     0.00000000    0.00000000    0.00000000
     atom   29 type  2   force =     0.00000000    0.00000000    0.00000000
     atom   30 type  1   force =     0.00000000    0.00000000    0.00000000
     atom   31 type  2   force =     0.00000000    0.00000000    0.00000000
     atom   32 type  2   force =     0.00000000    0.00000000    0.00000000
     atom   33 type  1   force =     0.00000000    0.00000000    0.00000000
     atom   34 type  2   force =     0.00000000    0.00000000    0.00000000
     atom   35 type  2   force =     0.00000000    0.00000000    0.00000000
     atom   36 type  3   force =     0.00000000    0.00000000    0.00000000
     The SCF correction term to forces
     atom    1 type  1   force =     0.00000894    0.00003421   -0.00002548
     atom    2 type  2   force =    -0.00001092    0.00001036   -0.00000060
     atom    3 type  2   force =    -0.00000681    0.00002134   -0.00000327
     atom    4 type  1   force =    -0.00000054    0.00000508   -0.00002182
     atom    5 type  2   force =     0.00000669    0.00000639   -0.00000533
     atom    6 type  2   force =     0.00000435    0.00000492   -0.00000666
     atom    7 type  1   force =     0.00000870   -0.00002503    0.00000205
     atom    8 type  2   force =    -0.00000278   -0.00000684   -0.00000206
     atom    9 type  2   force =    -0.00001043   -0.00001677    0.00000373
     atom   10 type  1   force =    -0.00004097   -0.00000206    0.00000935
     atom   11 type  2   force =     0.00000154   -0.00001275    0.00000268
     atom   12 type  2   force =     0.00000169   -0.00001175    0.00000337
     atom   13 type  1   force =     0.00001674    0.00004982   -0.00003276
     atom   14 type  2   force =     0.00001657    0.00000756    0.00000017
     atom   15 type  2   force =     0.00000994    0.00001837   -0.00000741
     atom   16 type  1   force =     0.00000941   -0.00000049   -0.00002420
     atom   17 type  2   force =    -0.00000153    0.00001448   -0.00000126
     atom   18 type  2   force =     0.00000082    0.00000609   -0.00000682
     atom   19 type  1   force =     0.00001584   -0.00005223    0.00001069
     atom   20 type  2   force =     0.00001153   -0.00001412   -0.00000209
     atom   21 type  1   force =     0.00003700   -0.00000589    0.00000675
     atom   22 type  2   force =     0.00001235   -0.00001855    0.00000760
     atom   23 type  2   force =     0.00001024   -0.00000772   -0.00000430
     atom   24 type  1   force =    -0.00002625    0.00005178   -0.00002610
     atom   25 type  2   force =    -0.00000593    0.00002053   -0.00001493
     atom   26 type  2   force =    -0.00000273    0.00002217   -0.00000664
     atom   27 type  1   force =    -0.00000575    0.00000519   -0.00000578
     atom   28 type  2   force =    -0.00000446    0.00001357   -0.00000335
     atom   29 type  2   force =    -0.00000603    0.00000529   -0.00000046
     atom   30 type  1   force =    -0.00001920   -0.00005987    0.00001010
     atom   31 type  2   force =    -0.00000261   -0.00001500    0.00000231
     atom   32 type  2   force =    -0.00000107   -0.00002128    0.00000647
     atom   33 type  1   force =     0.00000375   -0.00000119   -0.00000335
     atom   34 type  2   force =    -0.00001399   -0.00001898    0.00000896
     atom   35 type  2   force =    -0.00001199   -0.00001089   -0.00000510
     atom   36 type  3   force =    -0.00001094    0.00004921    0.00003442

     Total force =     0.006467     Total SCF correction =     0.000182
     Energy error            =      8.0E-05 Ry
     Gradient error          =      2.0E-03 Ry/Bohr

     bfgs converged in  27 scf cycles and  26 bfgs steps
     (criteria: energy <  1.0E-04 Ry, force <  1.0E-02 Ry/Bohr)

     End of BFGS Geometry Optimization

     Final energy             =   -2246.4498572885 Ry

     File ./MoS2-V-O.bfgs deleted, as requested
Begin final coordinates

ATOMIC_POSITIONS (angstrom)
Mo            6.5713886691        1.7974572099        2.7486925926
S             8.1469592041        0.9084558010        4.3586189379
S             8.1396917162        0.8754443678        1.1589884572
Mo            8.1318284262        4.5417656415        2.7013308016
S             6.5340197047        3.7123181517        4.2980262838
S             6.5629983350        3.6055469043        1.0995927414
Mo            6.5221303259        7.2263091455        2.6811701250
S             8.0872174755        6.3397119355        4.3084153192
S             8.1410472525        6.3776066394        1.1191503989
Mo            8.1461472167        9.9824857269        2.7733470295
S             6.5311097042        8.9993487644        4.3350398649
S             6.5962305904        9.0710106474        1.1373519073
Mo            3.4547285175        1.8184629020        2.7406236500
S             5.0009158756        0.8734752858        4.3427800516
S             5.0109405354        0.8743940362        1.1566483801
Mo            5.0034698091        4.5810981224        2.6478844071
S             3.4810638139        3.7110943803        4.3079785310
S             3.4432579080        3.6220850904        1.0938368432
Mo            3.4906566382        7.2259825346        2.6828403744
S             5.0065480781        6.3636220746        1.0473920534
Mo            5.0033700346        9.9548552893        2.7368756426
S             3.4777201023        8.9910743809        4.3358314782
S             3.4219571921        9.0585092237        1.1301962432
Mo            0.2540310437        1.8090251847        2.7392943075
S             1.8597031470        0.8946001001        4.2639172318
S             1.8581045211        0.8769156835        1.1781073095
Mo            1.8769127304        4.5377745569        2.7110707055
S             0.2712005271        3.6539204316        4.3090004266
S             0.2774251335        3.6246394203        1.1250557530
Mo            0.2674550792        7.2598493420        2.7469451144
S             1.9134036107        6.3425934228        4.3094415917
S             1.8614889937        6.3760911923        1.1272924136
Mo            1.8574952883        9.9493804481        2.7626144423
S             0.2705924565        9.0663925000        4.3725560596
S             0.2605149965        9.0802533964        1.1699569055
O             1.8401245817        0.9260409206        5.7624754967
End final coordinates



     Writing all to output data dir ./MoS2-V-O.save/
 
     init_run     :      4.80s CPU      5.48s WALL (       1 calls)
     electrons    :   2684.32s CPU   3038.57s WALL (      27 calls)
     update_pot   :     80.29s CPU     85.75s WALL (      26 calls)
     forces       :     75.84s CPU     86.71s WALL (      27 calls)

     Called by init_run:
     wfcinit      :      0.55s CPU      0.63s WALL (       1 calls)
     potinit      :      2.43s CPU      2.67s WALL (       1 calls)
     hinit0       :      0.45s CPU      0.61s WALL (       1 calls)

     Called by electrons:
     c_bands      :    392.10s CPU    401.63s WALL (     258 calls)
     sum_band     :    154.66s CPU    197.49s WALL (     258 calls)
     v_of_rho     :    248.96s CPU    304.06s WALL (     277 calls)
     newd         :     90.54s CPU    132.98s WALL (     277 calls)
     PAW_pot      :     11.02s CPU     11.06s WALL (     303 calls)
     mix_rho      :   1814.94s CPU   2022.45s WALL (     258 calls)

     Called by c_bands:
     init_us_2    :      5.96s CPU      6.42s WALL (     543 calls)
     init_us_2:cp :      5.96s CPU      6.42s WALL (     543 calls)
     regterg      :    372.33s CPU    381.38s WALL (     258 calls)

     Called by *egterg:
     rdiaghg      :     25.73s CPU     26.03s WALL (    1419 calls)
     h_psi        :    236.17s CPU    238.22s WALL (    1454 calls)
     s_psi        :     24.70s CPU     24.80s WALL (    1454 calls)
     g_psi        :      1.19s CPU      1.20s WALL (    1195 calls)

     Called by h_psi:
     h_psi:calbec :     27.46s CPU     27.63s WALL (    1454 calls)
     vloc_psi     :    180.95s CPU    182.63s WALL (    1454 calls)
     add_vuspsi   :     24.79s CPU     24.95s WALL (    1454 calls)

     General routines
     calbec       :     39.85s CPU     40.08s WALL (    1846 calls)
     fft          :    167.05s CPU    194.13s WALL (   18470 calls)
     ffts         :    812.71s CPU   1013.35s WALL (  434048 calls)
     fftw         :    114.40s CPU    115.36s WALL (  158592 calls)
     interpolate  :      3.45s CPU      3.95s WALL (     277 calls)
 
     Parallel routines
 
     PWSCF        :  47m37.57s CPU  53m54.66s WALL

 
   This run was terminated on:  14:21:21   1Nov2023            

=------------------------------------------------------------------------------=
   JOB DONE.
=------------------------------------------------------------------------------=
