
     Program PWSCF v.7.2 starts on  1Nov2023 at 20: 9:40 

     This program is part of the open-source Quantum ESPRESSO suite
     for quantum simulation of materials; please cite
         "P. Giannozzi et al., J. Phys.:Condens. Matter 21 395502 (2009);
         "P. Giannozzi et al., J. Phys.:Condens. Matter 29 465901 (2017);
         "P. Giannozzi et al., J. Chem. Phys. 152 154105 (2020);
          URL http://www.quantum-espresso.org", 
     in publications or presentations arising from this work. More details at
     http://www.quantum-espresso.org/quote

     Parallel version (MPI & OpenMP), running on      48 processor cores
     Number of MPI processes:                48
     Threads/MPI process:                     1

     MPI processes distributed on     1 nodes
     150986 MiB available memory on the printing compute node when the environment starts
 
     Waiting for input...
     Reading input from standard input
Warning: card &CELL ignored
Warning: card CELL_DYNAMICS = 'BFGS', ignored
Warning: card CELL_DOFREE = '2DXY' ignored
Warning: card / ignored

     Current dimensions of program PWSCF are:
     Max number of different atomic species (ntypx) = 10
     Max number of k-points (npk) =  40000
     Max angular momentum in pseudopotentials (lmaxx) =  4
     file O.pbe-n-kjpaw_psl.0.1.UPF: wavefunction(s)  2P renormalized

     IMPORTANT: XC functional enforced from input :
     Exchange-correlation= RVV10
                           (   1   4  13   4  26   0   0)
     Any further DFT definition will be discarded
     Please, verify this is what you really want


     gamma-point specific algorithms are used
     signal trapping enabled: kill the code with -SIGUSR1 to stop cleanly the simulation 
 
     R & G space division:  proc/nbgrp/npool/nimage =      48
     Subspace diagonalization in iterative solution of the eigenvalue problem:
     one sub-group per band group will be used
     scalapack distributed-memory algorithm (size of sub-group:  2*  2 procs)

 
     Parallelization info
     --------------------
     sticks:   dense  smooth     PW     G-vecs:    dense   smooth      PW
     Min         396     194     47               101632    35090    4376
     Max         398     196     50               101674    35128    4410
     Sum       19091    9389   2349              4879585  1685513  210763
 
     Using Slab Decomposition
 


     bravais-lattice index     =            0
     lattice parameter (alat)  =      17.8707  a.u.
     unit-cell volume          =   17436.2743 (a.u.)^3
     number of atoms/cell      =           36
     number of atomic types    =            3
     number of electrons       =       312.00
     number of Kohn-Sham states=          187
     kinetic-energy cutoff     =      80.0000  Ry
     charge density cutoff     =     650.0000  Ry
     scf convergence threshold =      1.0E-06
     mixing beta               =       0.7000
     number of iterations used =            8  local-TF  mixing
     energy convergence thresh.=      1.0E-04
     force convergence thresh. =      1.0E-02
     Exchange-correlation= RVV10
                           (   1   4  13   4  26   0   0)
     nstep                     =          200


     celldm(1)=  17.870686  celldm(2)=   0.000000  celldm(3)=   0.000000
     celldm(4)=   0.000000  celldm(5)=   0.000000  celldm(6)=   0.000000

     crystal axes: (cart. coord. in units of alat)
               a(1) = (   1.000000   0.000000   0.000000 )  
               a(2) = (   0.000000   1.155671   0.000000 )  
               a(3) = (   0.000000   0.000000   2.643601 )  

     reciprocal axes: (cart. coord. in units 2 pi/alat)
               b(1) = (  1.000000  0.000000  0.000000 )  
               b(2) = (  0.000000  0.865298  0.000000 )  
               b(3) = (  0.000000  0.000000  0.378272 )  


     PseudoPot. # 1 for Mo read from file:
     ../pseudo/Mo_ONCV_PBE-1.0.oncvpsp.upf
     MD5 check sum: 1b5d28e075c9ccadda658a603575cd1f
     Pseudo is Norm-conserving, Zval = 14.0
     Generated using ONCVPSP code by D. R. Hamann
     Using radial grid of 1526 points,  6 beta functions with: 
                l(1) =   0
                l(2) =   0
                l(3) =   1
                l(4) =   1
                l(5) =   2
                l(6) =   2

     PseudoPot. # 2 for S  read from file:
     ../pseudo/s_pbe_v1.4.uspp.F.UPF
     MD5 check sum: 88d86576ff6df21479756cfb9bdac1df
     Pseudo is Ultrasoft + core correction, Zval =  6.0
     Generated by new atomic code, or converted to UPF format
     Using radial grid of  907 points,  6 beta functions with: 
                l(1) =   0
                l(2) =   0
                l(3) =   1
                l(4) =   1
                l(5) =   2
                l(6) =   2
     Q(r) pseudized with  8 coefficients,  rinner =    1.300   1.300   1.300
                                                       1.300   1.300

     PseudoPot. # 3 for O  read from file:
     ../pseudo/O.pbe-n-kjpaw_psl.0.1.UPF
     MD5 check sum: 0234752ac141de4415c5fc33072bef88
     Pseudo is Projector augmented-wave + core cor, Zval =  6.0
     Generated using "atomic" code by A. Dal Corso  v.5.0.99 svn rev. 10869
     Shape of augmentation charge: BESSEL
     Using radial grid of 1095 points,  4 beta functions with: 
                l(1) =   0
                l(2) =   0
                l(3) =   1
                l(4) =   1
     Q(r) pseudized with 0 coefficients 


     atomic species   valence    mass     pseudopotential
        Mo            14.00    95.94000     Mo( 1.00)
        S              6.00    32.06500     S ( 1.00)
        O              6.00    15.99940     O ( 1.00)

     No symmetry found



   Cartesian axes

     site n.     atom                  positions (alat units)
         1           Mo  tau(   1) = (   0.6952221   0.1890506   0.2985846  )
         2           S   tau(   2) = (   0.8646417   0.0856217   0.4689279  )
         3           S   tau(   3) = (   0.8663890   0.0857843   0.1351291  )
         4           Mo  tau(   4) = (   0.8560186   0.4753274   0.2873942  )
         5           S   tau(   5) = (   0.6873294   0.3936244   0.4596353  )
         6           S   tau(   6) = (   0.6929804   0.3713468   0.1185692  )
         7           Mo  tau(   7) = (   0.6862796   0.7633098   0.2825370  )
         8           S   tau(   8) = (   0.8545980   0.6708292   0.4486168  )
         9           S   tau(   9) = (   0.8545123   0.6666874   0.1146125  )
        10           Mo  tau(  10) = (   0.8629403   1.0471007   0.3006803  )
        11           S   tau(  11) = (   0.6868280   0.9456650   0.4634891  )
        12           S   tau(  12) = (   0.6998113   0.9568511   0.1205389  )
        13           Mo  tau(  13) = (   0.3618216   0.1847309   0.2935964  )
        14           S   tau(  14) = (   0.5260962   0.0863870   0.4600448  )
        15           S   tau(  15) = (   0.5348379   0.0894875   0.1297123  )
        16           Mo  tau(  16) = (   0.5265817   0.4772436   0.2784130  )
        17           S   tau(  17) = (   0.3624753   0.3882513   0.4525556  )
        18           S   tau(  18) = (   0.3635411   0.3752055   0.1119148  )
        19           Mo  tau(  19) = (   0.3652268   0.7630864   0.2781795  )
        20           S   tau(  20) = (   0.5269494   0.6690381   0.1096838  )
        21           Mo  tau(  21) = (   0.5300192   1.0470394   0.2900995  )
        22           S   tau(  22) = (   0.3670346   0.9457522   0.4574073  )
        23           S   tau(  23) = (   0.3604225   0.9585725   0.1159032  )
        24           Mo  tau(  24) = (   0.0313099   0.1847895   0.3013130  )
        25           S   tau(  25) = (   0.1956761   0.0838230   0.4650863  )
        26           S   tau(  26) = (   0.1967693   0.0903508   0.1278874  )
        27           Mo  tau(  27) = (   0.1967578   0.4753919   0.2813011  )
        28           S   tau(  28) = (   0.0287851   0.3864324   0.4586755  )
        29           S   tau(  29) = (   0.0244514   0.3729871   0.1239344  )
        30           Mo  tau(  30) = (   0.0286728   0.7631204   0.2856894  )
        31           S   tau(  31) = (   0.2011512   0.6675435   0.4465001  )
        32           S   tau(  32) = (   0.1969214   0.6672839   0.1104564  )
        33           Mo  tau(  33) = (   0.1950294   1.0511147   0.2932237  )
        34           S   tau(  34) = (   0.0312912   0.9612169   0.4667423  )
        35           S   tau(  35) = (   0.0292670   0.9563028   0.1216485  )
        36           O   tau(  36) = (   0.6666667   0.0000000   0.5407634  )

     number of k points=     1  Gaussian smearing, width (Ry)=  0.0100
                       cart. coord. in units 2pi/alat
        k(    1) = (   0.0000000   0.0000000   0.0000000), wk =   2.0000000

     Dense  grid:  2439793 G-vectors     FFT dimensions: ( 150, 180, 384)

     Smooth grid:   842757 G-vectors     FFT dimensions: ( 108, 120, 270)

     Estimated max dynamical RAM per process >     269.22 MB

     Estimated total dynamical RAM >      12.62 GB

     Initial potential from superposition of free atoms

     starting charge     311.9873, renormalised to     312.0000

     negative rho (up, down):  2.739E-04 0.000E+00


---------------------------------------------------------------------------------
Carrying out rVV10 run using the following parameters:
Nqs =      20    Nr_points =    1024   r_max =   100.000
b_value =  6.30000    beta =  0.00901
     q_mesh =  0.00010000  0.00030000  0.00058939  0.00100810
               0.00161396  0.00249058  0.00375900  0.00559430
               0.00824984  0.01209221  0.01765183  0.02569619
               0.03733578  0.05417739  0.07854596  0.11380545
               0.16482331  0.23864234  0.34545298  0.50000000

Gradients computed in Reciprocal space

---------------------------------------------------------------------------------


     Starting wfcs are  216 randomized atomic wfcs
     Checking if some PAW data can be deallocated... 

     total cpu time spent up to now is        5.1 secs

     Self-consistent Calculation

     iteration #  1     ecut=    80.00 Ry     beta= 0.70
     Davidson diagonalization with overlap
     ethr =  1.00E-02,  avg # of iterations =  2.0

     Threshold (ethr) on eigenvalues was too large:
     Diagonalizing with lowered threshold

     Davidson diagonalization with overlap
     ethr =  4.39E-04,  avg # of iterations =  4.0

     negative rho (up, down):  3.908E-08 0.000E+00

     total cpu time spent up to now is       18.6 secs

     total energy              =   -2246.12163245 Ry
     estimated scf accuracy    <       1.62649691 Ry

     iteration #  2     ecut=    80.00 Ry     beta= 0.70
     Davidson diagonalization with overlap
     ethr =  5.21E-04,  avg # of iterations =  4.0

     total cpu time spent up to now is       23.7 secs

     total energy              =   -2246.11691895 Ry
     estimated scf accuracy    <       0.73601267 Ry

     iteration #  3     ecut=    80.00 Ry     beta= 0.70
     Davidson diagonalization with overlap
     ethr =  2.36E-04,  avg # of iterations =  4.0

     total cpu time spent up to now is       27.5 secs

     total energy              =   -2246.09738121 Ry
     estimated scf accuracy    <       0.26285639 Ry

     iteration #  4     ecut=    80.00 Ry     beta= 0.70
     Davidson diagonalization with overlap
     ethr =  8.42E-05,  avg # of iterations =  9.0

     total cpu time spent up to now is       31.6 secs

     total energy              =   -2246.14216857 Ry
     estimated scf accuracy    <       0.04011868 Ry

     iteration #  5     ecut=    80.00 Ry     beta= 0.70
     Davidson diagonalization with overlap
     ethr =  1.29E-05,  avg # of iterations = 20.0

     total cpu time spent up to now is       36.3 secs

     total energy              =   -2246.14355172 Ry
     estimated scf accuracy    <       0.01969809 Ry

     iteration #  6     ecut=    80.00 Ry     beta= 0.70
     Davidson diagonalization with overlap
     ethr =  6.31E-06,  avg # of iterations =  2.0

     total cpu time spent up to now is       39.8 secs

     total energy              =   -2246.14297743 Ry
     estimated scf accuracy    <       0.01412196 Ry

     iteration #  7     ecut=    80.00 Ry     beta= 0.70
     Davidson diagonalization with overlap
     ethr =  4.53E-06,  avg # of iterations =  1.0

     total cpu time spent up to now is       43.2 secs

     total energy              =   -2246.14187592 Ry
     estimated scf accuracy    <       0.00888394 Ry

     iteration #  8     ecut=    80.00 Ry     beta= 0.70
     Davidson diagonalization with overlap
     ethr =  2.85E-06,  avg # of iterations =  2.0

     negative rho (up, down):  1.796E-03 0.000E+00

     total cpu time spent up to now is       48.9 secs

     total energy              =   -2246.14044564 Ry
     estimated scf accuracy    <       0.00507744 Ry

     iteration #  9     ecut=    80.00 Ry     beta= 0.70
     Davidson diagonalization with overlap
     ethr =  1.63E-06,  avg # of iterations =  2.0

     negative rho (up, down):  1.542E-02 0.000E+00

     total cpu time spent up to now is       55.2 secs

     total energy              =   -2246.14032705 Ry
     estimated scf accuracy    <       0.00268875 Ry

     iteration # 10     ecut=    80.00 Ry     beta= 0.70
     Davidson diagonalization with overlap
     ethr =  8.62E-07,  avg # of iterations =  2.0

     negative rho (up, down):  2.439E-02 0.000E+00

     total cpu time spent up to now is       61.1 secs

     total energy              =   -2246.14024001 Ry
     estimated scf accuracy    <       0.00140227 Ry

     iteration # 11     ecut=    80.00 Ry     beta= 0.70
     Davidson diagonalization with overlap
     ethr =  4.49E-07,  avg # of iterations =  2.0

     negative rho (up, down):  2.225E-02 0.000E+00

     total cpu time spent up to now is       67.8 secs

     total energy              =   -2246.14029766 Ry
     estimated scf accuracy    <       0.00050375 Ry

     iteration # 12     ecut=    80.00 Ry     beta= 0.70
     Davidson diagonalization with overlap
     ethr =  1.61E-07,  avg # of iterations =  2.0

     negative rho (up, down):  6.081E-03 0.000E+00

     total cpu time spent up to now is       74.9 secs

     total energy              =   -2246.14028196 Ry
     estimated scf accuracy    <       0.00008517 Ry

     iteration # 13     ecut=    80.00 Ry     beta= 0.70
     Davidson diagonalization with overlap
     ethr =  2.73E-08,  avg # of iterations = 10.0

     negative rho (up, down):  2.814E-03 0.000E+00

     total cpu time spent up to now is       83.8 secs

     total energy              =   -2246.14033517 Ry
     estimated scf accuracy    <       0.00001694 Ry

     iteration # 14     ecut=    80.00 Ry     beta= 0.70
     Davidson diagonalization with overlap
     ethr =  5.43E-09,  avg # of iterations =  2.0

     negative rho (up, down):  7.897E-04 0.000E+00

     total cpu time spent up to now is       94.4 secs

     total energy              =   -2246.14034279 Ry
     estimated scf accuracy    <       0.00000278 Ry

     iteration # 15     ecut=    80.00 Ry     beta= 0.70
     Davidson diagonalization with overlap
     ethr =  8.92E-10,  avg # of iterations =  5.0

     negative rho (up, down):  3.522E-04 0.000E+00

     total cpu time spent up to now is      103.3 secs

     total energy              =   -2246.14034294 Ry
     estimated scf accuracy    <       0.00000163 Ry

     iteration # 16     ecut=    80.00 Ry     beta= 0.70
     Davidson diagonalization with overlap
     ethr =  5.22E-10,  avg # of iterations =  4.0

     negative rho (up, down):  2.141E-04 0.000E+00

     total cpu time spent up to now is      106.6 secs

     End of self-consistent calculation

          k = 0.0000 0.0000 0.0000 (105382 PWs)   bands (ev):

   -62.9698 -62.9244 -62.9008 -62.8714 -62.8570 -62.8548 -62.8460 -62.8373
   -62.8328 -62.8246 -62.7776 -62.7483 -37.2934 -37.2364 -37.2183 -37.1856
   -37.1817 -37.1520 -37.1339 -37.1214 -37.1055 -37.0981 -37.0915 -37.0754
   -37.0739 -37.0593 -37.0574 -37.0371 -37.0276 -37.0228 -37.0138 -37.0088
   -36.9977 -36.9925 -36.9873 -36.9805 -36.9685 -36.9507 -36.9447 -36.9401
   -36.9200 -36.9058 -36.9038 -36.8730 -36.8613 -36.8133 -36.8084 -36.7465
   -21.0725 -15.9504 -15.3405 -15.1661 -15.0785 -14.9869 -14.7748 -14.7382
   -14.5505 -14.5322 -14.5025 -14.4560 -14.4140 -14.3475 -14.2709 -14.2432
   -14.1659 -14.1443 -14.1300 -13.9521 -13.9032 -13.8940 -13.8483 -13.6950
    -8.3428  -7.8789  -7.6556  -7.5066  -7.3482  -7.3198  -7.2831  -7.2606
    -7.1663  -7.1144  -6.8946  -6.8531  -6.7673  -6.7168  -6.6950  -6.5979
    -6.4941  -6.4496  -6.3982  -6.3242  -6.1905  -6.0802  -5.9793  -5.9263
    -5.8643  -5.8229  -5.7935  -5.7371  -5.6973  -5.6770  -5.6464  -5.5732
    -5.5225  -5.4638  -5.4388  -5.3634  -5.2772  -5.1692  -5.1119  -5.0324
    -4.9951  -4.9694  -4.8812  -4.8194  -4.6274  -4.5701  -4.4257  -4.3486
    -4.3358  -4.2579  -4.1399  -4.1188  -4.0455  -3.9764  -3.8820  -3.7728
    -3.7342  -3.7194  -3.6830  -3.6116  -3.5720  -3.5551  -3.5294  -3.5135
    -3.4831  -3.4199  -3.3155  -3.2532  -3.0202  -2.9558  -2.8580  -2.8420
    -2.7943  -2.7890  -2.7184  -2.7082  -2.6742  -2.6229  -2.3421  -2.2403
    -2.0545  -1.9937  -1.7713  -1.6743  -1.4428  -0.8348  -0.7711  -0.1807
    -0.1625  -0.1489  -0.0435   0.0099   0.0872   0.1411   0.1899   0.2181
     0.2271   0.3308   0.3934   0.4616   0.5020   0.5168   0.5399   0.6124
     0.6196   0.6856   0.7418   0.7563   0.7642   0.8403   0.8905   0.9273
     0.9968   1.0158   1.2211

     the Fermi energy is    -1.5555 ev

!    total energy              =   -2246.14034373 Ry
     estimated scf accuracy    <       0.00000039 Ry
     smearing contrib. (-TS)   =      -0.00593139 Ry
     internal energy E=F+TS    =   -2246.13441234 Ry

     The total energy is F=E-TS. E is the sum of the following terms:
     one-electron contribution =  -18500.15722237 Ry
     hartree contribution      =    9238.61345867 Ry
     xc contribution           =    -392.08096224 Ry
     ewald contribution        =    7417.36093063 Ry
     one-center paw contrib.   =      -9.87061703 Ry

     convergence has been achieved in  16 iterations

     negative rho (up, down):  2.141E-04 0.000E+00

     Forces acting on atoms (cartesian axes, Ry/au):

     atom    1 type  1   force =     0.01440180    0.00019329   -0.02310014
     atom    2 type  2   force =     0.03012879    0.03678925   -0.02207067
     atom    3 type  2   force =    -0.00985358    0.00876931   -0.00135800
     atom    4 type  1   force =     0.00359158    0.00296287    0.00174712
     atom    5 type  2   force =    -0.00006784   -0.00744369   -0.00332775
     atom    6 type  2   force =     0.00181081    0.01129581    0.00111428
     atom    7 type  1   force =     0.00928200   -0.03389449   -0.01351592
     atom    8 type  2   force =    -0.00146871    0.00046935    0.01650528
     atom    9 type  2   force =     0.01213558    0.00762967    0.01049100
     atom   10 type  1   force =    -0.00585612    0.01180472   -0.03121397
     atom   11 type  2   force =     0.01065029   -0.02534995   -0.02223708
     atom   12 type  2   force =    -0.00017920    0.00123623    0.00695115
     atom   13 type  1   force =    -0.00870969    0.02951650   -0.02628416
     atom   14 type  2   force =     0.07844822   -0.05252940    0.04830793
     atom   15 type  2   force =    -0.01364418    0.00351078   -0.01099913
     atom   16 type  1   force =    -0.00085930    0.00442014    0.00249466
     atom   17 type  2   force =     0.00443032    0.00334450    0.00260308
     atom   18 type  2   force =    -0.00414038   -0.01085166    0.01219211
     atom   19 type  1   force =     0.00003769   -0.01085166   -0.00449287
     atom   20 type  2   force =     0.00082537   -0.00373845   -0.00243631
     atom   21 type  1   force =    -0.03066345   -0.01121956   -0.04134234
     atom   22 type  2   force =    -0.00310782   -0.00186813   -0.00002964
     atom   23 type  2   force =    -0.00134587    0.00156672    0.00972287
     atom   24 type  1   force =     0.00417207   -0.00092625   -0.03270905
     atom   25 type  2   force =     0.00658400    0.01967905    0.00695478
     atom   26 type  2   force =    -0.01019840   -0.00125209   -0.00491648
     atom   27 type  1   force =    -0.00065855    0.00302526    0.00726892
     atom   28 type  2   force =     0.00032658   -0.00268540   -0.00296342
     atom   29 type  2   force =     0.00310133    0.00090033   -0.00445514
     atom   30 type  1   force =    -0.00306190    0.01086060   -0.00250623
     atom   31 type  2   force =     0.00122698    0.00023630    0.01680570
     atom   32 type  2   force =    -0.00833564    0.00725460    0.00800768
     atom   33 type  1   force =     0.01914088   -0.00705815   -0.01040689
     atom   34 type  2   force =     0.00249968   -0.04365511   -0.00730415
     atom   35 type  2   force =    -0.00625388    0.00691666    0.01296009
     atom   36 type  3   force =    -0.09438942    0.04094205    0.10354268
     The non-local contrib.  to forces
     atom    1 type  1   force =    -0.00244469    0.02785776    0.00059851
     atom    2 type  2   force =    -0.05681897   -0.02390792   -0.26138611
     atom    3 type  2   force =    -0.01323718   -0.00465372    0.26440759
     atom    4 type  1   force =     0.00652046    0.00172267    0.00720081
     atom    5 type  2   force =     0.00540670   -0.04135826   -0.25376291
     atom    6 type  2   force =    -0.00136758    0.00916544    0.26353988
     atom    7 type  1   force =    -0.00997631    0.02618625   -0.01930226
     atom    8 type  2   force =     0.00168374   -0.00026596   -0.25112692
     atom    9 type  2   force =     0.00219861   -0.00819431    0.28027508
     atom   10 type  1   force =     0.00776166   -0.00077725   -0.00035651
     atom   11 type  2   force =     0.01303190    0.09378144   -0.21141819
     atom   12 type  2   force =    -0.01120319   -0.01665745    0.26033615
     atom   13 type  1   force =    -0.01218545    0.00791440   -0.01115305
     atom   14 type  2   force =     0.37840528   -0.20545939    0.02353850
     atom   15 type  2   force =    -0.01387947   -0.00438190    0.25906745
     atom   16 type  1   force =     0.00180407    0.03316574   -0.02545232
     atom   17 type  2   force =     0.00169215   -0.02746698   -0.24999643
     atom   18 type  2   force =    -0.00515381   -0.00597023    0.27626219
     atom   19 type  1   force =     0.01003407    0.00080029   -0.01637176
     atom   20 type  2   force =    -0.00195941   -0.02382278    0.26709154
     atom   21 type  1   force =     0.00283649    0.02625962    0.02299282
     atom   22 type  2   force =    -0.00053224    0.00482555   -0.26065796
     atom   23 type  2   force =     0.00719720   -0.01351754    0.26951985
     atom   24 type  1   force =    -0.01587256    0.00481640   -0.00124271
     atom   25 type  2   force =    -0.00160119    0.00366888   -0.25923372
     atom   26 type  2   force =    -0.00077402   -0.01390302    0.26352908
     atom   27 type  1   force =    -0.00786539    0.00975380    0.01058012
     atom   28 type  2   force =    -0.00455950   -0.02306709   -0.27506468
     atom   29 type  2   force =     0.00693352    0.00791651    0.25955946
     atom   30 type  1   force =     0.00131624    0.01908435    0.00889270
     atom   31 type  2   force =    -0.00752274    0.00205434   -0.25389843
     atom   32 type  2   force =    -0.00236012   -0.00729095    0.27366930
     atom   33 type  1   force =    -0.00973892    0.00934889    0.00713637
     atom   34 type  2   force =     0.00212909   -0.03814067   -0.27394274
     atom   35 type  2   force =    -0.00186631   -0.01016766    0.27126856
     atom   36 type  3   force =    -0.86725647    0.56939531   -0.43100302
     The ionic contribution  to forces
     atom    1 type  1   force =     0.84421085    3.35701907    1.16440194
     atom    2 type  2   force =     2.91733514    2.00660347   37.88299827
     atom    3 type  2   force =     0.15304244    0.18088066  -37.16793176
     atom    4 type  1   force =     0.45034735    1.16444746   -0.44122537
     atom    5 type  2   force =    -0.90724902    2.53796341   38.43158707
     atom    6 type  2   force =     0.36647730   -0.22604290  -38.73091937
     atom    7 type  1   force =    -2.54024355   -4.12613312    0.95161166
     atom    8 type  2   force =    -0.77062779   -0.31284184   37.18572639
     atom    9 type  2   force =     0.41666494   -0.13994549  -38.54570275
     atom   10 type  1   force =     1.38269744   -1.81162036    1.87780882
     atom   11 type  2   force =    -0.18026314   -5.64256394   37.58613114
     atom   12 type  2   force =     0.49547823    0.34401394  -38.92086215
     atom   13 type  1   force =    -0.82304040    2.03720228    0.93780467
     atom   14 type  2   force =    -4.90572988    3.08870254   35.56152091
     atom   15 type  2   force =    -0.09608412    0.13320595  -38.01676069
     atom   16 type  1   force =    -0.31556186    4.56264966   -0.69836431
     atom   17 type  2   force =     0.48436746    1.98639234   37.72426141
     atom   18 type  2   force =    -0.26450306   -0.47589572  -39.13396199
     atom   19 type  1   force =     2.24658556   -3.16824208   -0.50746838
     atom   20 type  2   force =     0.16722878   -0.30924480  -39.03634454
     atom   21 type  1   force =    -2.19546187   -1.82642235   -3.67051729
     atom   22 type  2   force =    -0.50469546   -2.53698985   38.03470580
     atom   23 type  2   force =    -0.27678592    0.47251889  -39.02595832
     atom   24 type  1   force =     0.41210036    1.96996079    4.27440303
     atom   25 type  2   force =     0.46441891    0.49205835   39.02449969
     atom   26 type  2   force =    -0.33485485    0.14745252  -38.00744543
     atom   27 type  1   force =    -0.03955222    0.71293687   -3.13547615
     atom   28 type  2   force =     0.30378683    1.40646855   38.03471173
     atom   29 type  2   force =    -0.17627016   -0.26666217  -37.80975424
     atom   30 type  1   force =     0.03201251   -1.52338984   -1.08368815
     atom   31 type  2   force =     1.18361543   -0.21085125   37.17783281
     atom   32 type  2   force =    -0.49511470   -0.07123071  -39.10462806
     atom   33 type  1   force =     0.55143649   -1.26139657    0.63039368
     atom   34 type  2   force =     0.92439875   -2.00234679   39.08248217
     atom   35 type  2   force =    -0.14872974    0.30497386  -38.49325165
     atom   36 type  3   force =     1.17856299   -0.99363086   45.96737941
     The local contribution  to forces
     atom    1 type  1   force =    -0.82735673   -3.38481733   -1.18873449
     atom    2 type  2   force =    -2.83221733   -1.94679762  -37.66439211
     atom    3 type  2   force =    -0.15027873   -0.16759262   36.92253177
     atom    4 type  1   force =    -0.45337947   -1.16326421    0.43496352
     atom    5 type  2   force =     0.90227125   -2.50637968  -38.20184585
     atom    6 type  2   force =    -0.36362957    0.22917951   38.48912712
     atom    7 type  1   force =     2.55950344    4.06624204   -0.94657656
     atom    8 type  2   force =     0.76743756    0.31328696  -36.93866962
     atom    9 type  2   force =    -0.40682468    0.15531337   38.29675084
     atom   10 type  1   force =    -1.39646464    1.82427696   -1.90924997
     atom   11 type  2   force =     0.17862064    5.52764060  -37.41565496
     atom   12 type  2   force =    -0.48554772   -0.32748291   38.68796311
     atom   13 type  1   force =     0.82658263   -2.01563435   -0.95376829
     atom   14 type  2   force =     4.62745402   -2.94728542  -35.54179667
     atom   15 type  2   force =     0.09555988   -0.12560854   37.76693411
     atom   16 type  1   force =     0.31295401   -4.59148485    0.72549179
     atom   17 type  2   force =    -0.48152390   -1.95715262  -37.49221177
     atom   18 type  2   force =     0.26544817    0.47136269   38.89075556
     atom   19 type  1   force =    -2.25653736    3.15670388    0.51853351
     atom   20 type  2   force =    -0.16471474    0.32833831   38.78772058
     atom   21 type  1   force =     2.16209005    1.78897752    3.60555696
     atom   22 type  2   force =     0.50233940    2.53092404  -37.79498099
     atom   23 type  2   force =     0.26878777   -0.45868034   38.78684472
     atom   24 type  1   force =    -0.39218320   -1.97583546   -4.30654558
     atom   25 type  2   force =    -0.45649995   -0.47572153  -38.77924150
     atom   26 type  2   force =     0.32574492   -0.13556308   37.75956435
     atom   27 type  1   force =     0.04680060   -0.71966764    3.13130287
     atom   28 type  2   force =    -0.29922218   -1.38785808  -37.78388306
     atom   29 type  2   force =     0.17300993    0.26060719   37.56578414
     atom   30 type  1   force =    -0.03643584    1.51524401    1.07143426
     atom   31 type  2   force =    -1.17528282    0.20903182  -36.92799491
     atom   32 type  2   force =     0.48932515    0.08531261   38.85968162
     atom   33 type  1   force =    -0.52252903    1.24500144   -0.64866540
     atom   34 type  2   force =    -0.92431763    1.99565937  -38.83727305
     atom   35 type  2   force =     0.14444528   -0.28880927   38.25575817
     atom   36 type  3   force =    -0.41549176    0.47165809  -45.43675183
     The core correction contribution to forces
     atom    1 type  1   force =     0.00000000    0.00000000    0.00000000
     atom    2 type  2   force =     0.00173879    0.00083180    0.02046830
     atom    3 type  2   force =     0.00059401    0.00011592   -0.02061190
     atom    4 type  1   force =     0.00000000    0.00000000    0.00000000
     atom    5 type  2   force =    -0.00049878    0.00224878    0.02039654
     atom    6 type  2   force =     0.00030396   -0.00100705   -0.02090333
     atom    7 type  1   force =     0.00000000    0.00000000    0.00000000
     atom    8 type  2   force =     0.00000849    0.00033702    0.02027181
     atom    9 type  2   force =     0.00008536    0.00046439   -0.02114993
     atom   10 type  1   force =     0.00000000    0.00000000    0.00000000
     atom   11 type  2   force =    -0.00074981   -0.00407504    0.01846631
     atom   12 type  2   force =     0.00107779    0.00137881   -0.02073938
     atom   13 type  1   force =     0.00000000    0.00000000    0.00000000
     atom   14 type  2   force =    -0.02154561    0.01141699    0.00487519
     atom   15 type  2   force =     0.00079464    0.00026277   -0.02051378
     atom   16 type  1   force =     0.00000000    0.00000000    0.00000000
     atom   17 type  2   force =    -0.00006038    0.00155589    0.02024958
     atom   18 type  2   force =     0.00009897   -0.00033324   -0.02116251
     atom   19 type  1   force =     0.00000000    0.00000000    0.00000000
     atom   20 type  2   force =     0.00027710    0.00099859   -0.02121779
     atom   21 type  1   force =     0.00000000    0.00000000    0.00000000
     atom   22 type  2   force =    -0.00015103   -0.00056882    0.02061839
     atom   23 type  2   force =    -0.00052097    0.00123622   -0.02095020
     atom   24 type  1   force =     0.00000000    0.00000000    0.00000000
     atom   25 type  2   force =     0.00022913   -0.00037850    0.02066582
     atom   26 type  2   force =    -0.00031800    0.00074729   -0.02084565
     atom   27 type  1   force =     0.00000000    0.00000000    0.00000000
     atom   28 type  2   force =     0.00027984    0.00171119    0.02098826
     atom   29 type  2   force =    -0.00058135   -0.00096199   -0.02034974
     atom   30 type  1   force =     0.00000000    0.00000000    0.00000000
     atom   31 type  2   force =     0.00043091    0.00003173    0.02054735
     atom   32 type  2   force =    -0.00017373    0.00048022   -0.02103129
     atom   33 type  1   force =     0.00000000    0.00000000    0.00000000
     atom   34 type  2   force =     0.00022296    0.00125234    0.02116460
     atom   35 type  2   force =    -0.00012122    0.00091594   -0.02109837
     atom   36 type  3   force =     0.00982256   -0.00651862    0.00373247
     The Hubbard contrib.    to forces
     atom    1 type  1   force =     0.00000000    0.00000000    0.00000000
     atom    2 type  2   force =     0.00000000    0.00000000    0.00000000
     atom    3 type  2   force =     0.00000000    0.00000000    0.00000000
     atom    4 type  1   force =     0.00000000    0.00000000    0.00000000
     atom    5 type  2   force =     0.00000000    0.00000000    0.00000000
     atom    6 type  2   force =     0.00000000    0.00000000    0.00000000
     atom    7 type  1   force =     0.00000000    0.00000000    0.00000000
     atom    8 type  2   force =     0.00000000    0.00000000    0.00000000
     atom    9 type  2   force =     0.00000000    0.00000000    0.00000000
     atom   10 type  1   force =     0.00000000    0.00000000    0.00000000
     atom   11 type  2   force =     0.00000000    0.00000000    0.00000000
     atom   12 type  2   force =     0.00000000    0.00000000    0.00000000
     atom   13 type  1   force =     0.00000000    0.00000000    0.00000000
     atom   14 type  2   force =     0.00000000    0.00000000    0.00000000
     atom   15 type  2   force =     0.00000000    0.00000000    0.00000000
     atom   16 type  1   force =     0.00000000    0.00000000    0.00000000
     atom   17 type  2   force =     0.00000000    0.00000000    0.00000000
     atom   18 type  2   force =     0.00000000    0.00000000    0.00000000
     atom   19 type  1   force =     0.00000000    0.00000000    0.00000000
     atom   20 type  2   force =     0.00000000    0.00000000    0.00000000
     atom   21 type  1   force =     0.00000000    0.00000000    0.00000000
     atom   22 type  2   force =     0.00000000    0.00000000    0.00000000
     atom   23 type  2   force =     0.00000000    0.00000000    0.00000000
     atom   24 type  1   force =     0.00000000    0.00000000    0.00000000
     atom   25 type  2   force =     0.00000000    0.00000000    0.00000000
     atom   26 type  2   force =     0.00000000    0.00000000    0.00000000
     atom   27 type  1   force =     0.00000000    0.00000000    0.00000000
     atom   28 type  2   force =     0.00000000    0.00000000    0.00000000
     atom   29 type  2   force =     0.00000000    0.00000000    0.00000000
     atom   30 type  1   force =     0.00000000    0.00000000    0.00000000
     atom   31 type  2   force =     0.00000000    0.00000000    0.00000000
     atom   32 type  2   force =     0.00000000    0.00000000    0.00000000
     atom   33 type  1   force =     0.00000000    0.00000000    0.00000000
     atom   34 type  2   force =     0.00000000    0.00000000    0.00000000
     atom   35 type  2   force =     0.00000000    0.00000000    0.00000000
     atom   36 type  3   force =     0.00000000    0.00000000    0.00000000
     The SCF correction term to forces
     atom    1 type  1   force =    -0.00000802    0.00013376    0.00061885
     atom    2 type  2   force =     0.00009076    0.00005949    0.00022592
     atom    3 type  2   force =     0.00002548    0.00001905    0.00023125
     atom    4 type  1   force =     0.00010284    0.00005693    0.00079311
     atom    5 type  2   force =     0.00000160    0.00008204    0.00028235
     atom    6 type  2   force =     0.00002631    0.00000079    0.00025492
     atom    7 type  1   force =    -0.00000197   -0.00018969    0.00073618
     atom    8 type  2   force =     0.00002889   -0.00004685    0.00028857
     atom    9 type  2   force =     0.00001095   -0.00000832    0.00030271
     atom   10 type  1   force =     0.00014902   -0.00007466    0.00056863
     atom   11 type  2   force =     0.00001030   -0.00013304    0.00022356
     atom   12 type  2   force =     0.00001530   -0.00001618    0.00023836
     atom   13 type  1   force =    -0.00006686    0.00003415    0.00081746
     atom   14 type  2   force =    -0.00013599    0.00009584    0.00015494
     atom   15 type  2   force =    -0.00003551    0.00003248    0.00025874
     atom   16 type  1   force =    -0.00005592    0.00008957    0.00080445
     atom   17 type  2   force =    -0.00004541    0.00001585    0.00028523
     atom   18 type  2   force =    -0.00003104   -0.00001519    0.00028381
     atom   19 type  1   force =    -0.00004498   -0.00011377    0.00079872
     atom   20 type  2   force =    -0.00000678   -0.00000780    0.00029884
     atom   21 type  1   force =    -0.00012852   -0.00003438    0.00061011
     atom   22 type  2   force =    -0.00006889   -0.00005908    0.00027007
     atom   23 type  2   force =    -0.00002435    0.00000948    0.00025177
     atom   24 type  1   force =     0.00012707    0.00013199    0.00066115
     atom   25 type  2   force =     0.00003670    0.00005182    0.00024943
     atom   26 type  2   force =     0.00000315    0.00001417    0.00026612
     atom   27 type  1   force =    -0.00004193    0.00000221    0.00084702
     atom   28 type  2   force =     0.00004118    0.00006000    0.00026927
     atom   29 type  2   force =     0.00000899    0.00000077    0.00029019
     atom   30 type  1   force =     0.00004479   -0.00007795    0.00083991
     atom   31 type  2   force =    -0.00001420   -0.00003035    0.00030382
     atom   32 type  2   force =    -0.00001264   -0.00001660    0.00030106
     atom   33 type  1   force =    -0.00002806   -0.00001194    0.00071340
     atom   34 type  2   force =     0.00006611   -0.00007938    0.00024981
     atom   35 type  2   force =     0.00001771    0.00000375    0.00026832
     atom   36 type  3   force =    -0.00002714    0.00003811    0.00017059

     Total force =     0.226724     Total SCF correction =     0.002918

     BFGS Geometry Optimization
     Energy error            =      0.0E+00 Ry
     Gradient error          =      1.0E-01 Ry/Bohr

     number of scf cycles    =   1
     number of bfgs steps    =   0

     energy             new  =   -2246.1403437311 Ry

     new trust radius        =       0.1459681462 bohr
     new conv_thr            =       0.0000010000 Ry


ATOMIC_POSITIONS (angstrom)
Mo            6.5821695106        1.7879085150        2.8114189635
S             8.1926528063        0.8291720551        4.4228590569
S             8.1880187962        0.8158822657        1.2771648041
Mo            8.0970631473        4.4966248301        2.7187429321
S             6.4998733552        3.7184724556        4.3448996794
S             6.5543080386        3.5177150399        1.1218698801
Mo            6.4948935213        7.2005010937        2.6647321654
S             8.0809505178        6.3441193632        4.2511957801
S             8.0873395177        6.3087397627        1.0894145981
Mo            8.1575201207        9.9084272017        2.8269440382
S             6.5008034843        8.9295121964        4.3713381773
S             6.6178523696        9.0493653987        1.1435856937
Mo            3.4170506944        1.7625753088        2.7625621864
S             5.0166785026        0.7891438472        4.3760965477
S             5.0506135646        0.8481199343        1.2208379741
Mo            4.9793019567        4.5155170418        2.6342046684
S             3.4301860839        3.6733695214        4.2810870717
S             3.4357295862        3.5424862445        1.0648034675
Mo            3.4538816844        7.2105820892        2.6282993392
S             4.9836709580        6.3249539815        1.0359644908
Mo            4.9960375222        9.8956629170        2.7215235345
S             3.4693135313        8.9427626973        4.3255756293
S             3.4077169633        9.0658190574        1.1012134227
Mo            0.2982982516        1.7470193800        2.8321358252
S             1.8539463134        0.8031077089        4.4018897496
S             1.8554032725        0.8537633383        1.2067991646
Mo            1.8603428218        4.4972676622        2.6640439243
S             0.2723866699        3.6529777751        4.3360159236
S             0.2328723592        3.5277256597        1.1696603254
Mo            0.2695318615        7.2223932748        2.7003701903
S             1.9028875361        6.3129238808        4.2313373162
S             1.8578271825        6.3141827805        1.0487967635
Mo            1.8544755787        9.9364041399        2.7674391619
S             0.2972356728        9.0668965402        4.4100042750
S             0.2734619877        9.0471858539        1.1572589642
O             6.2545579378        0.0216655980        5.1686618917



     Writing config-only to output data dir ./MoS2-V-O.save/
     NEW-OLD atomic charge density approx. for the potential

     negative rho (up, down):  1.467E-04 0.000E+00

     total cpu time spent up to now is      113.5 secs

     Self-consistent Calculation

     iteration #  1     ecut=    80.00 Ry     beta= 0.70
     Davidson diagonalization with overlap
     ethr =  1.00E-06,  avg # of iterations = 13.0

     negative rho (up, down):  2.121E-04 0.000E+00

     total cpu time spent up to now is      130.8 secs

     total energy              =   -2246.18302460 Ry
     estimated scf accuracy    <       0.03229270 Ry

     iteration #  2     ecut=    80.00 Ry     beta= 0.70
     Davidson diagonalization with overlap
     ethr =  1.04E-05,  avg # of iterations =  5.0

     negative rho (up, down):  3.265E-04 0.000E+00

     total cpu time spent up to now is      141.9 secs

     total energy              =   -2246.18767555 Ry
     estimated scf accuracy    <       0.01380655 Ry

     iteration #  3     ecut=    80.00 Ry     beta= 0.70
     Davidson diagonalization with overlap
     ethr =  4.43E-06,  avg # of iterations =  4.0

     negative rho (up, down):  4.483E-04 0.000E+00

     total cpu time spent up to now is      154.3 secs

     total energy              =   -2246.18911769 Ry
     estimated scf accuracy    <       0.00070449 Ry

     iteration #  4     ecut=    80.00 Ry     beta= 0.70
     Davidson diagonalization with overlap
     ethr =  2.26E-07,  avg # of iterations =  5.0

     negative rho (up, down):  4.851E-04 0.000E+00

     total cpu time spent up to now is      169.6 secs

     total energy              =   -2246.18920012 Ry
     estimated scf accuracy    <       0.00009758 Ry

     iteration #  5     ecut=    80.00 Ry     beta= 0.70
     Davidson diagonalization with overlap
     ethr =  3.13E-08,  avg # of iterations =  5.0

     negative rho (up, down):  4.997E-04 0.000E+00

     total cpu time spent up to now is      191.0 secs

     total energy              =   -2246.18921380 Ry
     estimated scf accuracy    <       0.00001870 Ry

     iteration #  6     ecut=    80.00 Ry     beta= 0.70
     Davidson diagonalization with overlap
     ethr =  5.99E-09,  avg # of iterations =  5.0

     negative rho (up, down):  4.888E-04 0.000E+00

     total cpu time spent up to now is      205.7 secs

     total energy              =   -2246.18921678 Ry
     estimated scf accuracy    <       0.00000452 Ry

     iteration #  7     ecut=    80.00 Ry     beta= 0.70
     Davidson diagonalization with overlap
     ethr =  1.45E-09,  avg # of iterations =  5.0

     negative rho (up, down):  2.147E-04 0.000E+00

     total cpu time spent up to now is      209.2 secs

     End of self-consistent calculation

          k = 0.0000 0.0000 0.0000 (105382 PWs)   bands (ev):

   -63.0617 -62.9387 -62.9033 -62.8750 -62.8639 -62.8528 -62.8447 -62.8344
   -62.8237 -62.8150 -62.7846 -62.7820 -37.3657 -37.2846 -37.2518 -37.1981
   -37.1857 -37.1824 -37.1477 -37.1316 -37.1167 -37.1076 -37.0994 -37.0807
   -37.0757 -37.0745 -37.0615 -37.0316 -37.0292 -37.0202 -37.0107 -37.0052
   -37.0011 -36.9937 -36.9854 -36.9820 -36.9733 -36.9685 -36.9533 -36.9489
   -36.9259 -36.9114 -36.9071 -36.8855 -36.8671 -36.8347 -36.8187 -36.7541
   -21.3892 -15.9644 -15.2878 -15.1466 -15.0593 -14.9746 -14.7402 -14.7100
   -14.5474 -14.5227 -14.4920 -14.4739 -14.4305 -14.3471 -14.2792 -14.2470
   -14.1734 -14.1571 -14.1429 -13.9417 -13.9292 -13.8783 -13.8602 -13.6404
    -8.2935  -7.8672  -7.6458  -7.5018  -7.3595  -7.3277  -7.2942  -7.2608
    -7.1874  -7.1115  -6.8997  -6.8613  -6.7739  -6.7328  -6.7047  -6.6127
    -6.5105  -6.4588  -6.3861  -6.3121  -6.1978  -6.0540  -5.9850  -5.9239
    -5.8642  -5.8382  -5.8035  -5.7413  -5.7179  -5.6898  -5.6594  -5.5760
    -5.5119  -5.4729  -5.4528  -5.3495  -5.2627  -5.1700  -5.1146  -5.0408
    -5.0138  -4.9742  -4.8982  -4.8183  -4.6123  -4.5902  -4.4184  -4.3605
    -4.3378  -4.2833  -4.1606  -4.1334  -4.0475  -3.9885  -3.8741  -3.7725
    -3.7426  -3.7369  -3.6755  -3.6101  -3.5792  -3.5651  -3.5333  -3.5261
    -3.4874  -3.4222  -3.3325  -3.2487  -3.0231  -2.9558  -2.8648  -2.8474
    -2.8208  -2.7971  -2.7358  -2.7143  -2.6951  -2.6222  -2.3428  -2.2537
    -2.0816  -2.0141  -1.8150  -1.7485  -1.3598  -0.8225  -0.7891  -0.1916
    -0.1708  -0.1503  -0.0381   0.0169   0.0747   0.1249   0.1877   0.2237
     0.2399   0.3254   0.3917   0.4680   0.5040   0.5138   0.5366   0.6110
     0.6167   0.6840   0.7252   0.7356   0.7680   0.8574   0.9004   0.9212
     0.9909   0.9961   1.2350

     the Fermi energy is    -1.5513 ev

!    total energy              =   -2246.18921735 Ry
     estimated scf accuracy    <       0.00000096 Ry
     smearing contrib. (-TS)   =      -0.00160000 Ry
     internal energy E=F+TS    =   -2246.18761735 Ry

     The total energy is F=E-TS. E is the sum of the following terms:
     one-electron contribution =  -18491.51022307 Ry
     hartree contribution      =    9234.16441446 Ry
     xc contribution           =    -392.10166581 Ry
     ewald contribution        =    7413.12592467 Ry
     one-center paw contrib.   =      -9.86606761 Ry

     convergence has been achieved in   7 iterations

     negative rho (up, down):  2.147E-04 0.000E+00

     Forces acting on atoms (cartesian axes, Ry/au):

     atom    1 type  1   force =     0.00644799    0.00042931   -0.01871409
     atom    2 type  2   force =     0.02148850    0.02715364   -0.02716943
     atom    3 type  2   force =    -0.00808065    0.00750090   -0.01168528
     atom    4 type  1   force =     0.00357064    0.00313015    0.00186445
     atom    5 type  2   force =     0.00048086   -0.00743429   -0.00356899
     atom    6 type  2   force =     0.00232785    0.01176284   -0.00114723
     atom    7 type  1   force =     0.00504805   -0.01930200   -0.00658630
     atom    8 type  2   force =     0.00076742   -0.00200294    0.01362460
     atom    9 type  2   force =     0.01257811    0.00505219    0.00522838
     atom   10 type  1   force =    -0.00162769    0.01042154   -0.00969502
     atom   11 type  2   force =     0.00599507   -0.02373069   -0.03111411
     atom   12 type  2   force =    -0.00049666   -0.00206037    0.00002060
     atom   13 type  1   force =     0.00320856    0.01564609    0.00125785
     atom   14 type  2   force =     0.08106180   -0.05338857    0.01909266
     atom   15 type  2   force =    -0.01296689    0.00525575   -0.01126027
     atom   16 type  1   force =    -0.00025818    0.00212197    0.00166601
     atom   17 type  2   force =     0.00339008    0.00389213    0.00234296
     atom   18 type  2   force =    -0.00472875   -0.00690184    0.00665919
     atom   19 type  1   force =    -0.00168026   -0.00905188    0.00168581
     atom   20 type  2   force =     0.00022668   -0.00506822   -0.00543351
     atom   21 type  1   force =    -0.01468143   -0.00772676   -0.01821867
     atom   22 type  2   force =    -0.00105716   -0.00210406   -0.00335242
     atom   23 type  2   force =    -0.00491091   -0.00306266   -0.00085976
     atom   24 type  1   force =     0.00344858    0.00118619   -0.01443031
     atom   25 type  2   force =     0.00614194    0.01684846   -0.00419039
     atom   26 type  2   force =    -0.00532703   -0.00211288   -0.01028905
     atom   27 type  1   force =    -0.00035791    0.00292077    0.00761280
     atom   28 type  2   force =     0.00039525   -0.00340612   -0.00462933
     atom   29 type  2   force =     0.00312276    0.00323945   -0.00638001
     atom   30 type  1   force =    -0.00115063    0.00288937    0.00338759
     atom   31 type  2   force =     0.00003866    0.00050718    0.01175486
     atom   32 type  2   force =    -0.00778885    0.00599880    0.00598301
     atom   33 type  1   force =     0.01031011   -0.00232728    0.00169469
     atom   34 type  2   force =     0.00000246   -0.03098577   -0.01320820
     atom   35 type  2   force =    -0.00407552    0.00711985    0.00610011
     atom   36 type  3   force =    -0.10086286    0.04758974    0.11195682
     The non-local contrib.  to forces
     atom    1 type  1   force =    -0.00610715    0.02781415    0.00410526
     atom    2 type  2   force =    -0.01864477   -0.01246693   -0.26081576
     atom    3 type  2   force =    -0.01057798   -0.00554826    0.25907613
     atom    4 type  1   force =     0.00687641    0.00144468    0.00708537
     atom    5 type  2   force =     0.00567035   -0.04028842   -0.25629777
     atom    6 type  2   force =    -0.00112130    0.01008062    0.26170995
     atom    7 type  1   force =    -0.00747094    0.02134175   -0.02551171
     atom    8 type  2   force =     0.00273777   -0.00165006   -0.25554544
     atom    9 type  2   force =     0.00344172   -0.01048442    0.27668143
     atom   10 type  1   force =     0.00848237   -0.00236678   -0.00188552
     atom   11 type  2   force =     0.01239953    0.05623472   -0.23681840
     atom   12 type  2   force =    -0.01297228   -0.01976945    0.25949739
     atom   13 type  1   force =    -0.02363006    0.01227398   -0.02239255
     atom   14 type  2   force =     0.37261816   -0.20418389    0.06935030
     atom   15 type  2   force =    -0.01379535   -0.00494656    0.26114704
     atom   16 type  1   force =     0.00228743    0.03437109   -0.02462561
     atom   17 type  2   force =     0.00183183   -0.02625684   -0.24992259
     atom   18 type  2   force =    -0.00624520   -0.00407912    0.27487507
     atom   19 type  1   force =     0.01250281    0.00356697   -0.01682998
     atom   20 type  2   force =    -0.00361017   -0.02437043    0.26459360
     atom   21 type  1   force =    -0.00078000    0.03078814    0.02650330
     atom   22 type  2   force =     0.00101894    0.00291839   -0.26219998
     atom   23 type  2   force =     0.00359353   -0.01728338    0.26254642
     atom   24 type  1   force =    -0.01588355    0.00576296   -0.00382575
     atom   25 type  2   force =    -0.00012413    0.00064007   -0.26459079
     atom   26 type  2   force =     0.00405434   -0.01250826    0.26271385
     atom   27 type  1   force =    -0.00867717    0.01177092    0.00958785
     atom   28 type  2   force =    -0.00434680   -0.02259668   -0.27736769
     atom   29 type  2   force =     0.00673370    0.00718551    0.26076249
     atom   30 type  1   force =    -0.00088206    0.02091416    0.00863110
     atom   31 type  2   force =    -0.00816217    0.00128738   -0.25757416
     atom   32 type  2   force =    -0.00113466   -0.00888386    0.27260166
     atom   33 type  1   force =    -0.00747893    0.00609229    0.00398152
     atom   34 type  2   force =     0.00218677   -0.02847274   -0.27949187
     atom   35 type  2   force =    -0.00035773   -0.00943526    0.26822578
     atom   36 type  3   force =    -1.14843735    0.73456447   -0.62552485
     The ionic contribution  to forces
     atom    1 type  1   force =     0.44481833    3.01190143    0.94417199
     atom    2 type  2   force =     2.63981813    1.66460943   37.83126995
     atom    3 type  2   force =     0.13174417    0.13738861  -37.19931627
     atom    4 type  1   force =     0.48761100    1.09091053   -0.22216861
     atom    5 type  2   force =    -0.92647354    2.43829366   38.41603749
     atom    6 type  2   force =     0.33374435   -0.21110259  -38.70199692
     atom    7 type  1   force =    -2.61634896   -3.61218431    0.83938123
     atom    8 type  2   force =    -0.75680229   -0.26496434   37.34909648
     atom    9 type  2   force =     0.46345007   -0.15993375  -38.54510631
     atom   10 type  1   force =     1.16839702   -1.69577969    1.81967361
     atom   11 type  2   force =    -0.16012950   -5.22113809   37.34192760
     atom   12 type  2   force =     0.48413309    0.29392055  -38.76878759
     atom   13 type  1   force =    -0.36463055    1.50701215    0.92070743
     atom   14 type  2   force =    -5.46414524    3.39121513   35.02496419
     atom   15 type  2   force =    -0.05059227    0.15496574  -37.90595249
     atom   16 type  1   force =    -0.29154021    4.40016717   -0.47250949
     atom   17 type  2   force =     0.52596197    1.87223035   37.81575099
     atom   18 type  2   force =    -0.23771430   -0.35292661  -39.12259736
     atom   19 type  1   force =     2.28541520   -3.11281138   -0.43430511
     atom   20 type  2   force =     0.12688093   -0.29387949  -39.09830948
     atom   21 type  1   force =    -1.67806295   -1.49420054   -4.12350538
     atom   22 type  2   force =    -0.41836884   -2.47426333   38.08431451
     atom   23 type  2   force =    -0.33468661    0.37577196  -39.07358023
     atom   24 type  1   force =     0.48489208    1.77632608    3.73958007
     atom   25 type  2   force =     0.47355112    0.41235671   38.99468911
     atom   26 type  2   force =    -0.29022973    0.05690921  -37.99476315
     atom   27 type  1   force =    -0.09422273    0.80169491   -2.80904647
     atom   28 type  2   force =     0.29448757    1.30801688   38.05202387
     atom   29 type  2   force =    -0.17961079   -0.17139037  -37.83837082
     atom   30 type  1   force =     0.04849524   -1.54495159   -0.97012652
     atom   31 type  2   force =     1.16575127   -0.17681964   37.29279372
     atom   32 type  2   force =    -0.49882769   -0.10080394  -39.06088317
     atom   33 type  1   force =     0.29876321   -0.97205600    0.86073185
     atom   34 type  2   force =     0.79443450   -1.72902348   39.01477940
     atom   35 type  2   force =    -0.11949118    0.31294271  -38.40133270
     atom   36 type  3   force =     1.82952815   -1.41840410   46.40076456
     The local contribution  to forces
     atom    1 type  1   force =    -0.43253633   -3.03954097   -0.96592607
     atom    2 type  2   force =    -2.59965836   -1.62521304  -37.61765710
     atom    3 type  2   force =    -0.12980035   -0.12453223   36.94918910
     atom    4 type  1   force =    -0.49094823   -1.08908379    0.21772337
     atom    5 type  2   force =     0.92177644   -2.40769979  -38.18332569
     atom    6 type  2   force =    -0.33061540    0.21377573   38.46013833
     atom    7 type  1   force =     2.62884012    3.57186358   -0.81957160
     atom    8 type  2   force =     0.75483548    0.26429948  -37.09991871
     atom    9 type  2   force =    -0.45440263    0.17498782   38.29484313
     atom   10 type  1   force =    -1.17873806    1.70846594   -1.82636208
     atom   11 type  2   force =     0.15440689    5.14327274  -37.15526124
     atom   12 type  2   force =    -0.47290752   -0.27764535   38.53015356
     atom   13 type  1   force =     0.39160804   -1.50379545   -0.89626671
     atom   14 type  2   force =     5.19461795   -3.25227859  -35.07664398
     atom   15 type  2   force =     0.05060107   -0.14515748   37.65444653
     atom   16 type  1   force =     0.28898420   -4.43245047    0.49959721
     atom   17 type  2   force =    -0.52428624   -1.84361355  -37.58342823
     atom   18 type  2   force =     0.23908208    0.35036055   38.87579598
     atom   19 type  1   force =    -2.29953070    3.10024727    0.45359503
     atom   20 type  2   force =    -0.12336849    0.31222113   38.84950852
     atom   21 type  1   force =     1.66433777    1.45576341    4.07979268
     atom   22 type  2   force =     0.41663058    2.46978720  -37.84567546
     atom   23 type  2   force =     0.32670823   -0.36284594   38.83107757
     atom   24 type  1   force =    -0.46551763   -1.78103374   -3.74932411
     atom   25 type  2   force =    -0.46735659   -0.39592906  -38.75476006
     atom   26 type  2   force =     0.28143611   -0.04712060   37.74279035
     atom   27 type  1   force =     0.10258325   -0.81038407    2.80775932
     atom   28 type  2   force =    -0.29003725   -1.29041413  -37.79997153
     atom   29 type  2   force =     0.17660234    0.16832603   37.59180469
     atom   30 type  1   force =    -0.04880494    1.52689224    0.96573364
     atom   31 type  2   force =    -1.15799292    0.17601504  -37.04376537
     atom   32 type  2   force =     0.49243219    0.11519924   38.81541617
     atom   33 type  1   force =    -0.28089503    0.96361157   -0.86215381
     atom   34 type  2   force =    -0.79686282    1.72557944  -38.76935279
     atom   35 type  2   force =     0.11593320   -0.29731335   38.16028704
     atom   36 type  3   force =    -0.79504578    0.73982557  -45.66811183
     The core correction contribution to forces
     atom    1 type  1   force =     0.00000000    0.00000000    0.00000000
     atom    2 type  2   force =    -0.00024324    0.00015794    0.02065497
     atom    3 type  2   force =     0.00046938    0.00016970   -0.02048710
     atom    4 type  1   force =     0.00000000    0.00000000    0.00000000
     atom    5 type  2   force =    -0.00051213    0.00213657    0.02048774
     atom    6 type  2   force =     0.00027972   -0.00100467   -0.02083196
     atom    7 type  1   force =     0.00000000    0.00000000    0.00000000
     atom    8 type  2   force =    -0.00002396    0.00044099    0.02047017
     atom    9 type  2   force =     0.00009722    0.00053556   -0.02109320
     atom   10 type  1   force =     0.00000000    0.00000000    0.00000000
     atom   11 type  2   force =    -0.00078322   -0.00202347    0.01969982
     atom   12 type  2   force =     0.00115121    0.00143389   -0.02067912
     atom   13 type  1   force =     0.00000000    0.00000000    0.00000000
     atom   14 type  2   force =    -0.02171336    0.01165105    0.00185170
     atom   15 type  2   force =     0.00083164    0.00031861   -0.02058798
     atom   16 type  1   force =     0.00000000    0.00000000    0.00000000
     atom   17 type  2   force =    -0.00005285    0.00149880    0.02029061
     atom   18 type  2   force =     0.00017007   -0.00025010   -0.02123341
     atom   19 type  1   force =     0.00000000    0.00000000    0.00000000
     atom   20 type  2   force =     0.00031824    0.00104133   -0.02115494
     atom   21 type  1   force =     0.00000000    0.00000000    0.00000000
     atom   22 type  2   force =    -0.00014340   -0.00050810    0.02073008
     atom   23 type  2   force =    -0.00043297    0.00128898   -0.02081321
     atom   24 type  1   force =     0.00000000    0.00000000    0.00000000
     atom   25 type  2   force =     0.00011292   -0.00026565    0.02082114
     atom   26 type  2   force =    -0.00052983    0.00057175   -0.02085694
     atom   27 type  1   force =     0.00000000    0.00000000    0.00000000
     atom   28 type  2   force =     0.00024797    0.00159394    0.02109151
     atom   29 type  2   force =    -0.00058551   -0.00081853   -0.02042741
     atom   30 type  1   force =     0.00000000    0.00000000    0.00000000
     atom   31 type  2   force =     0.00043454    0.00011973    0.02066651
     atom   32 type  2   force =    -0.00026139    0.00053278   -0.02100861
     atom   33 type  1   force =     0.00000000    0.00000000    0.00000000
     atom   34 type  2   force =     0.00014028    0.00091615    0.02136086
     atom   35 type  2   force =    -0.00015409    0.00087571   -0.02101118
     atom   36 type  3   force =     0.01289325   -0.00832179    0.00600750
     The Hubbard contrib.    to forces
     atom    1 type  1   force =     0.00000000    0.00000000    0.00000000
     atom    2 type  2   force =     0.00000000    0.00000000    0.00000000
     atom    3 type  2   force =     0.00000000    0.00000000    0.00000000
     atom    4 type  1   force =     0.00000000    0.00000000    0.00000000
     atom    5 type  2   force =     0.00000000    0.00000000    0.00000000
     atom    6 type  2   force =     0.00000000    0.00000000    0.00000000
     atom    7 type  1   force =     0.00000000    0.00000000    0.00000000
     atom    8 type  2   force =     0.00000000    0.00000000    0.00000000
     atom    9 type  2   force =     0.00000000    0.00000000    0.00000000
     atom   10 type  1   force =     0.00000000    0.00000000    0.00000000
     atom   11 type  2   force =     0.00000000    0.00000000    0.00000000
     atom   12 type  2   force =     0.00000000    0.00000000    0.00000000
     atom   13 type  1   force =     0.00000000    0.00000000    0.00000000
     atom   14 type  2   force =     0.00000000    0.00000000    0.00000000
     atom   15 type  2   force =     0.00000000    0.00000000    0.00000000
     atom   16 type  1   force =     0.00000000    0.00000000    0.00000000
     atom   17 type  2   force =     0.00000000    0.00000000    0.00000000
     atom   18 type  2   force =     0.00000000    0.00000000    0.00000000
     atom   19 type  1   force =     0.00000000    0.00000000    0.00000000
     atom   20 type  2   force =     0.00000000    0.00000000    0.00000000
     atom   21 type  1   force =     0.00000000    0.00000000    0.00000000
     atom   22 type  2   force =     0.00000000    0.00000000    0.00000000
     atom   23 type  2   force =     0.00000000    0.00000000    0.00000000
     atom   24 type  1   force =     0.00000000    0.00000000    0.00000000
     atom   25 type  2   force =     0.00000000    0.00000000    0.00000000
     atom   26 type  2   force =     0.00000000    0.00000000    0.00000000
     atom   27 type  1   force =     0.00000000    0.00000000    0.00000000
     atom   28 type  2   force =     0.00000000    0.00000000    0.00000000
     atom   29 type  2   force =     0.00000000    0.00000000    0.00000000
     atom   30 type  1   force =     0.00000000    0.00000000    0.00000000
     atom   31 type  2   force =     0.00000000    0.00000000    0.00000000
     atom   32 type  2   force =     0.00000000    0.00000000    0.00000000
     atom   33 type  1   force =     0.00000000    0.00000000    0.00000000
     atom   34 type  2   force =     0.00000000    0.00000000    0.00000000
     atom   35 type  2   force =     0.00000000    0.00000000    0.00000000
     atom   36 type  3   force =     0.00000000    0.00000000    0.00000000
     The SCF correction term to forces
     atom    1 type  1   force =     0.00027243    0.00025710   -0.00105141
     atom    2 type  2   force =     0.00021604    0.00006864   -0.00060764
     atom    3 type  2   force =     0.00008343    0.00002548   -0.00013328
     atom    4 type  1   force =     0.00003074   -0.00013887   -0.00076181
     atom    5 type  2   force =     0.00001903    0.00012609   -0.00045688
     atom    6 type  2   force =     0.00003978    0.00001614   -0.00015276
     atom    7 type  1   force =     0.00002712   -0.00032062   -0.00087036
     atom    8 type  2   force =     0.00001972   -0.00012662   -0.00046403
     atom    9 type  2   force =    -0.00000896   -0.00005061   -0.00008281
     atom   10 type  1   force =     0.00023028    0.00010447   -0.00110717
     atom   11 type  2   force =     0.00010067   -0.00007418   -0.00064803
     atom   12 type  2   force =     0.00009812    0.00000238   -0.00014978
     atom   13 type  1   force =    -0.00013958    0.00015781   -0.00077646
     atom   14 type  2   force =    -0.00031640    0.00021014   -0.00041569
     atom   15 type  2   force =    -0.00001268    0.00007785   -0.00029950
     atom   16 type  1   force =     0.00000970    0.00003658   -0.00078223
     atom   17 type  2   force =    -0.00006534    0.00003578   -0.00033397
     atom   18 type  2   force =    -0.00002211   -0.00000416   -0.00016722
     atom   19 type  1   force =    -0.00006828   -0.00005234   -0.00076027
     atom   20 type  2   force =     0.00000546   -0.00007836   -0.00005734
     atom   21 type  1   force =    -0.00017695   -0.00007537   -0.00099540
     atom   22 type  2   force =    -0.00019515   -0.00003581   -0.00050771
     atom   23 type  2   force =    -0.00009380    0.00000812   -0.00007643
     atom   24 type  1   force =    -0.00004303    0.00013329   -0.00084665
     atom   25 type  2   force =    -0.00004208    0.00004879   -0.00033594
     atom   26 type  2   force =    -0.00005863    0.00003742   -0.00015930
     atom   27 type  1   force =    -0.00004195   -0.00015859   -0.00067404
     atom   28 type  2   force =     0.00004305   -0.00000372   -0.00039162
     atom   29 type  2   force =    -0.00001769   -0.00006080   -0.00013510
     atom   30 type  1   force =     0.00004043    0.00003696   -0.00083676
     atom   31 type  2   force =     0.00000724   -0.00009292   -0.00035197
     atom   32 type  2   force =     0.00000199   -0.00004301   -0.00012918
     atom   33 type  1   force =    -0.00007985    0.00002726   -0.00085101
     atom   34 type  2   force =     0.00010303    0.00001727   -0.00048994
     atom   35 type  2   force =    -0.00000642    0.00005244   -0.00005497
     atom   36 type  3   force =     0.00019816   -0.00007201   -0.00116471

     Total force =     0.210344     Total SCF correction =     0.003734
     Energy error            =      4.9E-02 Ry
     Gradient error          =      1.1E-01 Ry/Bohr

     number of scf cycles    =   2
     number of bfgs steps    =   1

     energy             old  =   -2246.1403437311 Ry
     energy             new  =   -2246.1892173450 Ry

     CASE: energy            _new < energy            _old


     WARNING: bfgs curvature condition failed, Theta= 0.915
     new trust radius        =       0.1605649608 bohr
     new conv_thr            =       0.0000001120 Ry


ATOMIC_POSITIONS (angstrom)
Mo            6.5877426424        1.7880886769        2.7999064645
S             8.2067707217        0.8466921484        4.4090042102
S             8.1830779164        0.8203745777        1.2732343019
Mo            8.0990562763        4.4983257916        2.7197516865
S             6.5000042462        3.7143311660        4.3429728447
S             6.5554751152        3.5241473929        1.1217950867
Mo            6.4987597012        7.1861162933        2.6593374136
S             8.0808201858        6.3436207225        4.2594994023
S             8.0942318728        6.3121952030        1.0936376746
Mo            8.1555595576        9.9145741581        2.8161806721
S             6.5053019498        8.9158966751        4.3562293009
S             6.6176550187        9.0490403275        1.1453253066
Mo            3.4158651831        1.7747446792        2.7563948296
S             5.0611569163        0.7596346834        4.3940110178
S             5.0432255319        0.8506108946        1.2146340796
Mo            4.9790083275        4.5172714742        2.6353388252
S             3.4323328519        3.6753998639        4.2824563451
S             3.4332436278        3.5376588387        1.0698905299
Mo            3.4533745937        7.2050937928        2.6276972271
S             4.9839464432        6.3224638942        1.0336868121
Mo            4.9838786806        9.8904902080        2.7056145961
S             3.4682136350        8.9416501184        4.3245377534
S             3.4058718273        9.0652683040        1.1033735619
Mo            0.3003986088        1.7471530343        2.8195441010
S             1.8574759875        0.8131936845        4.4023358711
S             1.8512228312        0.8528016567        1.2024105296
Mo            1.8600685966        4.4989198193        2.6681965032
S             0.2725895969        3.6512611763        4.3338540019
S             0.2346055720        3.5289459180        1.1665883056
Mo            0.2684146822        7.2259895332        2.7007865536
S             1.9032053697        6.3131387019        4.2391411210
S             1.8533544957        6.3178356709        1.0526325808
Mo            1.8624175671        9.9339288059        2.7653651076
S             0.2978597298        9.0464864926        4.4041229634
S             0.2706498157        9.0510990737        1.1623656686
O             6.2000180032        0.0465029586        5.2288943266



     Writing config-only to output data dir ./MoS2-V-O.save/
     NEW-OLD atomic charge density approx. for the potential

     negative rho (up, down):  1.434E-04 0.000E+00

     total cpu time spent up to now is      216.1 secs

     Self-consistent Calculation

     iteration #  1     ecut=    80.00 Ry     beta= 0.70
     Davidson diagonalization with overlap
     ethr =  1.00E-06,  avg # of iterations = 11.0

     negative rho (up, down):  1.488E-04 0.000E+00

     total cpu time spent up to now is      230.2 secs

     total energy              =   -2246.22785093 Ry
     estimated scf accuracy    <       0.01698758 Ry

     iteration #  2     ecut=    80.00 Ry     beta= 0.70
     Davidson diagonalization with overlap
     ethr =  5.44E-06,  avg # of iterations =  5.0

     negative rho (up, down):  1.993E-04 0.000E+00

     total cpu time spent up to now is      242.8 secs

     total energy              =   -2246.23117952 Ry
     estimated scf accuracy    <       0.00866097 Ry

     iteration #  3     ecut=    80.00 Ry     beta= 0.70
     Davidson diagonalization with overlap
     ethr =  2.78E-06,  avg # of iterations =  3.0

     negative rho (up, down):  2.248E-04 0.000E+00

     total cpu time spent up to now is      254.8 secs

     total energy              =   -2246.23191066 Ry
     estimated scf accuracy    <       0.00044692 Ry

     iteration #  4     ecut=    80.00 Ry     beta= 0.70
     Davidson diagonalization with overlap
     ethr =  1.43E-07,  avg # of iterations =  5.0

     negative rho (up, down):  2.440E-04 0.000E+00

     total cpu time spent up to now is      267.4 secs

     total energy              =   -2246.23196149 Ry
     estimated scf accuracy    <       0.00005545 Ry

     iteration #  5     ecut=    80.00 Ry     beta= 0.70
     Davidson diagonalization with overlap
     ethr =  1.78E-08,  avg # of iterations =  4.0

     negative rho (up, down):  2.609E-04 0.000E+00

     total cpu time spent up to now is      282.8 secs

     total energy              =   -2246.23196879 Ry
     estimated scf accuracy    <       0.00000957 Ry

     iteration #  6     ecut=    80.00 Ry     beta= 0.70
     Davidson diagonalization with overlap
     ethr =  3.07E-09,  avg # of iterations =  5.0

     negative rho (up, down):  2.678E-04 0.000E+00

     total cpu time spent up to now is      296.6 secs

     total energy              =   -2246.23197104 Ry
     estimated scf accuracy    <       0.00000215 Ry

     iteration #  7     ecut=    80.00 Ry     beta= 0.70
     Davidson diagonalization with overlap
     ethr =  6.89E-10,  avg # of iterations =  2.0

     negative rho (up, down):  2.721E-04 0.000E+00

     total cpu time spent up to now is      309.9 secs

     total energy              =   -2246.23197122 Ry
     estimated scf accuracy    <       0.00000042 Ry

     iteration #  8     ecut=    80.00 Ry     beta= 0.70
     Davidson diagonalization with overlap
     ethr =  1.35E-10,  avg # of iterations =  4.0

     negative rho (up, down):  2.131E-04 0.000E+00

     total cpu time spent up to now is      313.4 secs

     End of self-consistent calculation

          k = 0.0000 0.0000 0.0000 (105382 PWs)   bands (ev):

   -63.0912 -62.9492 -62.9109 -62.8805 -62.8703 -62.8565 -62.8401 -62.8325
   -62.8285 -62.8220 -62.8026 -62.7874 -37.3912 -37.3060 -37.2606 -37.2102
   -37.1981 -37.1887 -37.1531 -37.1397 -37.1258 -37.1148 -37.1073 -37.0884
   -37.0823 -37.0735 -37.0663 -37.0409 -37.0372 -37.0280 -37.0188 -37.0094
   -37.0047 -36.9978 -36.9866 -36.9857 -36.9799 -36.9632 -36.9559 -36.9541
   -36.9365 -36.9231 -36.9144 -36.8957 -36.8721 -36.8458 -36.8230 -36.7689
   -21.9257 -15.9783 -15.2750 -15.1436 -15.0471 -14.9646 -14.7490 -14.6194
   -14.5426 -14.5287 -14.4846 -14.4720 -14.4433 -14.3494 -14.2733 -14.2489
   -14.1839 -14.1650 -14.1528 -13.9519 -13.9366 -13.8916 -13.8483 -13.5725
    -8.2589  -7.8933  -7.6535  -7.5117  -7.3941  -7.3377  -7.3052  -7.2651
    -7.2061  -7.1214  -6.9084  -6.8713  -6.7856  -6.7569  -6.7220  -6.6355
    -6.5236  -6.4677  -6.3883  -6.3132  -6.2152  -6.0420  -5.9848  -5.9207
    -5.8682  -5.8531  -5.8113  -5.7473  -5.7344  -5.7038  -5.6673  -5.5781
    -5.5081  -5.4925  -5.4625  -5.3473  -5.2527  -5.1768  -5.1265  -5.0480
    -5.0275  -4.9842  -4.9117  -4.8226  -4.6267  -4.5931  -4.4339  -4.3650
    -4.3421  -4.3018  -4.1843  -4.1459  -4.0592  -4.0009  -3.8657  -3.7728
    -3.7656  -3.7482  -3.6756  -3.6093  -3.5845  -3.5703  -3.5450  -3.5344
    -3.4850  -3.4285  -3.3498  -3.2445  -3.0289  -2.9598  -2.8776  -2.8557
    -2.8339  -2.8110  -2.7533  -2.7245  -2.7070  -2.6222  -2.3637  -2.2830
    -2.1354  -2.0338  -1.8950  -1.8258  -1.2670  -0.8227  -0.8018  -0.2049
    -0.1769  -0.1499  -0.0328   0.0174   0.0621   0.1103   0.1903   0.2354
     0.2538   0.3260   0.3888   0.4723   0.4970   0.5086   0.5336   0.6043
     0.6132   0.6660   0.7094   0.7282   0.7868   0.8611   0.9011   0.9213
     0.9725   0.9896   1.2440

     the Fermi energy is    -1.5453 ev

!    total energy              =   -2246.23197145 Ry
     estimated scf accuracy    <       0.00000008 Ry
     smearing contrib. (-TS)   =      -0.00017424 Ry
     internal energy E=F+TS    =   -2246.23179721 Ry

     The total energy is F=E-TS. E is the sum of the following terms:
     one-electron contribution =  -18482.98720368 Ry
     hartree contribution      =    9229.82464108 Ry
     xc contribution           =    -392.14336473 Ry
     ewald contribution        =    7408.93577306 Ry
     one-center paw contrib.   =      -9.86164294 Ry

     convergence has been achieved in   8 iterations

     negative rho (up, down):  2.131E-04 0.000E+00

     Forces acting on atoms (cartesian axes, Ry/au):

     atom    1 type  1   force =     0.00197334   -0.00211654   -0.01372855
     atom    2 type  2   force =     0.01104776    0.01704748   -0.02263281
     atom    3 type  2   force =    -0.00603336    0.00599235   -0.01830814
     atom    4 type  1   force =     0.00375056    0.00242506    0.00083927
     atom    5 type  2   force =     0.00069238   -0.00679740   -0.00397250
     atom    6 type  2   force =     0.00203434    0.01249602   -0.00314215
     atom    7 type  1   force =     0.00169299   -0.00788965   -0.00202634
     atom    8 type  2   force =     0.00240898   -0.00461121    0.01067851
     atom    9 type  2   force =     0.01251190    0.00291197    0.00151967
     atom   10 type  1   force =     0.00118073    0.00700142    0.00156720
     atom   11 type  2   force =     0.00307939   -0.02054282   -0.03354690
     atom   12 type  2   force =    -0.00057731   -0.00413603   -0.00436156
     atom   13 type  1   force =     0.00729311    0.00297943    0.01792200
     atom   14 type  2   force =     0.05844783   -0.03663517   -0.02089860
     atom   15 type  2   force =    -0.01220773    0.00594715   -0.00925992
     atom   16 type  1   force =     0.00016548    0.00110274    0.00168461
     atom   17 type  2   force =     0.00332693    0.00426871    0.00275701
     atom   18 type  2   force =    -0.00476915   -0.00230834    0.00269386
     atom   19 type  1   force =    -0.00203005   -0.00690126    0.00410337
     atom   20 type  2   force =    -0.00030332   -0.00578261   -0.00640713
     atom   21 type  1   force =     0.00102160   -0.00441900   -0.00173566
     atom   22 type  2   force =     0.00082540   -0.00165909   -0.00485018
     atom   23 type  2   force =    -0.00818413   -0.00677256   -0.00776035
     atom   24 type  1   force =     0.00043511    0.00339423   -0.00494488
     atom   25 type  2   force =     0.00743985    0.01389232   -0.00995369
     atom   26 type  2   force =    -0.00008417   -0.00257051   -0.01138363
     atom   27 type  1   force =    -0.00049126    0.00237242    0.00634949
     atom   28 type  2   force =     0.00064986   -0.00327605   -0.00500347
     atom   29 type  2   force =     0.00331771    0.00515086   -0.00664428
     atom   30 type  1   force =    -0.00025728   -0.00270447    0.00610052
     atom   31 type  2   force =    -0.00059787    0.00034467    0.00839740
     atom   32 type  2   force =    -0.00686164    0.00464057    0.00482813
     atom   33 type  1   force =     0.00154257    0.00105894    0.00752277
     atom   34 type  2   force =    -0.00135694   -0.01995479   -0.01500232
     atom   35 type  2   force =    -0.00220744    0.00710812    0.00205934
     atom   36 type  3   force =    -0.07887618    0.03894305    0.12653989
     The non-local contrib.  to forces
     atom    1 type  1   force =    -0.01361904    0.02552388    0.00887820
     atom    2 type  2   force =    -0.00014243   -0.00705337   -0.26223341
     atom    3 type  2   force =    -0.00767989   -0.00569796    0.25566250
     atom    4 type  1   force =     0.00620854    0.00193015    0.00675222
     atom    5 type  2   force =     0.00522926   -0.03842561   -0.25769078
     atom    6 type  2   force =    -0.00156671    0.01128447    0.25981160
     atom    7 type  1   force =    -0.00602007    0.01640872   -0.02818814
     atom    8 type  2   force =     0.00368894   -0.00330111   -0.25835074
     atom    9 type  2   force =     0.00443972   -0.01213710    0.27363382
     atom   10 type  1   force =     0.00813840   -0.00239417   -0.00254908
     atom   11 type  2   force =     0.01253021    0.02553353   -0.25360167
     atom   12 type  2   force =    -0.01414931   -0.02195178    0.25951419
     atom   13 type  1   force =    -0.02600126    0.01223241   -0.02630793
     atom   14 type  2   force =     0.33241559   -0.18543441    0.09646877
     atom   15 type  2   force =    -0.01251401   -0.00612782    0.26314776
     atom   16 type  1   force =     0.00155693    0.03433023   -0.02479603
     atom   17 type  2   force =     0.00166045   -0.02483655   -0.24875076
     atom   18 type  2   force =    -0.00660605   -0.00114525    0.27309622
     atom   19 type  1   force =     0.01400707    0.00525867   -0.01767069
     atom   20 type  2   force =    -0.00484534   -0.02403715    0.26314024
     atom   21 type  1   force =    -0.00448523    0.03719405    0.03023310
     atom   22 type  2   force =     0.00139798    0.00199668   -0.26246072
     atom   23 type  2   force =     0.00030109   -0.02048526    0.25720077
     atom   24 type  1   force =    -0.01226542    0.00822512   -0.00471288
     atom   25 type  2   force =     0.00279775   -0.00180098   -0.26795350
     atom   26 type  2   force =     0.00855850   -0.01087571    0.26253013
     atom   27 type  1   force =    -0.00845106    0.01272384    0.00891496
     atom   28 type  2   force =    -0.00373139   -0.02162684   -0.27819083
     atom   29 type  2   force =     0.00619218    0.00612326    0.26232706
     atom   30 type  1   force =    -0.00162905    0.02198729    0.00819613
     atom   31 type  2   force =    -0.00857565    0.00064140   -0.25977811
     atom   32 type  2   force =     0.00018971   -0.01026950    0.27169271
     atom   33 type  1   force =    -0.00494567    0.00418854    0.00225483
     atom   34 type  2   force =     0.00209826   -0.01967731   -0.28184271
     atom   35 type  2   force =     0.00077521   -0.00928487    0.26673451
     atom   36 type  3   force =    -1.34430066    0.85765391   -0.83651809
     The ionic contribution  to forces
     atom    1 type  1   force =     0.14367167    2.72330888    0.65096461
     atom    2 type  2   force =     2.37034565    1.37083596   37.76615366
     atom    3 type  2   force =     0.12887271    0.08763282  -37.25339166
     atom    4 type  1   force =     0.50064885    1.01838883   -0.05276537
[...]
     atom   28 type  2   force =    -0.00008692   -0.01305376   -0.27942587
     atom   29 type  2   force =    -0.00023887   -0.00995004    0.27031217
     atom   30 type  1   force =     0.00005934    0.02073191    0.00457882
     atom   31 type  2   force =    -0.00389454   -0.00092106   -0.26766972
     atom   32 type  2   force =     0.00605765   -0.01386919    0.26882863
     atom   33 type  1   force =    -0.00194510    0.00668147    0.00213697
     atom   34 type  2   force =     0.00055234   -0.00608598   -0.27549556
     atom   35 type  2   force =     0.00024576   -0.01278543    0.26697918
     atom   36 type  3   force =    -0.02136545    0.05014898   -2.32329777
     The ionic contribution  to forces
     atom    1 type  1   force =     0.74263573    1.35016009   -1.57429486
     atom    2 type  2   force =     0.84173580    0.02064220   38.16521728
     atom    3 type  2   force =     0.12390550   -0.08395619  -38.34129500
     atom    4 type  1   force =     0.22934157    0.86460717   -0.43719366
     atom    5 type  2   force =    -0.38428988    2.16002025   37.78033168
     atom    6 type  2   force =     0.19320142   -0.15721022  -38.79091864
     atom    7 type  1   force =    -2.56790708   -2.44120713    1.34769630
     atom    8 type  2   force =    -1.07385333    0.11586516   38.06171793
     atom    9 type  2   force =     0.38093800   -0.02270162  -38.41252852
     atom   10 type  1   force =     0.15997899   -0.98076908    1.36641777
     atom   11 type  2   force =     0.09395149   -2.41521832   37.87226018
     atom   12 type  2   force =     0.26633389    0.21437167  -38.74792361
     atom   13 type  1   force =    -0.80290634    1.31798999   -1.53603255
     atom   14 type  2   force =    -0.07388762    0.04972516   28.36238706
     atom   15 type  2   force =    -0.03455364   -0.12613531  -38.17192961
     atom   16 type  1   force =     0.00683188    4.25875724    0.67889004
     atom   17 type  2   force =     0.38851338    2.13839828   37.79681369
     atom   18 type  2   force =    -0.20926311   -0.17528636  -38.80237754
     atom   19 type  1   force =     2.56692277   -2.43062006    1.98504185
     atom   20 type  2   force =    -0.03122535   -0.03343448  -38.96031612
     atom   21 type  1   force =    -0.04311123   -1.41899935   -3.01456624
     atom   22 type  2   force =    -0.11315216   -2.38199801   37.94079031
     atom   23 type  2   force =    -0.30582515    0.21147873  -38.64291227
     atom   24 type  1   force =     0.04388221    0.80340108    1.08642255
     atom   25 type  2   force =    -0.80340619    0.02451707   38.14245814
     atom   26 type  2   force =    -0.08858104   -0.10136349  -38.28650966
     atom   27 type  1   force =    -0.23666084    0.83902990   -0.30342912
     atom   28 type  2   force =     0.00296505    0.81721207   37.88335231
     atom   29 type  2   force =     0.02187584    0.01651951  -38.03514199
     atom   30 type  1   force =     0.03689542   -0.81078142    1.22685134
     atom   31 type  2   force =     1.03911133    0.12638902   38.14595205
     atom   32 type  2   force =    -0.35399527   -0.00677177  -38.32109306
     atom   33 type  1   force =    -0.09273018   -0.96874465    1.47903683
     atom   34 type  2   force =     0.00222037   -0.76260695   38.60016569
     atom   35 type  2   force =     0.03074867    0.03343169  -37.95620238
     atom   36 type  3   force =     0.04335908   -0.04471185   50.41286185
     The local contribution  to forces
     atom    1 type  1   force =    -0.73275904   -1.36376052    1.56105342
     atom    2 type  2   force =    -0.84132070   -0.01526292  -37.91347547
     atom    3 type  2   force =    -0.12138414    0.09389095   38.09835114
     atom    4 type  1   force =    -0.23543809   -0.87107028    0.43126979
     atom    5 type  2   force =     0.38127034   -2.13864531  -37.54304865
     atom    6 type  2   force =    -0.19386622    0.15999957   38.54678960
     atom    7 type  1   force =     2.57704093    2.44010156   -1.32407018
     atom    8 type  2   force =     1.06888416   -0.11610159  -37.81495654
     atom    9 type  2   force =    -0.37449473    0.03514154   38.16476418
     atom   10 type  1   force =    -0.16184689    0.97398023   -1.36879121
     atom   11 type  2   force =    -0.10055439    2.41585327  -37.62873050
     atom   12 type  2   force =    -0.25797666   -0.20097329   38.50490623
     atom   13 type  1   force =     0.79236340   -1.33175852    1.52259536
     atom   14 type  2   force =     0.07355686   -0.03874792  -28.64923263
     atom   15 type  2   force =     0.03433840    0.13669856   37.91930916
     atom   16 type  1   force =    -0.00670398   -4.28798185   -0.64519042
     atom   17 type  2   force =    -0.38530729   -2.11692732  -37.55961118
     atom   18 type  2   force =     0.20993469    0.17824209   38.55875301
     atom   19 type  1   force =    -2.57692469    2.43034069   -1.96113559
     atom   20 type  2   force =     0.03049827    0.04657283   38.71623279
     atom   21 type  1   force =     0.04286606    1.38201680    2.99738413
     atom   22 type  2   force =     0.11978115    2.38299714  -37.69760977
     atom   23 type  2   force =     0.29703084   -0.19811849   38.39941322
     atom   24 type  1   force =    -0.04249018   -0.82161304   -1.09520787
     atom   25 type  2   force =     0.80249525   -0.01928019  -37.89016108
     atom   26 type  2   force =     0.08653499    0.11089648   38.04298617
     atom   27 type  1   force =     0.24237102   -0.84599144    0.29776882
     atom   28 type  2   force =    -0.00317473   -0.80425927  -37.62576896
     atom   29 type  2   force =    -0.02192411   -0.00659658   37.78560791
     atom   30 type  1   force =    -0.03697118    0.79025915   -1.23079431
     atom   31 type  2   force =    -1.03484960   -0.12692493  -37.89981424
     atom   32 type  2   force =     0.34814991    0.01946801   38.07335825
     atom   33 type  1   force =     0.09460855    0.96230806   -1.48123935
     atom   34 type  2   force =    -0.00243858    0.76934693  -38.34558932
     atom   35 type  2   force =    -0.03030398   -0.02112698   37.71027430
     atom   36 type  3   force =    -0.02334747   -0.00435310  -48.11561967
     The core correction contribution to forces
     atom    1 type  1   force =     0.00000000    0.00000000    0.00000000
     atom    2 type  2   force =    -0.00005972    0.00016500    0.02133641
     atom    3 type  2   force =     0.00015574    0.00037022   -0.02077153
     atom    4 type  1   force =     0.00000000    0.00000000    0.00000000
     atom    5 type  2   force =    -0.00035100    0.00098731    0.02069319
     atom    6 type  2   force =     0.00008365   -0.00027561   -0.02081926
     atom    7 type  1   force =     0.00000000    0.00000000    0.00000000
     atom    8 type  2   force =    -0.00027953    0.00032828    0.02097248
     atom    9 type  2   force =     0.00065510    0.00065430   -0.02099441
     atom   10 type  1   force =     0.00000000    0.00000000    0.00000000
     atom   11 type  2   force =    -0.00012570   -0.00020814    0.02102150
     atom   12 type  2   force =     0.00075372    0.00103828   -0.02084648
     atom   13 type  1   force =     0.00000000    0.00000000    0.00000000
     atom   14 type  2   force =    -0.00012755    0.00035994   -0.00997547
     atom   15 type  2   force =     0.00001254    0.00051513   -0.02113107
     atom   16 type  1   force =     0.00000000    0.00000000    0.00000000
     atom   17 type  2   force =     0.00039044    0.00099945    0.02069742
     atom   18 type  2   force =    -0.00008796   -0.00021409   -0.02085472
     atom   19 type  1   force =     0.00000000    0.00000000    0.00000000
     atom   20 type  2   force =    -0.00004301    0.00064687   -0.02126289
     atom   21 type  1   force =     0.00000000    0.00000000    0.00000000
     atom   22 type  2   force =     0.00016082   -0.00013053    0.02103556
     atom   23 type  2   force =    -0.00078258    0.00093070   -0.02083735
     atom   24 type  1   force =     0.00000000    0.00000000    0.00000000
     atom   25 type  2   force =    -0.00003159    0.00019181    0.02131439
     atom   26 type  2   force =    -0.00016776    0.00038304   -0.02077288
     atom   27 type  1   force =     0.00000000    0.00000000    0.00000000
     atom   28 type  2   force =     0.00001070    0.00082449    0.02136581
     atom   29 type  2   force =     0.00003400    0.00028632   -0.02088722
     atom   30 type  1   force =     0.00000000    0.00000000    0.00000000
     atom   31 type  2   force =     0.00018691    0.00030117    0.02100649
     atom   32 type  2   force =    -0.00058744    0.00073765   -0.02098969
     atom   33 type  1   force =     0.00000000    0.00000000    0.00000000
     atom   34 type  2   force =    -0.00003150    0.00020794    0.02129033
     atom   35 type  2   force =    -0.00000094    0.00074848   -0.02092611
     atom   36 type  3   force =     0.00023242   -0.00055224    0.02465125
     The Hubbard contrib.    to forces
     atom    1 type  1   force =     0.00000000    0.00000000    0.00000000
     atom    2 type  2   force =     0.00000000    0.00000000    0.00000000
     atom    3 type  2   force =     0.00000000    0.00000000    0.00000000
     atom    4 type  1   force =     0.00000000    0.00000000    0.00000000
     atom    5 type  2   force =     0.00000000    0.00000000    0.00000000
     atom    6 type  2   force =     0.00000000    0.00000000    0.00000000
     atom    7 type  1   force =     0.00000000    0.00000000    0.00000000
     atom    8 type  2   force =     0.00000000    0.00000000    0.00000000
     atom    9 type  2   force =     0.00000000    0.00000000    0.00000000
     atom   10 type  1   force =     0.00000000    0.00000000    0.00000000
     atom   11 type  2   force =     0.00000000    0.00000000    0.00000000
     atom   12 type  2   force =     0.00000000    0.00000000    0.00000000
     atom   13 type  1   force =     0.00000000    0.00000000    0.00000000
     atom   14 type  2   force =     0.00000000    0.00000000    0.00000000
     atom   15 type  2   force =     0.00000000    0.00000000    0.00000000
     atom   16 type  1   force =     0.00000000    0.00000000    0.00000000
     atom   17 type  2   force =     0.00000000    0.00000000    0.00000000
     atom   18 type  2   force =     0.00000000    0.00000000    0.00000000
     atom   19 type  1   force =     0.00000000    0.00000000    0.00000000
     atom   20 type  2   force =     0.00000000    0.00000000    0.00000000
     atom   21 type  1   force =     0.00000000    0.00000000    0.00000000
     atom   22 type  2   force =     0.00000000    0.00000000    0.00000000
     atom   23 type  2   force =     0.00000000    0.00000000    0.00000000
     atom   24 type  1   force =     0.00000000    0.00000000    0.00000000
     atom   25 type  2   force =     0.00000000    0.00000000    0.00000000
     atom   26 type  2   force =     0.00000000    0.00000000    0.00000000
     atom   27 type  1   force =     0.00000000    0.00000000    0.00000000
     atom   28 type  2   force =     0.00000000    0.00000000    0.00000000
     atom   29 type  2   force =     0.00000000    0.00000000    0.00000000
     atom   30 type  1   force =     0.00000000    0.00000000    0.00000000
     atom   31 type  2   force =     0.00000000    0.00000000    0.00000000
     atom   32 type  2   force =     0.00000000    0.00000000    0.00000000
     atom   33 type  1   force =     0.00000000    0.00000000    0.00000000
     atom   34 type  2   force =     0.00000000    0.00000000    0.00000000
     atom   35 type  2   force =     0.00000000    0.00000000    0.00000000
     atom   36 type  3   force =     0.00000000    0.00000000    0.00000000
     The SCF correction term to forces
     atom    1 type  1   force =     0.00002341    0.00000810   -0.00005944
     atom    2 type  2   force =    -0.00000310   -0.00000992   -0.00002345
     atom    3 type  2   force =    -0.00000475   -0.00001083   -0.00000723
     atom    4 type  1   force =    -0.00000368    0.00002564   -0.00004944
     atom    5 type  2   force =     0.00000900    0.00000961   -0.00003229
     atom    6 type  2   force =     0.00000967    0.00001065   -0.00000609
     atom    7 type  1   force =     0.00001749    0.00000674   -0.00006157
     atom    8 type  2   force =     0.00000231    0.00000068   -0.00002782
     atom    9 type  2   force =    -0.00000375    0.00000527   -0.00002019
     atom   10 type  1   force =    -0.00000098   -0.00002576   -0.00005477
     atom   11 type  2   force =     0.00000304   -0.00000204   -0.00002057
     atom   12 type  2   force =     0.00000710   -0.00000516   -0.00001336
     atom   13 type  1   force =    -0.00000910   -0.00000070   -0.00005497
     atom   14 type  2   force =     0.00001448   -0.00001273   -0.00003498
     atom   15 type  2   force =     0.00000968   -0.00000468   -0.00001057
     atom   16 type  1   force =    -0.00000154    0.00004520   -0.00004475
     atom   17 type  2   force =    -0.00000426    0.00002128   -0.00003366
     atom   18 type  2   force =    -0.00000103    0.00001874   -0.00000049
     atom   19 type  1   force =     0.00000282   -0.00000554   -0.00004291
     atom   20 type  2   force =    -0.00000419    0.00000864   -0.00000255
     atom   21 type  1   force =     0.00002304   -0.00005330   -0.00005459
     atom   22 type  2   force =    -0.00000241   -0.00001847   -0.00002836
     atom   23 type  2   force =    -0.00000355   -0.00001594    0.00000135
     atom   24 type  1   force =    -0.00002075    0.00000331   -0.00004387
     atom   25 type  2   force =    -0.00001073   -0.00000991   -0.00002217
     atom   26 type  2   force =    -0.00000315   -0.00000928   -0.00000828
     atom   27 type  1   force =    -0.00001073    0.00004382   -0.00004262
     atom   28 type  2   force =     0.00000116    0.00001297   -0.00002343
     atom   29 type  2   force =    -0.00000698    0.00002141   -0.00000672
     atom   30 type  1   force =     0.00001767   -0.00000471   -0.00005251
     atom   31 type  2   force =     0.00000290    0.00000302   -0.00003297
     atom   32 type  2   force =    -0.00000090    0.00000541   -0.00000117
     atom   33 type  1   force =    -0.00001731   -0.00004759   -0.00005255
     atom   34 type  2   force =    -0.00000035   -0.00000137   -0.00002572
     atom   35 type  2   force =    -0.00000824   -0.00001483   -0.00001008
     atom   36 type  3   force =     0.00003953   -0.00004794   -0.00000842

     Total force =     0.005885     Total SCF correction =     0.000251
     Energy error            =      7.9E-05 Ry
     Gradient error          =      1.8E-03 Ry/Bohr

     bfgs converged in  26 scf cycles and  25 bfgs steps
     (criteria: energy <  1.0E-04 Ry, force <  1.0E-02 Ry/Bohr)

     End of BFGS Geometry Optimization

     Final energy             =   -2246.4492168767 Ry

     File ./MoS2-V-O.bfgs deleted, as requested
Begin final coordinates

ATOMIC_POSITIONS (angstrom)
Mo            6.6224993576        1.7529167585        2.7373371170
S             8.1634557054        0.8316155071        4.3599441531
S             8.1874888464        0.8138402135        1.1589489829
Mo            8.1589484884        4.4760475558        2.7063391733
S             6.5645224098        3.6451301237        4.3080573650
S             6.5934641346        3.5577648161        1.0962021313
Mo            6.5642474414        7.1654270954        2.6583512355
S             8.1222696054        6.2860376363        4.2942091714
S             8.1832335086        6.3011974987        1.1040278907
Mo            8.1735541990        9.9164311709        2.7602664608
S             6.5585231896        8.9252060243        4.3157860788
S             6.6422182313        9.0026592169        1.1062459489
Mo            3.4390206978        1.7548985884        2.7385043068
S             5.0294705970        0.7959966516        4.2396987984
S             5.0307611688        0.8209353397        1.1710802422
Mo            5.0326813325        4.5160868424        2.6539132024
S             3.5022007405        3.6466873131        4.3091432521
S             3.4704946440        3.5619487335        1.0942924432
Mo            3.5039787742        7.1632798422        2.6696342220
S             5.0318099373        6.2993505147        1.0453934205
Mo            5.0315329426        9.8530395126        2.7075711518
S             3.5077046471        8.9290066411        4.3230554722
S             3.4216367058        8.9958224408        1.1142886275
Mo            0.3001659182        1.7158623745        2.7611113993
S             1.8927935086        0.8342020212        4.3586222260
S             1.8714095769        0.8147511713        1.1616602906
Mo            1.9067185936        4.4778760163        2.7092474197
S             0.3034923343        3.5858840694        4.3121589420
S             0.3058497042        3.5378185347        1.1446933448
Mo            0.3032625517        7.1934984402        2.7325149602
S             1.9375700312        6.2857673355        4.3028664223
S             1.8859045476        6.3055824722        1.1110293420
Mo            1.8885977057        9.9155277676        2.7629105913
S             0.3012601875        9.0051394167        4.3560006781
S             0.3025483747        9.0274915977        1.1670317012
O             5.0415633392        0.7702191559        5.7386094108
End final coordinates



     Writing all to output data dir ./MoS2-V-O.save/
 
     init_run     :      4.63s CPU      4.94s WALL (       1 calls)
     electrons    :   2400.76s CPU   2640.23s WALL (      26 calls)
     update_pot   :     76.14s CPU     79.65s WALL (      25 calls)
     forces       :     70.70s CPU     76.21s WALL (      26 calls)

     Called by init_run:
     wfcinit      :      0.50s CPU      0.55s WALL (       1 calls)
     potinit      :      2.34s CPU      2.51s WALL (       1 calls)
     hinit0       :      0.48s CPU      0.49s WALL (       1 calls)

     Called by electrons:
     c_bands      :    358.68s CPU    364.94s WALL (     242 calls)
     sum_band     :    149.73s CPU    166.75s WALL (     242 calls)
     v_of_rho     :    226.53s CPU    259.51s WALL (     260 calls)
     newd         :     77.66s CPU     91.90s WALL (     260 calls)
     PAW_pot      :     10.34s CPU     10.37s WALL (     285 calls)
     mix_rho      :   1603.64s CPU   1771.39s WALL (     242 calls)

     Called by c_bands:
     init_us_2    :      5.82s CPU      6.05s WALL (     510 calls)
     init_us_2:cp :      5.82s CPU      6.04s WALL (     510 calls)
     regterg      :    341.25s CPU    347.26s WALL (     242 calls)

     Called by *egterg:
     rdiaghg      :     22.49s CPU     22.65s WALL (    1288 calls)
     h_psi        :    225.54s CPU    227.26s WALL (    1322 calls)
     s_psi        :     20.34s CPU     20.40s WALL (    1322 calls)
     g_psi        :      1.07s CPU      1.09s WALL (    1079 calls)

     Called by h_psi:
     h_psi:calbec :     22.49s CPU     22.59s WALL (    1322 calls)
     vloc_psi     :    180.32s CPU    181.84s WALL (    1322 calls)
     add_vuspsi   :     19.91s CPU     20.00s WALL (    1322 calls)

     General routines
     calbec       :     32.69s CPU     32.83s WALL (    1693 calls)
     fft          :    155.05s CPU    179.04s WALL (   17375 calls)
     ffts         :    718.34s CPU    879.87s WALL (  390786 calls)
     fftw         :    103.37s CPU    104.14s WALL (  148314 calls)
     interpolate  :      3.25s CPU      3.70s WALL (     260 calls)
 
     Parallel routines
 
     PWSCF        :  42m43.27s CPU  46m55.01s WALL

 
   This run was terminated on:  20:56:35   1Nov2023            

=------------------------------------------------------------------------------=
   JOB DONE.
=------------------------------------------------------------------------------=
