
     Program PWSCF v.7.2 starts on  1Nov2023 at 16: 3:17 

     This program is part of the open-source Quantum ESPRESSO suite
     for quantum simulation of materials; please cite
         "P. Giannozzi et al., J. Phys.:Condens. Matter 21 395502 (2009);
         "P. Giannozzi et al., J. Phys.:Condens. Matter 29 465901 (2017);
         "P. Giannozzi et al., J. Chem. Phys. 152 154105 (2020);
          URL http://www.quantum-espresso.org", 
     in publications or presentations arising from this work. More details at
     http://www.quantum-espresso.org/quote

     Parallel version (MPI & OpenMP), running on      48 processor cores
     Number of MPI processes:                48
     Threads/MPI process:                     1

     MPI processes distributed on     1 nodes
     46307 MiB available memory on the printing compute node when the environment starts
 
     Waiting for input...
     Reading input from standard input
Warning: card &CELL ignored
Warning: card CELL_DYNAMICS = 'BFGS', ignored
Warning: card CELL_DOFREE = '2DXY' ignored
Warning: card / ignored

     Current dimensions of program PWSCF are:
     Max number of different atomic species (ntypx) = 10
     Max number of k-points (npk) =  40000
     Max angular momentum in pseudopotentials (lmaxx) =  4
     file O.pbe-n-kjpaw_psl.0.1.UPF: wavefunction(s)  2P renormalized

     IMPORTANT: XC functional enforced from input :
     Exchange-correlation= RVV10
                           (   1   4  13   4  26   0   0)
     Any further DFT definition will be discarded
     Please, verify this is what you really want


     gamma-point specific algorithms are used
     signal trapping enabled: kill the code with -SIGUSR1 to stop cleanly the simulation 
 
     R & G space division:  proc/nbgrp/npool/nimage =      48
     Subspace diagonalization in iterative solution of the eigenvalue problem:
     one sub-group per band group will be used
     scalapack distributed-memory algorithm (size of sub-group:  2*  2 procs)

 
     Parallelization info
     --------------------
     sticks:   dense  smooth     PW     G-vecs:    dense   smooth      PW
     Min         396     194     47               101632    35090    4376
     Max         398     196     50               101674    35128    4410
     Sum       19091    9389   2349              4879585  1685513  210763
 
     Using Slab Decomposition
 


     bravais-lattice index     =            0
     lattice parameter (alat)  =      17.8707  a.u.
     unit-cell volume          =   17436.2743 (a.u.)^3
     number of atoms/cell      =           36
     number of atomic types    =            3
     number of electrons       =       312.00
     number of Kohn-Sham states=          187
     kinetic-energy cutoff     =      80.0000  Ry
     charge density cutoff     =     650.0000  Ry
     scf convergence threshold =      1.0E-06
     mixing beta               =       0.7000
     number of iterations used =            8  local-TF  mixing
     energy convergence thresh.=      1.0E-04
     force convergence thresh. =      1.0E-02
     Exchange-correlation= RVV10
                           (   1   4  13   4  26   0   0)
     nstep                     =          200


     celldm(1)=  17.870686  celldm(2)=   0.000000  celldm(3)=   0.000000
     celldm(4)=   0.000000  celldm(5)=   0.000000  celldm(6)=   0.000000

     crystal axes: (cart. coord. in units of alat)
               a(1) = (   1.000000   0.000000   0.000000 )  
               a(2) = (   0.000000   1.155671   0.000000 )  
               a(3) = (   0.000000   0.000000   2.643601 )  

     reciprocal axes: (cart. coord. in units 2 pi/alat)
               b(1) = (  1.000000  0.000000  0.000000 )  
               b(2) = (  0.000000  0.865298  0.000000 )  
               b(3) = (  0.000000  0.000000  0.378272 )  


     PseudoPot. # 1 for Mo read from file:
     ../pseudo/Mo_ONCV_PBE-1.0.oncvpsp.upf
     MD5 check sum: 1b5d28e075c9ccadda658a603575cd1f
     Pseudo is Norm-conserving, Zval = 14.0
     Generated using ONCVPSP code by D. R. Hamann
     Using radial grid of 1526 points,  6 beta functions with: 
                l(1) =   0
                l(2) =   0
                l(3) =   1
                l(4) =   1
                l(5) =   2
                l(6) =   2

     PseudoPot. # 2 for S  read from file:
     ../pseudo/s_pbe_v1.4.uspp.F.UPF
     MD5 check sum: 88d86576ff6df21479756cfb9bdac1df
     Pseudo is Ultrasoft + core correction, Zval =  6.0
     Generated by new atomic code, or converted to UPF format
     Using radial grid of  907 points,  6 beta functions with: 
                l(1) =   0
                l(2) =   0
                l(3) =   1
                l(4) =   1
                l(5) =   2
                l(6) =   2
     Q(r) pseudized with  8 coefficients,  rinner =    1.300   1.300   1.300
                                                       1.300   1.300

     PseudoPot. # 3 for O  read from file:
     ../pseudo/O.pbe-n-kjpaw_psl.0.1.UPF
     MD5 check sum: 0234752ac141de4415c5fc33072bef88
     Pseudo is Projector augmented-wave + core cor, Zval =  6.0
     Generated using "atomic" code by A. Dal Corso  v.5.0.99 svn rev. 10869
     Shape of augmentation charge: BESSEL
     Using radial grid of 1095 points,  4 beta functions with: 
                l(1) =   0
                l(2) =   0
                l(3) =   1
                l(4) =   1
     Q(r) pseudized with 0 coefficients 


     atomic species   valence    mass     pseudopotential
        Mo            14.00    95.94000     Mo( 1.00)
        S              6.00    32.06500     S ( 1.00)
        O              6.00    15.99940     O ( 1.00)

     No symmetry found



   Cartesian axes

     site n.     atom                  positions (alat units)
         1           Mo  tau(   1) = (   0.6952221   0.1890506   0.2985846  )
         2           S   tau(   2) = (   0.8646417   0.0856217   0.4689279  )
         3           S   tau(   3) = (   0.8663890   0.0857843   0.1351291  )
         4           Mo  tau(   4) = (   0.8560186   0.4753274   0.2873942  )
         5           S   tau(   5) = (   0.6873294   0.3936244   0.4596353  )
         6           S   tau(   6) = (   0.6929804   0.3713468   0.1185692  )
         7           Mo  tau(   7) = (   0.6862796   0.7633098   0.2825370  )
         8           S   tau(   8) = (   0.8545980   0.6708292   0.4486168  )
         9           S   tau(   9) = (   0.8545123   0.6666874   0.1146125  )
        10           Mo  tau(  10) = (   0.8629403   1.0471007   0.3006803  )
        11           S   tau(  11) = (   0.6868280   0.9456650   0.4634891  )
        12           S   tau(  12) = (   0.6998113   0.9568511   0.1205389  )
        13           Mo  tau(  13) = (   0.3618216   0.1847309   0.2935964  )
        14           S   tau(  14) = (   0.5260962   0.0863870   0.4600448  )
        15           S   tau(  15) = (   0.5348379   0.0894875   0.1297123  )
        16           Mo  tau(  16) = (   0.5265817   0.4772436   0.2784130  )
        17           S   tau(  17) = (   0.3624753   0.3882513   0.4525556  )
        18           S   tau(  18) = (   0.3635411   0.3752055   0.1119148  )
        19           Mo  tau(  19) = (   0.3652268   0.7630864   0.2781795  )
        20           S   tau(  20) = (   0.5269494   0.6690381   0.1096838  )
        21           Mo  tau(  21) = (   0.5300192   1.0470394   0.2900995  )
        22           S   tau(  22) = (   0.3670346   0.9457522   0.4574073  )
        23           S   tau(  23) = (   0.3604225   0.9585725   0.1159032  )
        24           Mo  tau(  24) = (   0.0313099   0.1847895   0.3013130  )
        25           S   tau(  25) = (   0.1956761   0.0838230   0.4650863  )
        26           S   tau(  26) = (   0.1967693   0.0903508   0.1278874  )
        27           Mo  tau(  27) = (   0.1967578   0.4753919   0.2813011  )
        28           S   tau(  28) = (   0.0287851   0.3864324   0.4586755  )
        29           S   tau(  29) = (   0.0244514   0.3729871   0.1239344  )
        30           Mo  tau(  30) = (   0.0286728   0.7631204   0.2856894  )
        31           S   tau(  31) = (   0.2011512   0.6675435   0.4465001  )
        32           S   tau(  32) = (   0.1969214   0.6672839   0.1104564  )
        33           Mo  tau(  33) = (   0.1950294   1.0511147   0.2932237  )
        34           S   tau(  34) = (   0.0312912   0.9612169   0.4667423  )
        35           S   tau(  35) = (   0.0292670   0.9563028   0.1216485  )
        36           O   tau(  36) = (   0.0000000   0.5136314   0.5650415  )

     number of k points=     1  Gaussian smearing, width (Ry)=  0.0100
                       cart. coord. in units 2pi/alat
        k(    1) = (   0.0000000   0.0000000   0.0000000), wk =   2.0000000

     Dense  grid:  2439793 G-vectors     FFT dimensions: ( 150, 180, 384)

     Smooth grid:   842757 G-vectors     FFT dimensions: ( 108, 120, 270)

     Estimated max dynamical RAM per process >     269.22 MB

     Estimated total dynamical RAM >      12.62 GB

     Initial potential from superposition of free atoms

     starting charge     311.9873, renormalised to     312.0000

     negative rho (up, down):  2.745E-04 0.000E+00


---------------------------------------------------------------------------------
Carrying out rVV10 run using the following parameters:
Nqs =      20    Nr_points =    1024   r_max =   100.000
b_value =  6.30000    beta =  0.00901
     q_mesh =  0.00010000  0.00030000  0.00058939  0.00100810
               0.00161396  0.00249058  0.00375900  0.00559430
               0.00824984  0.01209221  0.01765183  0.02569619
               0.03733578  0.05417739  0.07854596  0.11380545
               0.16482331  0.23864234  0.34545298  0.50000000

Gradients computed in Reciprocal space

---------------------------------------------------------------------------------


     Starting wfcs are  216 randomized atomic wfcs
     Checking if some PAW data can be deallocated... 

     total cpu time spent up to now is        5.3 secs

     Self-consistent Calculation

     iteration #  1     ecut=    80.00 Ry     beta= 0.70
     Davidson diagonalization with overlap
     ethr =  1.00E-02,  avg # of iterations =  2.0

     Threshold (ethr) on eigenvalues was too large:
     Diagonalizing with lowered threshold

     Davidson diagonalization with overlap
     ethr =  4.45E-04,  avg # of iterations =  4.0

     negative rho (up, down):  2.997E-08 0.000E+00

     total cpu time spent up to now is       20.7 secs

     total energy              =   -2246.27146230 Ry
     estimated scf accuracy    <       1.63635802 Ry

     iteration #  2     ecut=    80.00 Ry     beta= 0.70
     Davidson diagonalization with overlap
     ethr =  5.24E-04,  avg # of iterations =  3.0

     total cpu time spent up to now is       25.2 secs

     total energy              =   -2246.26882650 Ry
     estimated scf accuracy    <       0.57902870 Ry

     iteration #  3     ecut=    80.00 Ry     beta= 0.70
     Davidson diagonalization with overlap
     ethr =  1.86E-04,  avg # of iterations =  2.0

     total cpu time spent up to now is       29.1 secs

     total energy              =   -2246.26984981 Ry
     estimated scf accuracy    <       0.14884166 Ry

     iteration #  4     ecut=    80.00 Ry     beta= 0.70
     Davidson diagonalization with overlap
     ethr =  4.77E-05,  avg # of iterations = 19.0

     total cpu time spent up to now is       34.1 secs

     total energy              =   -2246.29691796 Ry
     estimated scf accuracy    <       0.02572034 Ry

     iteration #  5     ecut=    80.00 Ry     beta= 0.70
     Davidson diagonalization with overlap
     ethr =  8.24E-06,  avg # of iterations = 10.0

     total cpu time spent up to now is       38.2 secs

     total energy              =   -2246.29681939 Ry
     estimated scf accuracy    <       0.01526377 Ry

     iteration #  6     ecut=    80.00 Ry     beta= 0.70
     Davidson diagonalization with overlap
     ethr =  4.89E-06,  avg # of iterations =  2.0

     total cpu time spent up to now is       41.8 secs

     total energy              =   -2246.29605419 Ry
     estimated scf accuracy    <       0.00991619 Ry

     iteration #  7     ecut=    80.00 Ry     beta= 0.70
     Davidson diagonalization with overlap
     ethr =  3.18E-06,  avg # of iterations =  2.0

     negative rho (up, down):  1.812E-05 0.000E+00

     total cpu time spent up to now is       48.0 secs

     total energy              =   -2246.29495725 Ry
     estimated scf accuracy    <       0.00584252 Ry

     iteration #  8     ecut=    80.00 Ry     beta= 0.70
     Davidson diagonalization with overlap
     ethr =  1.87E-06,  avg # of iterations =  9.0

     negative rho (up, down):  9.621E-03 0.000E+00

     total cpu time spent up to now is       54.4 secs

     total energy              =   -2246.29441601 Ry
     estimated scf accuracy    <       0.00316430 Ry

     iteration #  9     ecut=    80.00 Ry     beta= 0.70
     Davidson diagonalization with overlap
     ethr =  1.01E-06,  avg # of iterations =  2.0

     negative rho (up, down):  2.278E-02 0.000E+00

     total cpu time spent up to now is       60.3 secs

     total energy              =   -2246.29426865 Ry
     estimated scf accuracy    <       0.00171870 Ry

     iteration # 10     ecut=    80.00 Ry     beta= 0.70
     Davidson diagonalization with overlap
     ethr =  5.51E-07,  avg # of iterations =  2.0

     negative rho (up, down):  2.388E-02 0.000E+00

     total cpu time spent up to now is       67.2 secs

     total energy              =   -2246.29433116 Ry
     estimated scf accuracy    <       0.00070991 Ry

     iteration # 11     ecut=    80.00 Ry     beta= 0.70
     Davidson diagonalization with overlap
     ethr =  2.28E-07,  avg # of iterations =  2.0

     negative rho (up, down):  1.187E-02 0.000E+00

     total cpu time spent up to now is       74.5 secs

     total energy              =   -2246.29429727 Ry
     estimated scf accuracy    <       0.00013146 Ry

     iteration # 12     ecut=    80.00 Ry     beta= 0.70
     Davidson diagonalization with overlap
     ethr =  4.21E-08,  avg # of iterations =  5.0

     negative rho (up, down):  3.612E-03 0.000E+00

     total cpu time spent up to now is       83.0 secs

     total energy              =   -2246.29434689 Ry
     estimated scf accuracy    <       0.00003941 Ry

     iteration # 13     ecut=    80.00 Ry     beta= 0.70
     Davidson diagonalization with overlap
     ethr =  1.26E-08,  avg # of iterations =  2.0

     negative rho (up, down):  7.626E-04 0.000E+00

     total cpu time spent up to now is       90.9 secs

     total energy              =   -2246.29436323 Ry
     estimated scf accuracy    <       0.00000822 Ry

     iteration # 14     ecut=    80.00 Ry     beta= 0.70
     Davidson diagonalization with overlap
     ethr =  2.63E-09,  avg # of iterations =  4.0

     negative rho (up, down):  3.739E-04 0.000E+00

     total cpu time spent up to now is      100.5 secs

     total energy              =   -2246.29436517 Ry
     estimated scf accuracy    <       0.00000199 Ry

     iteration # 15     ecut=    80.00 Ry     beta= 0.70
     Davidson diagonalization with overlap
     ethr =  6.37E-10,  avg # of iterations =  5.0

     negative rho (up, down):  2.054E-04 0.000E+00

     total cpu time spent up to now is      104.3 secs

     End of self-consistent calculation

          k = 0.0000 0.0000 0.0000 (105382 PWs)   bands (ev):

   -63.0375 -62.9619 -62.9451 -62.9340 -62.9288 -62.9190 -62.8817 -62.8687
   -62.8554 -62.8420 -62.8244 -62.8162 -37.3431 -37.2810 -37.2439 -37.2419
   -37.2348 -37.2178 -37.1924 -37.1637 -37.1573 -37.1460 -37.1409 -37.1280
   -37.1208 -37.1112 -37.1082 -37.0997 -37.0949 -37.0882 -37.0576 -37.0423
   -37.0284 -37.0207 -37.0091 -37.0051 -37.0007 -36.9913 -36.9878 -36.9816
   -36.9643 -36.9629 -36.9542 -36.9305 -36.9168 -36.8780 -36.8347 -36.7777
   -21.6148 -16.0157 -15.2566 -15.1812 -15.0511 -14.9612 -14.8623 -14.6263
   -14.5552 -14.5430 -14.4896 -14.4551 -14.4085 -14.3779 -14.3221 -14.2459
   -14.2019 -14.1946 -14.1289 -14.0480 -13.9344 -13.9008 -13.8842 -13.7632
    -8.0886  -7.7700  -7.6485  -7.5400  -7.4476  -7.3499  -7.3404  -7.2584
    -7.2322  -7.0524  -7.0196  -6.8501  -6.8180  -6.7561  -6.7006  -6.6280
    -6.5215  -6.5041  -6.3573  -6.3148  -6.1615  -6.0832  -6.0276  -5.9903
    -5.8734  -5.8317  -5.8022  -5.7997  -5.7507  -5.7399  -5.7026  -5.6384
    -5.5583  -5.5252  -5.4619  -5.3364  -5.2839  -5.2511  -5.1601  -5.0683
    -5.0555  -5.0137  -4.9178  -4.7744  -4.7351  -4.5790  -4.4808  -4.4384
    -4.3975  -4.3386  -4.1982  -4.1213  -3.9886  -3.9378  -3.9097  -3.8569
    -3.8381  -3.7781  -3.7330  -3.6859  -3.6663  -3.5895  -3.5653  -3.5446
    -3.4801  -3.4361  -3.3036  -3.3020  -3.0546  -3.0390  -2.9695  -2.8882
    -2.8500  -2.7909  -2.7525  -2.7253  -2.7210  -2.6866  -2.6064  -2.4382
    -2.1699  -2.0584  -2.0451  -1.8194  -0.9327  -0.8410  -0.7708  -0.2715
    -0.1978  -0.1825  -0.1126   0.0460   0.0704   0.1357   0.1536   0.1662
     0.1958   0.2382   0.3490   0.3897   0.4559   0.4776   0.5537   0.5574
     0.6084   0.6503   0.6832   0.7053   0.7478   0.7904   0.8421   0.8791
     0.9215   0.9791   1.2091

     the Fermi energy is    -1.3761 ev

!    total energy              =   -2246.29436773 Ry
     estimated scf accuracy    <       0.00000074 Ry
     smearing contrib. (-TS)   =      -0.00000028 Ry
     internal energy E=F+TS    =   -2246.29436745 Ry

     The total energy is F=E-TS. E is the sum of the following terms:
     one-electron contribution =  -18455.03741872 Ry
     hartree contribution      =    9215.54005553 Ry
     xc contribution           =    -392.06509551 Ry
     ewald contribution        =    7395.13141742 Ry
     one-center paw contrib.   =      -9.86332618 Ry

     convergence has been achieved in  15 iterations

     negative rho (up, down):  2.054E-04 0.000E+00

     Forces acting on atoms (cartesian axes, Ry/au):

     atom    1 type  1   force =     0.01252265   -0.02219282    0.00247616
     atom    2 type  2   force =    -0.01717344    0.01094887    0.00002198
     atom    3 type  2   force =    -0.01006003    0.00954362   -0.00622710
     atom    4 type  1   force =    -0.01529119   -0.00698892   -0.04775935
     atom    5 type  2   force =    -0.00089580   -0.00513245   -0.00557891
     atom    6 type  2   force =     0.00022851    0.00999493   -0.00012895
     atom    7 type  1   force =     0.00502187   -0.00587506   -0.01209208
     atom    8 type  2   force =    -0.00655514    0.00578764   -0.00159650
     atom    9 type  2   force =     0.01275212    0.00725955    0.01186888
     atom   10 type  1   force =    -0.01128701    0.00593568   -0.02522894
     atom   11 type  2   force =     0.00625780   -0.00197241   -0.00689830
     atom   12 type  2   force =    -0.00005110    0.00146304    0.00735938
     atom   13 type  1   force =     0.00414402    0.00618371   -0.00727211
     atom   14 type  2   force =     0.00787850   -0.00110018    0.01298994
     atom   15 type  2   force =    -0.01214207    0.00318994   -0.00753279
     atom   16 type  1   force =     0.00117785    0.00717297    0.00509967
     atom   17 type  2   force =     0.00785670    0.00030900    0.00218640
     atom   18 type  2   force =    -0.00021532   -0.00918368    0.01162022
     atom   19 type  1   force =     0.00344927   -0.00971447   -0.00777962
     atom   20 type  2   force =     0.00285772   -0.00609187   -0.00039834
     atom   21 type  1   force =    -0.00631000    0.00660310   -0.00189533
     atom   22 type  2   force =    -0.00356097   -0.00170902   -0.00294197
     atom   23 type  2   force =    -0.00198986    0.00284214    0.01124837
     atom   24 type  1   force =    -0.01262229   -0.03015484   -0.00697230
     atom   25 type  2   force =     0.01869722    0.01329864    0.00519733
     atom   26 type  2   force =    -0.01281707    0.00055940   -0.00602989
     atom   27 type  1   force =     0.00464095    0.00323945   -0.00609108
     atom   28 type  2   force =    -0.00908586    0.11786952   -0.00558248
     atom   29 type  2   force =     0.00237416   -0.00082829   -0.00071298
     atom   30 type  1   force =    -0.00261929    0.00395647   -0.00018145
     atom   31 type  2   force =     0.00358581    0.00302136    0.00809998
     atom   32 type  2   force =    -0.00980340    0.00668465    0.00873621
     atom   33 type  1   force =     0.01439886   -0.00655275   -0.00744737
     atom   34 type  2   force =     0.00210212   -0.04126361   -0.00839237
     atom   35 type  2   force =    -0.00813852    0.01319102    0.01344267
     atom   36 type  3   force =     0.03067222   -0.09029429    0.07439302
     The non-local contrib.  to forces
     atom    1 type  1   force =    -0.00223201    0.03538025   -0.01229701
     atom    2 type  2   force =    -0.00918637   -0.00091662   -0.26763299
     atom    3 type  2   force =    -0.01026050   -0.00169705    0.27469614
     atom    4 type  1   force =     0.00969787   -0.00350938    0.03402930
     atom    5 type  2   force =     0.00622273   -0.03086442   -0.25675436
     atom    6 type  2   force =    -0.00172142    0.01262520    0.26461467
     atom    7 type  1   force =    -0.00816806   -0.01426455   -0.01126155
     atom    8 type  2   force =     0.02739824   -0.00206488   -0.22845952
     atom    9 type  2   force =     0.00954644   -0.00564518    0.27737672
     atom   10 type  1   force =    -0.00375294   -0.00147032   -0.00025565
     atom   11 type  2   force =     0.01849504    0.00574810   -0.26262484
     atom   12 type  2   force =    -0.01025739   -0.01493058    0.26217703
     atom   13 type  1   force =     0.00361190    0.02018941   -0.00814150
     atom   14 type  2   force =     0.01033216   -0.00651943   -0.26084683
     atom   15 type  2   force =    -0.01371459   -0.00374406    0.26127398
     atom   16 type  1   force =     0.00097405    0.02793897   -0.01952764
     atom   17 type  2   force =    -0.00396405   -0.02615228   -0.25084792
     atom   18 type  2   force =    -0.00245057   -0.00423719    0.27465507
     atom   19 type  1   force =     0.00667477   -0.00947020   -0.00973236
     atom   20 type  2   force =    -0.00148754   -0.02656268    0.26590821
     atom   21 type  1   force =     0.00104039    0.02693079    0.00722565
     atom   22 type  2   force =    -0.01021865    0.00419770   -0.26352224
     atom   23 type  2   force =     0.00557065   -0.01231432    0.26527897
     atom   24 type  1   force =     0.00870434    0.01845636   -0.02147442
     atom   25 type  2   force =     0.01107810    0.00303004   -0.25748382
     atom   26 type  2   force =    -0.00636308   -0.01386595    0.26677752
     atom   27 type  1   force =    -0.00971052   -0.00773722    0.02737726
     atom   28 type  2   force =    -0.07303478    0.31403438    0.18774719
     atom   29 type  2   force =     0.00854056    0.00061424    0.26112544
     atom   30 type  1   force =    -0.00193128    0.01801519    0.01179360
     atom   31 type  2   force =     0.00084478    0.01582728   -0.25349696
     atom   32 type  2   force =    -0.00537444   -0.00719677    0.27147133
     atom   33 type  1   force =     0.00156329    0.00145703    0.00618015
     atom   34 type  2   force =    -0.00099153   -0.03742705   -0.27569128
     atom   35 type  2   force =    -0.00248117   -0.00919629    0.27042504
     atom   36 type  3   force =     0.34918381   -1.43735396   -1.09047852
     The ionic contribution  to forces
     atom    1 type  1   force =    -0.24998299   -0.67813779    4.32669327
     atom    2 type  2   force =    -0.90903986   -0.25316631   38.99787568
     atom    3 type  2   force =    -0.23560973   -0.16765829  -36.68972144
     atom    4 type  1   force =    -2.02763619   -0.01977211   -4.24184791
     atom    5 type  2   force =    -2.22867164    0.90119613   38.13225519
     atom    6 type  2   force =     0.15698845   -0.64338025  -38.79039706
     atom    7 type  1   force =    -3.42181687   -1.86039791    0.92874000
     atom    8 type  2   force =    -3.10607064    2.39181435   35.53029824
     atom    9 type  2   force =     0.16717402    0.18329274  -38.97260055
     atom   10 type  1   force =    -1.34298468   -0.04592463    4.56297945
     atom   11 type  2   force =    -0.80841439   -1.24612089   38.92464632
     atom   12 type  2   force =     0.36496754    0.80866819  -38.37865512
     atom   13 type  1   force =     0.95032896    0.24969015    1.61714721
     atom   14 type  2   force =     0.01917453   -0.25738196   38.33027864
     atom   15 type  2   force =     0.13881254   -0.16988237  -37.29734197
     atom   16 type  1   force =    -0.22617232    3.81647161   -1.10617584
     atom   17 type  2   force =     1.64440117    1.06989927   37.44830510
     atom   18 type  2   force =    -0.02003163   -0.76365488  -39.26706563
     atom   19 type  1   force =     3.32189634   -1.68980795   -0.81589403
     atom   20 type  2   force =     0.20046938   -0.08785493  -39.11170960
     atom   21 type  1   force =    -0.01321136    0.18337648    0.27660074
     atom   22 type  2   force =     0.64561617   -1.41607327   38.22169235
     atom   23 type  2   force =    -0.02626660    0.76653920  -38.79466846
     atom   24 type  1   force =    -0.37907359   -0.66467494    3.72296757
     atom   25 type  2   force =     0.94286473   -0.26347362   39.00475177
     atom   26 type  2   force =    -0.20105898   -0.09975138  -37.91429738
     atom   27 type  1   force =     2.07502450   -0.03550914   -6.08822495
     atom   28 type  2   force =     1.38426595   -4.93356759   33.14090970
     atom   29 type  2   force =    -0.22601702   -0.68369409  -38.39345817
     atom   30 type  1   force =    -0.10594772    1.24096302   -3.06191989
     atom   31 type  2   force =     3.09490427    1.45902491   36.05212833
     atom   32 type  2   force =    -0.28723927    0.18585074  -39.52519218
     atom   33 type  1   force =     1.08085419   -0.64112303    0.99952386
     atom   34 type  2   force =     0.29781622   -0.79054709   39.06136698
     atom   35 type  2   force =    -0.28465977    0.64812017  -38.42375829
     atom   36 type  3   force =    -0.38565371    3.50664749   47.59376804
     The local contribution  to forces
     atom    1 type  1   force =     0.26481938    0.62082862   -4.31273065
     atom    2 type  2   force =     0.90100900    0.26512313  -38.75099682
     atom    3 type  2   force =     0.23543224    0.17889965   36.42933450
     atom    4 type  1   force =     2.00261691    0.01638355    4.15903208
     atom    5 type  2   force =     2.22211648   -0.87721765  -37.90186668
     atom    6 type  2   force =    -0.15537517    0.64195488   38.54605999
     atom    7 type  1   force =     3.43513790    1.86854249   -0.93043949
     atom    8 type  2   force =     3.07279281   -2.38376155  -35.32337213
     atom    9 type  2   force =    -0.16365531   -0.17074985   38.72758178
     atom   10 type  1   force =     1.33564834    0.05332792   -4.58881009
     atom   11 type  2   force =     0.79709118    1.23892778  -38.68990927
     atom   12 type  2   force =    -0.35573508   -0.79355370   38.14406055
     atom   13 type  1   force =    -0.94979602   -0.26337027   -1.61713995
     atom   14 type  2   force =    -0.02110078    0.26294543  -38.07715389
     atom   15 type  2   force =    -0.13799111    0.17654049   37.04853935
     atom   16 type  1   force =     0.22630168   -3.83724331    1.13001410
     atom   17 type  2   force =    -1.63290785   -1.04480228  -37.21575246
     atom   18 type  2   force =     0.02228268    0.75922666   39.02458370
     atom   19 type  1   force =    -3.32536421    1.68921385    0.81696565
     atom   20 type  2   force =    -0.19639595    0.10713139   38.86598520
     atom   21 type  1   force =     0.00585490   -0.20371503   -0.28667874
     atom   22 type  2   force =    -0.63932361    1.41058905  -37.98212286
     atom   23 type  2   force =     0.01912032   -0.75260449   38.56085350
     atom   24 type  1   force =     0.35765769    0.61612011   -3.70928084
     atom   25 type  2   force =    -0.93522483    0.27421954  -38.76278445
     atom   26 type  2   force =     0.19450603    0.11345839   37.66192883
     atom   27 type  1   force =    -2.06056771    0.04669735    6.05371119
     atom   28 type  2   force =    -1.32475400    4.75526123  -33.32997986
     atom   29 type  2   force =     0.22053070    0.68288294   38.15162472
     atom   30 type  1   force =     0.10532140   -1.25519817    3.04896833
     atom   31 type  2   force =    -3.09175257   -1.47094984  -35.81170808
     atom   32 type  2   force =     0.28280473   -0.17247168   39.28288393
     atom   33 type  1   force =    -1.06825474    0.63299348   -1.01411073
     atom   34 type  2   force =    -0.29512518    0.78554584  -38.81553882
     atom   35 type  2   force =     0.27909695   -0.62659377   38.18733381
     atom   36 type  3   force =     0.07118451   -2.17563764  -46.44032092
     The core correction contribution to forces
     atom    1 type  1   force =     0.00000000    0.00000000    0.00000000
     atom    2 type  2   force =     0.00009748   -0.00007402    0.02062812
     atom    3 type  2   force =     0.00043203   -0.00001582   -0.02108477
     atom    4 type  1   force =     0.00000000    0.00000000    0.00000000
     atom    5 type  2   force =    -0.00058665    0.00183633    0.02061986
     atom    6 type  2   force =     0.00034540   -0.00110399   -0.02093133
     atom    7 type  1   force =     0.00000000    0.00000000    0.00000000
     atom    8 type  2   force =    -0.00064941   -0.00023576    0.01975339
     atom    9 type  2   force =    -0.00025590    0.00029267   -0.02101069
     atom   10 type  1   force =     0.00000000    0.00000000    0.00000000
     atom   11 type  2   force =    -0.00085700   -0.00056898    0.02081243
     atom   12 type  2   force =     0.00101742    0.00124321   -0.02082428
     atom   13 type  1   force =     0.00000000    0.00000000    0.00000000
     atom   14 type  2   force =    -0.00052673   -0.00011257    0.02056368
     atom   15 type  2   force =     0.00074838    0.00028444   -0.02059047
     atom   16 type  1   force =     0.00000000    0.00000000    0.00000000
     atom   17 type  2   force =     0.00032753    0.00146973    0.02031105
     atom   18 type  2   force =    -0.00003803   -0.00041322   -0.02108037
     atom   19 type  1   force =     0.00000000    0.00000000    0.00000000
     atom   20 type  2   force =     0.00021971    0.00110439   -0.02118521
     atom   21 type  1   force =     0.00000000    0.00000000    0.00000000
     atom   22 type  2   force =     0.00032626   -0.00052365    0.02080660
     atom   23 type  2   force =    -0.00045789    0.00113077   -0.02077726
     atom   24 type  1   force =     0.00000000    0.00000000    0.00000000
     atom   25 type  2   force =    -0.00009165   -0.00043863    0.02057854
     atom   26 type  2   force =     0.00003927    0.00070857   -0.02103472
     atom   27 type  1   force =     0.00000000    0.00000000    0.00000000
     atom   28 type  2   force =     0.00445917   -0.01788690   -0.00432367
     atom   29 type  2   force =    -0.00067264   -0.00050431   -0.02055523
     atom   30 type  1   force =     0.00000000    0.00000000    0.00000000
     atom   31 type  2   force =    -0.00037937   -0.00092664    0.02094365
     atom   32 type  2   force =    -0.00000454    0.00044445   -0.02091513
     atom   33 type  1   force =     0.00000000    0.00000000    0.00000000
     atom   34 type  2   force =     0.00038828    0.00112003    0.02129073
     atom   35 type  2   force =    -0.00008040    0.00080957   -0.02110053
     atom   36 type  3   force =    -0.00401061    0.01590405    0.01128866
     The Hubbard contrib.    to forces
     atom    1 type  1   force =     0.00000000    0.00000000    0.00000000
     atom    2 type  2   force =     0.00000000    0.00000000    0.00000000
     atom    3 type  2   force =     0.00000000    0.00000000    0.00000000
     atom    4 type  1   force =     0.00000000    0.00000000    0.00000000
     atom    5 type  2   force =     0.00000000    0.00000000    0.00000000
     atom    6 type  2   force =     0.00000000    0.00000000    0.00000000
     atom    7 type  1   force =     0.00000000    0.00000000    0.00000000
     atom    8 type  2   force =     0.00000000    0.00000000    0.00000000
     atom    9 type  2   force =     0.00000000    0.00000000    0.00000000
     atom   10 type  1   force =     0.00000000    0.00000000    0.00000000
     atom   11 type  2   force =     0.00000000    0.00000000    0.00000000
     atom   12 type  2   force =     0.00000000    0.00000000    0.00000000
     atom   13 type  1   force =     0.00000000    0.00000000    0.00000000
     atom   14 type  2   force =     0.00000000    0.00000000    0.00000000
     atom   15 type  2   force =     0.00000000    0.00000000    0.00000000
     atom   16 type  1   force =     0.00000000    0.00000000    0.00000000
     atom   17 type  2   force =     0.00000000    0.00000000    0.00000000
     atom   18 type  2   force =     0.00000000    0.00000000    0.00000000
     atom   19 type  1   force =     0.00000000    0.00000000    0.00000000
     atom   20 type  2   force =     0.00000000    0.00000000    0.00000000
     atom   21 type  1   force =     0.00000000    0.00000000    0.00000000
     atom   22 type  2   force =     0.00000000    0.00000000    0.00000000
     atom   23 type  2   force =     0.00000000    0.00000000    0.00000000
     atom   24 type  1   force =     0.00000000    0.00000000    0.00000000
     atom   25 type  2   force =     0.00000000    0.00000000    0.00000000
     atom   26 type  2   force =     0.00000000    0.00000000    0.00000000
     atom   27 type  1   force =     0.00000000    0.00000000    0.00000000
     atom   28 type  2   force =     0.00000000    0.00000000    0.00000000
     atom   29 type  2   force =     0.00000000    0.00000000    0.00000000
     atom   30 type  1   force =     0.00000000    0.00000000    0.00000000
     atom   31 type  2   force =     0.00000000    0.00000000    0.00000000
     atom   32 type  2   force =     0.00000000    0.00000000    0.00000000
     atom   33 type  1   force =     0.00000000    0.00000000    0.00000000
     atom   34 type  2   force =     0.00000000    0.00000000    0.00000000
     atom   35 type  2   force =     0.00000000    0.00000000    0.00000000
     atom   36 type  3   force =     0.00000000    0.00000000    0.00000000
     The SCF correction term to forces
     atom    1 type  1   force =    -0.00008293   -0.00026502    0.00079387
     atom    2 type  2   force =    -0.00005490   -0.00001844    0.00013132
     atom    3 type  2   force =    -0.00005530    0.00001400    0.00053181
     atom    4 type  1   force =     0.00002900   -0.00009210    0.00101051
     atom    5 type  2   force =     0.00002208   -0.00008397    0.00015042
     atom    6 type  2   force =    -0.00000995   -0.00010204    0.00050812
     atom    7 type  1   force =    -0.00013231    0.00024377    0.00085231
     atom    8 type  2   force =    -0.00002735    0.00003435    0.00016684
     atom    9 type  2   force =    -0.00005835    0.00006804    0.00050495
     atom   10 type  1   force =    -0.00019895    0.00000158    0.00084067
     atom   11 type  2   force =    -0.00005824    0.00004046    0.00016040
     atom   12 type  2   force =    -0.00004480    0.00003480    0.00058453
     atom   13 type  1   force =    -0.00000203   -0.00032671    0.00084547
     atom   14 type  2   force =    -0.00000190   -0.00003278    0.00013167
     atom   15 type  2   force =     0.00000150   -0.00000968    0.00056965
     atom   16 type  1   force =     0.00007323    0.00000457    0.00077238
     atom   17 type  2   force =    -0.00000131   -0.00010657    0.00015396
     atom   18 type  2   force =     0.00002102   -0.00010618    0.00051079
     atom   19 type  1   force =     0.00024115    0.00034871    0.00086445
     atom   20 type  2   force =     0.00005091    0.00008882    0.00058639
     atom   21 type  1   force =     0.00000485    0.00000973    0.00094035
     atom   22 type  2   force =     0.00003765    0.00010002    0.00018751
     atom   23 type  2   force =     0.00004244    0.00008985    0.00054495
     atom   24 type  1   force =     0.00008806   -0.00005749    0.00079872
     atom   25 type  2   force =     0.00006965   -0.00003981    0.00011863
     atom   26 type  2   force =     0.00005848    0.00000866    0.00057918
     atom   27 type  1   force =    -0.00010654   -0.00021267    0.00102875
     atom   28 type  2   force =    -0.00002343    0.00002728    0.00004751
     atom   29 type  2   force =    -0.00000865   -0.00012820    0.00053359
     atom   30 type  1   force =    -0.00006290    0.00017530    0.00095984
     atom   31 type  2   force =    -0.00003251    0.00004452    0.00021638
     atom   32 type  2   force =     0.00000891    0.00005679    0.00047158
     atom   33 type  1   force =     0.00023490    0.00011865    0.00094269
     atom   34 type  2   force =     0.00001312    0.00004353    0.00016336
     atom   35 type  2   force =    -0.00001534    0.00005021    0.00052597
     atom   36 type  3   force =    -0.00003300    0.00014465    0.00011910

     Total force =     0.201013     Total SCF correction =     0.003757

     BFGS Geometry Optimization
     Energy error            =      0.0E+00 Ry
     Gradient error          =      1.2E-01 Ry/Bohr

     number of scf cycles    =   1
     number of bfgs steps    =   0

     energy             new  =   -2246.2943677295 Ry

     new trust radius        =       0.1209469517 bohr
     new conv_thr            =       0.0000010000 Ry


ATOMIC_POSITIONS (angstrom)
Mo            6.5811751120        1.7760622941        2.8249533576
S             8.1676215472        0.8154979171        4.4345499820
S             8.1879095451        0.8162920087        1.2745881856
Mo            8.0870708169        4.4913585651        2.6925452332
S             6.4994352214        3.7196955127        4.3437084183
S             6.5534707204        3.5170266427        1.1212119889
Mo            6.4926391569        7.2153283336        2.6654856338
S             8.0782588982        6.3469336782        4.2416167301
S             8.0876657774        6.3085439034        1.0901437397
Mo            8.1546462186        9.9053214376        2.8301111792
S             6.4984790827        8.9418830589        4.3794551129
S             6.6179201601        9.0494854200        1.1438017166
Mo            3.4238525838        1.7502281272        2.7726229286
S             4.9793346126        0.8163590183        4.3574070705
S             5.0514084497        0.8479501510        1.2226722811
Mo            4.9803799740        4.5169737747        2.6355831769
S             3.4319992492        3.6717632014        4.2808665739
S             3.4378066393        3.5433689048        1.0645008366
Mo            3.4556870130        7.2111838611        2.6265600631
S             4.9847464337        6.3237086047        1.0370429364
Mo            5.0089248113        9.9050942621        2.7423979967
S             3.4690737303        8.9428468958        4.3240344874
S             3.4073761793        9.0664939783        1.1020206795
Mo            0.2894110597        1.7315522793        2.8457551286
S             1.8603563552        0.7997313426        4.4009597481
S             1.8540175322        0.8547219403        1.2062099726
Mo            1.8631471921        4.4973810022        2.6569741203
S             0.2674058184        3.7167726907        4.3346299808
S             0.2324875584        3.5268109133        1.1716405931
Mo            0.2697660846        7.2187397661        2.7016004093
S             1.9041357767        6.3143976700        4.2267304455
S             1.8570504807        6.3138811777        1.0491822877
Mo            1.8519662088        9.9366715876        2.7690052730
S             0.2970252914        9.0681620656        4.4094284170
S             0.2724646792        9.0505061025        1.1575143344
O             0.0162310413        4.8095072100        5.3828288525



     Writing config-only to output data dir ./MoS2-V-O.save/
     NEW-OLD atomic charge density approx. for the potential

     negative rho (up, down):  1.557E-04 0.000E+00

     total cpu time spent up to now is      111.5 secs

     Self-consistent Calculation

     iteration #  1     ecut=    80.00 Ry     beta= 0.70
     Davidson diagonalization with overlap
     ethr =  1.00E-06,  avg # of iterations = 12.0

     negative rho (up, down):  1.280E-04 0.000E+00

     total cpu time spent up to now is      127.0 secs

     total energy              =   -2246.32737719 Ry
     estimated scf accuracy    <       0.00541245 Ry

     iteration #  2     ecut=    80.00 Ry     beta= 0.70
     Davidson diagonalization with overlap
     ethr =  1.73E-06,  avg # of iterations =  4.0

     negative rho (up, down):  1.388E-04 0.000E+00

     total cpu time spent up to now is      138.0 secs

     total energy              =   -2246.32827474 Ry
     estimated scf accuracy    <       0.00223211 Ry

     iteration #  3     ecut=    80.00 Ry     beta= 0.70
     Davidson diagonalization with overlap
     ethr =  7.15E-07,  avg # of iterations =  2.0

     negative rho (up, down):  1.264E-04 0.000E+00

     total cpu time spent up to now is      149.4 secs

     total energy              =   -2246.32836247 Ry
     estimated scf accuracy    <       0.00034001 Ry

     iteration #  4     ecut=    80.00 Ry     beta= 0.70
     Davidson diagonalization with overlap
     ethr =  1.09E-07,  avg # of iterations =  5.0

     negative rho (up, down):  1.277E-04 0.000E+00

     total cpu time spent up to now is      159.0 secs

     total energy              =   -2246.32841716 Ry
     estimated scf accuracy    <       0.00005292 Ry

     iteration #  5     ecut=    80.00 Ry     beta= 0.70
     Davidson diagonalization with overlap
     ethr =  1.70E-08,  avg # of iterations =  3.0

     negative rho (up, down):  1.365E-04 0.000E+00

     total cpu time spent up to now is      173.2 secs

     total energy              =   -2246.32842406 Ry
     estimated scf accuracy    <       0.00000568 Ry

     iteration #  6     ecut=    80.00 Ry     beta= 0.70
     Davidson diagonalization with overlap
     ethr =  1.82E-09,  avg # of iterations =  5.0

     negative rho (up, down):  1.444E-04 0.000E+00

     total cpu time spent up to now is      188.3 secs

     total energy              =   -2246.32842583 Ry
     estimated scf accuracy    <       0.00000290 Ry

     iteration #  7     ecut=    80.00 Ry     beta= 0.70
     Davidson diagonalization with overlap
     ethr =  9.29E-10,  avg # of iterations =  2.0

     negative rho (up, down):  2.038E-04 0.000E+00

     total cpu time spent up to now is      191.6 secs

     End of self-consistent calculation

          k = 0.0000 0.0000 0.0000 (105382 PWs)   bands (ev):

   -63.0265 -62.9591 -62.9389 -62.9315 -62.9267 -62.9169 -62.8789 -62.8655
   -62.8572 -62.8464 -62.8324 -62.8053 -37.3259 -37.2710 -37.2440 -37.2367
   -37.2239 -37.2141 -37.1902 -37.1562 -37.1549 -37.1472 -37.1396 -37.1224
   -37.1179 -37.1092 -37.1050 -37.0980 -37.0922 -37.0840 -37.0570 -37.0426
   -37.0279 -37.0214 -37.0088 -37.0064 -37.0032 -36.9951 -36.9887 -36.9823
   -36.9659 -36.9616 -36.9460 -36.9258 -36.9136 -36.8758 -36.8376 -36.7879
   -22.2367 -16.0178 -15.2512 -15.1820 -15.0523 -14.9563 -14.8559 -14.5944
   -14.5552 -14.5299 -14.4888 -14.4544 -14.4091 -14.3831 -14.3264 -14.2331
   -14.2050 -14.1940 -14.1187 -14.0397 -13.9450 -13.9107 -13.8769 -13.6848
    -8.1408  -7.7951  -7.7189  -7.5416  -7.4884  -7.3526  -7.3354  -7.2598
    -7.2348  -7.0929  -7.0313  -6.8562  -6.8418  -6.7623  -6.7199  -6.6266
    -6.5149  -6.5072  -6.3572  -6.3225  -6.1780  -6.1090  -6.0290  -5.9720
    -5.8682  -5.8392  -5.7990  -5.7820  -5.7559  -5.7426  -5.7109  -5.6462
    -5.5563  -5.5152  -5.4523  -5.3323  -5.2658  -5.2483  -5.1626  -5.0667
    -5.0536  -5.0204  -4.9286  -4.7810  -4.7564  -4.5933  -4.4957  -4.4536
    -4.4076  -4.3365  -4.2046  -4.1392  -4.0198  -3.9495  -3.9374  -3.8518
    -3.8515  -3.7809  -3.7355  -3.7020  -3.6369  -3.5921  -3.5682  -3.5495
    -3.4830  -3.4539  -3.3213  -3.3048  -3.0648  -3.0299  -3.0106  -2.8845
    -2.8433  -2.7896  -2.7629  -2.7320  -2.7294  -2.7019  -2.6091  -2.4721
    -2.2491  -2.0706  -2.0594  -1.8531  -0.8984  -0.8136  -0.7327  -0.2634
    -0.1924  -0.1649  -0.1107   0.0560   0.0741   0.1492   0.1769   0.1914
     0.2089   0.2537   0.3553   0.3990   0.4578   0.4812   0.5620   0.5648
     0.6167   0.6518   0.6852   0.6971   0.7603   0.8046   0.8402   0.8898
     0.9245   1.0081   1.2280

     the Fermi energy is    -1.3758 ev

!    total energy              =   -2246.32842542 Ry
     estimated scf accuracy    <       0.00000064 Ry
     smearing contrib. (-TS)   =      -0.00000005 Ry
     internal energy E=F+TS    =   -2246.32842537 Ry

     The total energy is F=E-TS. E is the sum of the following terms:
     one-electron contribution =  -18452.56090815 Ry
     hartree contribution      =    9214.27383053 Ry
     xc contribution           =    -392.12070548 Ry
     ewald contribution        =    7393.93935321 Ry
     one-center paw contrib.   =      -9.85999548 Ry

     convergence has been achieved in   7 iterations

     negative rho (up, down):  2.038E-04 0.000E+00

     Forces acting on atoms (cartesian axes, Ry/au):

     atom    1 type  1   force =     0.00369520   -0.01246084   -0.00029424
     atom    2 type  2   force =    -0.01240492    0.00578750   -0.00011313
     atom    3 type  2   force =    -0.00901321    0.00647695   -0.01023012
     atom    4 type  1   force =    -0.00541997    0.00623879   -0.01944382
     atom    5 type  2   force =     0.00221509   -0.00504212   -0.00845551
     atom    6 type  2   force =    -0.00587001    0.00270239   -0.00431742
     atom    7 type  1   force =     0.00324512   -0.00522534   -0.00555689
     atom    8 type  2   force =    -0.00956971    0.00186808   -0.00554591
     atom    9 type  2   force =     0.01185264    0.00852152    0.00241803
     atom   10 type  1   force =    -0.00547348    0.00669630   -0.00969476
     atom   11 type  2   force =     0.00420227   -0.00153410   -0.00907038
     atom   12 type  2   force =    -0.00231374    0.00150360    0.00207526
     atom   13 type  1   force =     0.00263525    0.00264021   -0.00213218
     atom   14 type  2   force =     0.00569560   -0.00084743    0.00861287
     atom   15 type  2   force =    -0.00882039    0.00291786   -0.00666640
     atom   16 type  1   force =     0.00051863    0.00310785    0.00390327
     atom   17 type  2   force =     0.00533730    0.00088924    0.00098280
     atom   18 type  2   force =     0.00172552   -0.00702706    0.00789251
     atom   19 type  1   force =     0.00304881   -0.00656689   -0.00238409
     atom   20 type  2   force =     0.00278965   -0.00516251   -0.00370699
     atom   21 type  1   force =    -0.00404773    0.00307166    0.00198235
     atom   22 type  2   force =    -0.00153309   -0.00255747   -0.00347049
     atom   23 type  2   force =    -0.00058397    0.00099912    0.00631113
     atom   24 type  1   force =    -0.00753497   -0.00798546    0.00548360
     atom   25 type  2   force =     0.01409768    0.00978167    0.00101442
     atom   26 type  2   force =    -0.00919833   -0.00092391   -0.00492106
     atom   27 type  1   force =     0.00413523    0.00806362    0.00043116
     atom   28 type  2   force =    -0.00826956    0.06091784   -0.04470661
     atom   29 type  2   force =     0.00356630   -0.00475523   -0.00174538
     atom   30 type  1   force =    -0.00161571    0.00179305    0.00200987
     atom   31 type  2   force =     0.00458773    0.00274173    0.00522015
     atom   32 type  2   force =    -0.00849320    0.00634992    0.00432290
     atom   33 type  1   force =     0.00692176   -0.00174360    0.00053011
     atom   34 type  2   force =     0.00017900   -0.03158487   -0.01262818
     atom   35 type  2   force =    -0.00576101    0.01056336    0.00794994
     atom   36 type  3   force =     0.02547423   -0.06021543    0.09394320
     The non-local contrib.  to forces
     atom    1 type  1   force =     0.00040701    0.03225906   -0.01359893
     atom    2 type  2   force =    -0.00633741   -0.00321862   -0.26596462
     atom    3 type  2   force =    -0.00812931   -0.00596980    0.27009562
     atom    4 type  1   force =     0.01116858   -0.00535439    0.03704902
     atom    5 type  2   force =     0.00715084   -0.03149285   -0.25803540
     atom    6 type  2   force =    -0.00591814    0.00556950    0.26166742
     atom    7 type  1   force =    -0.00876985   -0.01115446   -0.01395302
     atom    8 type  2   force =     0.01445063    0.00582427   -0.24835086
     atom    9 type  2   force =     0.00666931   -0.00676625    0.27254548
     atom   10 type  1   force =    -0.00449653   -0.00219199   -0.00051046
     atom   11 type  2   force =     0.01588372    0.00495154   -0.26489353
     atom   12 type  2   force =    -0.01172509   -0.01470392    0.25951713
     atom   13 type  1   force =     0.00350586    0.02185891   -0.00889271
     atom   14 type  2   force =     0.00893576   -0.00591423   -0.26291591
     atom   15 type  2   force =    -0.01114271   -0.00460595    0.26136601
     atom   16 type  1   force =     0.00152774    0.02961992   -0.02101413
     atom   17 type  2   force =    -0.00550470   -0.02429331   -0.25153429
     atom   18 type  2   force =    -0.00070212   -0.00370193    0.27135194
     atom   19 type  1   force =     0.00816396   -0.00762338   -0.01069800
     atom   20 type  2   force =    -0.00121354   -0.02526668    0.26442945
     atom   21 type  1   force =     0.00058633    0.02820239    0.00558108
     atom   22 type  2   force =    -0.00806291    0.00209803   -0.26420317
     atom   23 type  2   force =     0.00683725   -0.01434467    0.26278147
     atom   24 type  1   force =     0.00662610    0.01400243   -0.02174245
     atom   25 type  2   force =     0.00729809    0.00139827   -0.26007156
     atom   26 type  2   force =    -0.00347105   -0.01505441    0.26756251
     atom   27 type  1   force =    -0.01139774   -0.00838786    0.02864571
     atom   28 type  2   force =    -0.06183238    0.25353603    0.18917191
     atom   29 type  2   force =     0.00740634   -0.00198940    0.26303533
     atom   30 type  1   force =    -0.00196167    0.01711410    0.01010505
     atom   31 type  2   force =     0.00279327    0.01602331   -0.25993080
     atom   32 type  2   force =    -0.00287115   -0.00863324    0.26959479
     atom   33 type  1   force =     0.00254356    0.00053513    0.00534541
     atom   34 type  2   force =    -0.00246817   -0.02951298   -0.27932377
     atom   35 type  2   force =    -0.00100313   -0.01138733    0.26810423
     atom   36 type  3   force =     0.37914113   -1.51179144   -1.30291737
     The ionic contribution  to forces
     atom    1 type  1   force =    -0.45349661   -0.40431154    4.46983271
     atom    2 type  2   force =    -0.74144674   -0.30831028   39.11506836
     atom    3 type  2   force =    -0.21010982   -0.13031090  -36.82012270
     atom    4 type  1   force =    -1.76874547   -0.06906648   -5.03676642
     atom    5 type  2   force =    -2.11351347    0.91754562   38.07667560
     atom    6 type  2   force =     0.01344560   -0.76943390  -38.78465572
     atom    7 type  1   force =    -3.47048390   -1.75406397    0.81053946
     atom    8 type  2   force =    -2.98150004    2.15828711   35.60681471
     atom    9 type  2   force =     0.20431491    0.24338407  -38.95648186
     atom   10 type  1   force =    -1.11032469   -0.10615343    4.28874180
     atom   11 type  2   force =    -0.79520119   -1.26761772   38.89502108
     atom   12 type  2   force =     0.27883443    0.77487996  -38.36289407
     atom   13 type  1   force =     0.80307262    0.23431564    1.59212630
     atom   14 type  2   force =    -0.05199180   -0.22979457   38.41851229
     atom   15 type  2   force =     0.14131860   -0.13181510  -37.33086885
     atom   16 type  1   force =    -0.24878329    3.68230358   -0.81543693
     atom   17 type  2   force =     1.57799045    1.02542138   37.46016977
     atom   18 type  2   force =    -0.01733085   -0.74071345  -39.19945001
     atom   19 type  1   force =     3.31302729   -1.61616982   -0.90318269
     atom   20 type  2   force =     0.16772308   -0.07916300  -39.15726911
     atom   21 type  1   force =    -0.02122433    0.10664555    0.39707796
     atom   22 type  2   force =     0.66092978   -1.43563838   38.24073312
     atom   23 type  2   force =    -0.00512650    0.72570878  -38.76560514
     atom   24 type  1   force =    -0.11138469   -0.20339629    4.10019287
     atom   25 type  2   force =     0.83558543   -0.24331090   38.99435573
     atom   26 type  2   force =    -0.16559847   -0.06183383  -37.87886570
     atom   27 type  1   force =     1.94570445   -0.22993121   -6.11897969
     atom   28 type  2   force =     1.39320155   -5.37140213   32.17046422
     atom   29 type  2   force =    -0.10798395   -0.75315905  -38.28404933
     atom   30 type  1   force =    -0.06308132    1.11084864   -2.83555392
     atom   31 type  2   force =     3.02760673    1.45144668   36.11186280
     atom   32 type  2   force =    -0.28659151    0.18271722  -39.48919235
     atom   33 type  1   force =     0.90292413   -0.46838346    1.11358174
     atom   34 type  2   force =     0.24913060   -0.60204454   38.99207606
     atom   35 type  2   force =    -0.22086119    0.62112261  -38.34118269
     atom   36 type  3   force =    -0.57002981    3.74139712   48.22671063
     The local contribution  to forces
     atom    1 type  1   force =     0.45638192    0.35949614   -4.45652797
     atom    2 type  2   force =     0.73541210    0.31723558  -38.86990559
     atom    3 type  2   force =     0.20890442    0.14252308   36.56079819
     atom    4 type  1   force =     1.75217210    0.08008449    4.98019329
     atom    5 type  2   force =     2.10902312   -0.89318825  -37.84794159
     atom    6 type  2   force =    -0.01386662    0.76725704   38.53956835
     atom    7 type  1   force =     3.48221660    1.76064633   -0.80207503
     atom    8 type  2   force =     2.95735726   -2.16135609  -35.38495595
     atom    9 type  2   force =    -0.19901254   -0.22845458   38.70716877
     atom   10 type  1   force =     1.10937805    0.11511260   -4.29756836
     atom   11 type  2   force =     0.78414543    1.26185377  -38.66019691
     atom   12 type  2   force =    -0.27055710   -0.75979242   38.12624906
     atom   13 type  1   force =    -0.80394098   -0.25388635   -1.58522484
     atom   14 type  2   force =     0.04917603    0.23492803  -38.16772293
     atom   15 type  2   force =    -0.13967974    0.13895281   37.08351072
     atom   16 type  1   force =     0.24772634   -3.70928665    0.84044166
     atom   17 type  2   force =    -1.56752115   -1.00181715  -37.22814974
     atom   18 type  2   force =     0.01983669    0.73764520   38.95704265
     atom   19 type  1   force =    -3.31808448    1.61770564    0.91161745
     atom   20 type  2   force =    -0.16396825    0.09832663   38.91026473
     atom   21 type  1   force =     0.01651842   -0.13169919   -0.40052956
     atom   22 type  2   force =    -0.65458236    1.43159572  -38.00094067
     atom   23 type  2   force =    -0.00175443   -0.71144770   38.52991325
     atom   24 type  1   force =     0.09762636    0.18133320   -4.07285358
     atom   25 type  2   force =    -0.82884099    0.25198799  -38.75410195
     atom   26 type  2   force =     0.15999972    0.07517853   37.62754834
     atom   27 type  1   force =    -1.93020209    0.24589021    6.09067845
     atom   28 type  2   force =    -1.34318405    5.19263106  -32.40040911
     atom   29 type  2   force =     0.10476030    0.75068820   38.04004192
     atom   30 type  1   force =     0.06368268   -1.12580367    2.82739759
     atom   31 type  2   force =    -3.02520230   -1.46373127  -35.86814839
     atom   32 type  2   force =     0.28112364   -0.16824028   39.24479799
     atom   33 type  1   force =    -0.89849387    0.46640512   -1.11815740
     atom   34 type  2   force =    -0.24685620    0.59937942  -38.74692424
     atom   35 type  2   force =     0.21629113   -0.59996925   38.10208160
     atom   36 type  3   force =     0.22079939   -2.30703324  -46.84364648
     The core correction contribution to forces
     atom    1 type  1   force =     0.00000000    0.00000000    0.00000000
     atom    2 type  2   force =     0.00001442   -0.00004440    0.02065240
     atom    3 type  2   force =     0.00032528    0.00022572   -0.02101216
     atom    4 type  1   force =     0.00000000    0.00000000    0.00000000
     atom    5 type  2   force =    -0.00056084    0.00185541    0.02062411
     atom    6 type  2   force =     0.00037315   -0.00090497   -0.02082178
     atom    7 type  1   force =     0.00000000    0.00000000    0.00000000
     atom    8 type  2   force =    -0.00007351   -0.00066712    0.02062955
     atom    9 type  2   force =    -0.00008121    0.00042244   -0.02087993
     atom   10 type  1   force =     0.00000000    0.00000000    0.00000000
     atom   11 type  2   force =    -0.00071037   -0.00054574    0.02087513
     atom   12 type  2   force =     0.00101039    0.00121919   -0.02075368
     atom   13 type  1   force =     0.00000000    0.00000000    0.00000000
     atom   14 type  2   force =    -0.00051041   -0.00011470    0.02063062
     atom   15 type  2   force =     0.00065609    0.00035478   -0.02060359
     atom   16 type  1   force =     0.00000000    0.00000000    0.00000000
     atom   17 type  2   force =     0.00038387    0.00135651    0.02033005
     atom   18 type  2   force =    -0.00008266   -0.00041189   -0.02098526
     atom   19 type  1   force =     0.00000000    0.00000000    0.00000000
     atom   20 type  2   force =     0.00020339    0.00102489   -0.02116849
     atom   21 type  1   force =     0.00000000    0.00000000    0.00000000
     atom   22 type  2   force =     0.00024050   -0.00046725    0.02084424
     atom   23 type  2   force =    -0.00048558    0.00120025   -0.02073251
     atom   24 type  1   force =     0.00000000    0.00000000    0.00000000
     atom   25 type  2   force =     0.00008091   -0.00035618    0.02064640
     atom   26 type  2   force =    -0.00006979    0.00078458   -0.02105238
     atom   27 type  1   force =     0.00000000    0.00000000    0.00000000
     atom   28 type  2   force =     0.00372201   -0.01451492   -0.00455206
     atom   29 type  2   force =    -0.00050697   -0.00045942   -0.02062535
     atom   30 type  1   force =     0.00000000    0.00000000    0.00000000
     atom   31 type  2   force =    -0.00040010   -0.00085231    0.02116014
     atom   32 type  2   force =    -0.00014965    0.00052430   -0.02087069
     atom   33 type  1   force =     0.00000000    0.00000000    0.00000000
     atom   34 type  2   force =     0.00039492    0.00087011    0.02139804
     atom   35 type  2   force =    -0.00011275    0.00090376   -0.02102218
     atom   36 type  3   force =    -0.00424768    0.01644529    0.01339330
     The Hubbard contrib.    to forces
     atom    1 type  1   force =     0.00000000    0.00000000    0.00000000
     atom    2 type  2   force =     0.00000000    0.00000000    0.00000000
     atom    3 type  2   force =     0.00000000    0.00000000    0.00000000
     atom    4 type  1   force =     0.00000000    0.00000000    0.00000000
     atom    5 type  2   force =     0.00000000    0.00000000    0.00000000
     atom    6 type  2   force =     0.00000000    0.00000000    0.00000000
     atom    7 type  1   force =     0.00000000    0.00000000    0.00000000
     atom    8 type  2   force =     0.00000000    0.00000000    0.00000000
     atom    9 type  2   force =     0.00000000    0.00000000    0.00000000
     atom   10 type  1   force =     0.00000000    0.00000000    0.00000000
     atom   11 type  2   force =     0.00000000    0.00000000    0.00000000
     atom   12 type  2   force =     0.00000000    0.00000000    0.00000000
     atom   13 type  1   force =     0.00000000    0.00000000    0.00000000
     atom   14 type  2   force =     0.00000000    0.00000000    0.00000000
     atom   15 type  2   force =     0.00000000    0.00000000    0.00000000
     atom   16 type  1   force =     0.00000000    0.00000000    0.00000000
     atom   17 type  2   force =     0.00000000    0.00000000    0.00000000
     atom   18 type  2   force =     0.00000000    0.00000000    0.00000000
     atom   19 type  1   force =     0.00000000    0.00000000    0.00000000
     atom   20 type  2   force =     0.00000000    0.00000000    0.00000000
     atom   21 type  1   force =     0.00000000    0.00000000    0.00000000
     atom   22 type  2   force =     0.00000000    0.00000000    0.00000000
     atom   23 type  2   force =     0.00000000    0.00000000    0.00000000
     atom   24 type  1   force =     0.00000000    0.00000000    0.00000000
     atom   25 type  2   force =     0.00000000    0.00000000    0.00000000
     atom   26 type  2   force =     0.00000000    0.00000000    0.00000000
     atom   27 type  1   force =     0.00000000    0.00000000    0.00000000
     atom   28 type  2   force =     0.00000000    0.00000000    0.00000000
     atom   29 type  2   force =     0.00000000    0.00000000    0.00000000
     atom   30 type  1   force =     0.00000000    0.00000000    0.00000000
     atom   31 type  2   force =     0.00000000    0.00000000    0.00000000
     atom   32 type  2   force =     0.00000000    0.00000000    0.00000000
     atom   33 type  1   force =     0.00000000    0.00000000    0.00000000
     atom   34 type  2   force =     0.00000000    0.00000000    0.00000000
     atom   35 type  2   force =     0.00000000    0.00000000    0.00000000
     atom   36 type  3   force =     0.00000000    0.00000000    0.00000000
     The SCF correction term to forces
     atom    1 type  1   force =     0.00040432    0.00008648   -0.00000636
     atom    2 type  2   force =    -0.00004584    0.00011621    0.00003002
     atom    3 type  2   force =    -0.00000233   -0.00000017    0.00000462
     atom    4 type  1   force =    -0.00001373    0.00056616    0.00007400
     atom    5 type  2   force =     0.00011689    0.00022892    0.00021546
     atom    6 type  2   force =     0.00009745    0.00020570   -0.00008199
     atom    7 type  1   force =     0.00028371   -0.00066226   -0.00007461
     atom    8 type  2   force =     0.00019741   -0.00022911    0.00031035
     atom    9 type  2   force =    -0.00003638   -0.00007317    0.00005927
     atom   10 type  1   force =    -0.00002886   -0.00007991   -0.00036405
     atom   11 type  2   force =     0.00008613   -0.00018496    0.00011755
     atom   12 type  2   force =     0.00012508   -0.00010824   -0.00004949
     atom   13 type  1   force =    -0.00000081    0.00034299   -0.00014723
     atom   14 type  2   force =     0.00008747    0.00003903    0.00010250
     atom   15 type  2   force =     0.00002882    0.00002231   -0.00007700
     atom   16 type  1   force =     0.00004929    0.00046198   -0.00009362
     atom   17 type  2   force =    -0.00000971    0.00021279    0.00016071
     atom   18 type  2   force =     0.00000591    0.00014599   -0.00007313
     atom   19 type  1   force =    -0.00005651   -0.00048835   -0.00012715
     atom   20 type  2   force =     0.00004642   -0.00009338    0.00003012
     atom   21 type  1   force =     0.00007329   -0.00008611   -0.00015342
     atom   22 type  2   force =    -0.00005666   -0.00015460    0.00008969
     atom   23 type  2   force =    -0.00005328   -0.00012656   -0.00005224
     atom   24 type  1   force =    -0.00040129    0.00006619   -0.00011955
     atom   25 type  2   force =    -0.00002430    0.00005347    0.00017949
     atom   26 type  2   force =    -0.00005728   -0.00000779   -0.00012014
     atom   27 type  1   force =     0.00003206    0.00048347    0.00008038
     atom   28 type  2   force =    -0.00017526    0.00065879    0.00061214
     atom   29 type  2   force =    -0.00010797    0.00015543   -0.00015426
     atom   30 type  1   force =    -0.00025394   -0.00037504    0.00005485
     atom   31 type  2   force =    -0.00020842   -0.00015369    0.00027010
     atom   32 type  2   force =    -0.00000309   -0.00002709   -0.00001314
     atom   33 type  1   force =    -0.00005061   -0.00030940   -0.00024595
     atom   34 type  2   force =    -0.00002069   -0.00028590    0.00013941
     atom   35 type  2   force =    -0.00007361   -0.00011544   -0.00003732
     atom   36 type  3   force =    -0.00018736    0.00075782    0.00039682

     Total force =     0.153889     Total SCF correction =     0.002292
     Energy error            =      3.4E-02 Ry
     Gradient error          =      9.4E-02 Ry/Bohr

     number of scf cycles    =   2
     number of bfgs steps    =   1

     energy             old  =   -2246.2943677295 Ry
     energy             new  =   -2246.3284254162 Ry

     CASE: energy            _new < energy            _old

     new trust radius        =       0.1330416468 bohr
     new conv_thr            =       0.0000000939 Ry


ATOMIC_POSITIONS (angstrom)
Mo            6.5849703590        1.7667519353        2.8252557903
S             8.1592094167        0.8199338024        4.4345043536
S             8.1822183426        0.8207846395        1.2690322819
Mo            8.0820396700        4.4928690683        2.6757317381
S             6.5002475557        3.7165979901        4.3390410901
S             6.5509445527        3.5199478720        1.1193022732
Mo            6.4949319075        7.2120214473        2.6609515437
S             8.0729345770        6.3487577917        4.2389145356
S             8.0950668197        6.3135326587        1.0932668898
Mo            8.1502887395        9.9092818731        2.8214814155
S             6.5014053878        8.9408690993        4.3742893225
S             6.6168998626        9.0503973734        1.1459900091
Mo            3.4257259264        1.7524587111        2.7704249463
S             4.9831958267        0.8157970621        4.3634333156
S             5.0454390888        0.8497809424        1.2184468860
Mo            4.9808117259        4.5195809894        2.6381771687
S             3.4357000473        3.6722057042        4.2816767974
S             3.4385234286        3.5386984657        1.0699737468
Mo            3.4576201909        7.2066221700        2.6241636157
S             4.9864633456        6.3203914385        1.0353531623
Mo            5.0060569733        9.9075864528        2.7429345957
S             3.4677836692        8.9414314429        4.3220052946
S             3.4067745093        9.0674254872        1.1067375938
Mo            0.2839199955        1.7228121894        2.8469384098
S             1.8697737023        0.8063222439        4.4023079415
S             1.8477654602        0.8544154534        1.2030091397
Mo            1.8657627247        4.5014697695        2.6561022420
S             0.2622092723        3.7639205873        4.3141156534
S             0.2344597856        3.5245880786        1.1707535238
Mo            0.2686038422        7.2202123089        2.7024473926
S             1.9067654300        6.3161221231        4.2304223834
S             1.8516312659        6.3178205841        1.0525927692
Mo            1.8574984911        9.9347686952        2.7679405422
S             0.2974694779        9.0471721652        4.4024473214
S             0.2685296080        9.0574199684        1.1633296088
O             0.0327060337        4.7674667150        5.4368445777



     Writing config-only to output data dir ./MoS2-V-O.save/
     NEW-OLD atomic charge density approx. for the potential

     negative rho (up, down):  1.361E-04 0.000E+00

     total cpu time spent up to now is      198.9 secs

     Self-consistent Calculation

     iteration #  1     ecut=    80.00 Ry     beta= 0.70
     Davidson diagonalization with overlap
     ethr =  1.00E-06,  avg # of iterations =  8.0

     negative rho (up, down):  2.674E-04 0.000E+00

     total cpu time spent up to now is      212.1 secs

     total energy              =   -2246.35310911 Ry
     estimated scf accuracy    <       0.00338311 Ry

     iteration #  2     ecut=    80.00 Ry     beta= 0.70
     Davidson diagonalization with overlap
     ethr =  1.08E-06,  avg # of iterations =  4.0

     negative rho (up, down):  3.966E-04 0.000E+00

     total cpu time spent up to now is      224.7 secs

     total energy              =   -2246.35376153 Ry
     estimated scf accuracy    <       0.00165190 Ry

     iteration #  3     ecut=    80.00 Ry     beta= 0.70
     Davidson diagonalization with overlap
     ethr =  5.29E-07,  avg # of iterations =  2.0

     negative rho (up, down):  6.163E-04 0.000E+00

     total cpu time spent up to now is      236.3 secs

     total energy              =   -2246.35378098 Ry
     estimated scf accuracy    <       0.00027225 Ry

     iteration #  4     ecut=    80.00 Ry     beta= 0.70
     Davidson diagonalization with overlap
     ethr =  8.73E-08,  avg # of iterations =  5.0

     negative rho (up, down):  6.478E-04 0.000E+00

     total cpu time spent up to now is      251.0 secs

     total energy              =   -2246.35383393 Ry
     estimated scf accuracy    <       0.00007906 Ry

     iteration #  5     ecut=    80.00 Ry     beta= 0.70
     Davidson diagonalization with overlap
     ethr =  2.53E-08,  avg # of iterations =  2.0

     negative rho (up, down):  6.507E-04 0.000E+00

     total cpu time spent up to now is      266.1 secs

     total energy              =   -2246.35383384 Ry
     estimated scf accuracy    <       0.00002236 Ry

     iteration #  6     ecut=    80.00 Ry     beta= 0.70
     Davidson diagonalization with overlap
     ethr =  7.17E-09,  avg # of iterations =  4.0

     negative rho (up, down):  6.036E-04 0.000E+00

     total cpu time spent up to now is      276.4 secs

     total energy              =   -2246.35383836 Ry
     estimated scf accuracy    <       0.00000250 Ry

     iteration #  7     ecut=    80.00 Ry     beta= 0.70
     Davidson diagonalization with overlap
     ethr =  8.02E-10,  avg # of iterations =  5.0

     negative rho (up, down):  5.020E-04 0.000E+00

     total cpu time spent up to now is      287.5 secs

     total energy              =   -2246.35383919 Ry
     estimated scf accuracy    <       0.00000101 Ry

     iteration #  8     ecut=    80.00 Ry     beta= 0.70
     Davidson diagonalization with overlap
     ethr =  3.25E-10,  avg # of iterations =  2.0

     negative rho (up, down):  4.316E-04 0.000E+00

     total cpu time spent up to now is      298.0 secs

     total energy              =   -2246.35383917 Ry
     estimated scf accuracy    <       0.00000068 Ry

     iteration #  9     ecut=    80.00 Ry     beta= 0.70
     Davidson diagonalization with overlap
     ethr =  2.17E-10,  avg # of iterations =  2.0

     negative rho (up, down):  3.337E-04 0.000E+00

     total cpu time spent up to now is      308.5 secs

     total energy              =   -2246.35383911 Ry
     estimated scf accuracy    <       0.00000022 Ry

     iteration # 10     ecut=    80.00 Ry     beta= 0.70
     Davidson diagonalization with overlap
     ethr =  7.12E-11,  avg # of iterations =  4.0

     negative rho (up, down):  2.015E-04 0.000E+00

     total cpu time spent up to now is      312.0 secs

     End of self-consistent calculation

          k = 0.0000 0.0000 0.0000 (105382 PWs)   bands (ev):

   -63.0168 -62.9641 -62.9411 -62.9359 -62.9318 -62.9217 -62.8896 -62.8733
   -62.8702 -62.8585 -62.8478 -62.8174 -37.3234 -37.2640 -37.2537 -37.2359
   -37.2238 -37.2130 -37.1991 -37.1607 -37.1591 -37.1584 -37.1480 -37.1250
   -37.1220 -37.1148 -37.1108 -37.1044 -37.0982 -37.0914 -37.0688 -37.0560
   -37.0375 -37.0340 -37.0176 -37.0165 -37.0135 -37.0078 -36.9978 -36.9916
   -36.9789 -36.9674 -36.9591 -36.9313 -36.9232 -36.8908 -36.8489 -36.8032
   -22.3380 -16.0282 -15.2615 -15.1919 -15.0617 -14.9619 -14.8590 -14.5930
   -14.5647 -14.5230 -14.4983 -14.4623 -14.4179 -14.3942 -14.3361 -14.2348
   -14.2150 -14.2020 -14.1184 -14.0458 -13.9592 -13.9293 -13.8777 -13.6927
    -8.1063  -7.8044  -7.7242  -7.5493  -7.5069  -7.3690  -7.3337  -7.2666
    -7.2411  -7.1133  -7.0354  -6.8775  -6.8559  -6.7734  -6.7380  -6.6265
    -6.5276  -6.5069  -6.3677  -6.3367  -6.1863  -6.1259  -6.0388  -5.9720
    -5.8741  -5.8536  -5.8074  -5.7785  -5.7637  -5.7503  -5.7223  -5.6572
    -5.5585  -5.5207  -5.4578  -5.3302  -5.2574  -5.2543  -5.1722  -5.0752
    -5.0624  -5.0334  -4.9467  -4.7872  -4.7655  -4.6078  -4.5112  -4.4639
    -4.4247  -4.3431  -4.2152  -4.1549  -4.0404  -3.9671  -3.9572  -3.8667
    -3.8556  -3.7856  -3.7415  -3.7176  -3.6226  -3.6072  -3.5789  -3.5584
    -3.4894  -3.4713  -3.3320  -3.3232  -3.0931  -3.0550  -3.0304  -2.8953
    -2.8476  -2.8028  -2.7786  -2.7449  -2.7356  -2.7148  -2.6195  -2.5116
    -2.3149  -2.0829  -2.0722  -1.8802  -0.8877  -0.8217  -0.6594  -0.2683
    -0.2057  -0.1568  -0.1142   0.0426   0.0738   0.1388   0.1832   0.1986
     0.2191   0.2689   0.3479   0.3971   0.4498   0.4743   0.5553   0.5595
     0.6103   0.6534   0.6773   0.6865   0.7622   0.8034   0.8291   0.8917
     0.9192   1.0266   1.2312

     the Fermi energy is    -1.3841 ev

!    total energy              =   -2246.35383916 Ry
     estimated scf accuracy    <       0.00000003 Ry
     smearing contrib. (-TS)   =      -0.00000002 Ry
     internal energy E=F+TS    =   -2246.35383914 Ry

     The total energy is F=E-TS. E is the sum of the following terms:
     one-electron contribution =  -18448.41328195 Ry
     hartree contribution      =    9212.07428143 Ry
     xc contribution           =    -392.14156437 Ry
     ewald contribution        =    7391.98585829 Ry
     one-center paw contrib.   =      -9.85913253 Ry

     convergence has been achieved in  10 iterations

     negative rho (up, down):  2.015E-04 0.000E+00

     Forces acting on atoms (cartesian axes, Ry/au):

     atom    1 type  1   force =    -0.00262512   -0.00515862   -0.00326138
     atom    2 type  2   force =    -0.00838827    0.00249366    0.00094929
     atom    3 type  2   force =    -0.00734721    0.00441463   -0.01043020
     atom    4 type  1   force =    -0.00061324    0.01505801   -0.00257031
     atom    5 type  2   force =     0.00415374   -0.00454096   -0.00939801
     atom    6 type  2   force =    -0.00879163   -0.00183662   -0.00600745
     atom    7 type  1   force =     0.00139432   -0.00355862   -0.00304524
     atom    8 type  2   force =    -0.00865424   -0.00235631   -0.00418576
     atom    9 type  2   force =     0.01001206    0.00893015   -0.00407317
     atom   10 type  1   force =    -0.00202121    0.00660840   -0.00121486
     atom   11 type  2   force =     0.00269015   -0.00119180   -0.00909915
     atom   12 type  2   force =    -0.00378908    0.00152108   -0.00096190
     atom   13 type  1   force =     0.00163786   -0.00008176    0.00049670
     atom   14 type  2   force =     0.00377280   -0.00070166    0.00544574
     atom   15 type  2   force =    -0.00637759    0.00187592   -0.00524577
     atom   16 type  1   force =     0.00017941    0.00070968    0.00184056
     atom   17 type  2   force =     0.00340595    0.00141207    0.00074817
     atom   18 type  2   force =     0.00246429   -0.00468714    0.00532787
     atom   19 type  1   force =     0.00259752   -0.00372424    0.00015825
     atom   20 type  2   force =     0.00244000   -0.00449300   -0.00523160
     atom   21 type  1   force =    -0.00218514    0.00111394    0.00287057
     atom   22 type  2   force =    -0.00008149   -0.00306568   -0.00269609
     atom   23 type  2   force =     0.00033058   -0.00038916    0.00312389
     atom   24 type  1   force =    -0.00368221    0.00438773    0.00782540
     atom   25 type  2   force =     0.00981212    0.00719450   -0.00028825
     atom   26 type  2   force =    -0.00620475   -0.00154422   -0.00218434
     atom   27 type  1   force =     0.00506757    0.01122026    0.00181476
     atom   28 type  2   force =    -0.01153675    0.03694767   -0.04203898
     atom   29 type  2   force =     0.00422743   -0.00584134   -0.00152240
     atom   30 type  1   force =    -0.00097170    0.00041932    0.00174971
     atom   31 type  2   force =     0.00466674    0.00238853    0.00437144
     atom   32 type  2   force =    -0.00643678    0.00584906    0.00131966
     atom   33 type  1   force =     0.00150950    0.00122510    0.00374411
     atom   34 type  2   force =    -0.00106260   -0.02255907   -0.01281438
     atom   35 type  2   force =    -0.00354314    0.00799199    0.00439414
     atom   36 type  3   force =     0.02395011   -0.05603151    0.08008900
     The non-local contrib.  to forces
     atom    1 type  1   force =     0.00195684    0.02952745   -0.01412432
     atom    2 type  2   force =    -0.00351426   -0.00456333   -0.26447274
     atom    3 type  2   force =    -0.00632882   -0.00863115    0.26756260
     atom    4 type  1   force =     0.01028414   -0.00515618    0.03790551
     atom    5 type  2   force =     0.00743796   -0.03147168   -0.25885824
     atom    6 type  2   force =    -0.00814194    0.00109278    0.26012691
     atom    7 type  1   force =    -0.00923381   -0.00917815   -0.01555937
     atom    8 type  2   force =     0.00904656    0.00883610   -0.25869490
     atom    9 type  2   force =     0.00375471   -0.00793883    0.26892654
     atom   10 type  1   force =    -0.00473500   -0.00230909   -0.00018050
     atom   11 type  2   force =     0.01354596    0.00431649   -0.26581085
     atom   12 type  2   force =    -0.01249965   -0.01483922    0.25844035
     atom   13 type  1   force =     0.00346691    0.02303600   -0.00909977
     atom   14 type  2   force =     0.00745594   -0.00560623   -0.26467676
     atom   15 type  2   force =    -0.00911038   -0.00560386    0.26166924
     atom   16 type  1   force =     0.00177469    0.03064802   -0.02215135
     atom   17 type  2   force =    -0.00621515   -0.02286576   -0.25211040
     atom   18 type  2   force =     0.00021455   -0.00263016    0.26891111
     atom   19 type  1   force =     0.00920687   -0.00629886   -0.01119508
     atom   20 type  2   force =    -0.00111597   -0.02395951    0.26369739
     atom   21 type  1   force =     0.00022627    0.02902249    0.00454944
     atom   22 type  2   force =    -0.00635870    0.00056908   -0.26418346
     atom   23 type  2   force =     0.00757208   -0.01602207    0.26142181
     atom   24 type  1   force =     0.00464010    0.01270489   -0.01953630
     atom   25 type  2   force =     0.00344835    0.00019222   -0.26172499
     atom   26 type  2   force =    -0.00071967   -0.01516768    0.26890039
     atom   27 type  1   force =    -0.01112941   -0.00738740    0.02900009
     atom   28 type  2   force =    -0.05169807    0.21262860    0.21405769
     atom   29 type  2   force =     0.00642133   -0.00185190    0.26561442
     atom   30 type  1   force =    -0.00187931    0.01636539    0.00908562
     atom   31 type  2   force =     0.00231990    0.01488999   -0.26433913
     atom   32 type  2   force =    -0.00015657   -0.00994653    0.26832687
     atom   33 type  1   force =     0.00342758    0.00005289    0.00521941
     atom   34 type  2   force =    -0.00342956   -0.02199352   -0.28061087
     atom   35 type  2   force =     0.00038792   -0.01366078    0.26683216
     atom   36 type  3   force =     0.36831271   -1.45818464   -1.47409202
     The ionic contribution  to forces
[...]
     atom   28 type  2   force =     0.00020544    0.01334323    0.29540321
     atom   29 type  2   force =     0.00065442   -0.00717668    0.27715748
     atom   30 type  1   force =    -0.00013082    0.01754542    0.00473515
     atom   31 type  2   force =    -0.00658161    0.00352135   -0.26860261
     atom   32 type  2   force =     0.00707004   -0.01350526    0.26727484
     atom   33 type  1   force =     0.00208290    0.00449978    0.00287920
     atom   34 type  2   force =     0.00032110   -0.00881928   -0.27612208
     atom   35 type  2   force =     0.00005257   -0.01486443    0.26691200
     atom   36 type  3   force =    -0.00437351   -0.06965806   -2.32205637
     The ionic contribution  to forces
     atom    1 type  1   force =    -0.65090108    0.12348853    1.36710094
     atom    2 type  2   force =    -0.75407384   -0.83875612   38.36733802
     atom    3 type  2   force =    -0.01728894   -0.15968243  -38.19527958
     atom    4 type  1   force =    -1.03825589    0.72071233   -3.89956650
     atom    5 type  2   force =    -1.77681180    1.13189836   37.61484080
     atom    6 type  2   force =     0.15476521   -0.46591523  -38.87859623
     atom    7 type  1   force =    -3.13055168   -1.39446093    1.53618789
     atom    8 type  2   force =    -1.76310322    1.16843806   37.57959635
     atom    9 type  2   force =     0.30736455    0.22920908  -38.81347873
     atom   10 type  1   force =    -0.58316015   -0.87848251    2.37789790
     atom   11 type  2   force =    -0.59070500   -1.43637960   38.49541052
     atom   12 type  2   force =     0.15121882    0.35616359  -38.29877415
     atom   13 type  1   force =     0.65365777    0.11657075    1.18324740
     atom   14 type  2   force =    -0.00177905   -0.30764404   38.41054078
     atom   15 type  2   force =     0.00348683   -0.26179023  -37.86930061
     atom   16 type  1   force =    -0.00267616    3.77118110    0.07914170
     atom   17 type  2   force =     1.77362553    1.13608278   37.58537975
     atom   18 type  2   force =    -0.14703869   -0.46699845  -38.91573466
     atom   19 type  1   force =     3.13138758   -1.40003273    1.45108795
     atom   20 type  2   force =    -0.00354354    0.13019903  -39.08334686
     atom   21 type  1   force =    -0.00390836   -0.37995574    0.89954144
     atom   22 type  2   force =     0.58295357   -1.44038635   38.48602030
     atom   23 type  2   force =    -0.14583498    0.35566805  -38.30672330
     atom   24 type  1   force =    -0.02062690   -0.74446144   -1.37110023
     atom   25 type  2   force =     0.76714503   -0.84807773   38.34107098
     atom   26 type  2   force =     0.01697978   -0.16024152  -38.21754826
     atom   27 type  1   force =     1.04453477    0.73987016   -4.05918561
     atom   28 type  2   force =    -0.01593006    0.18882070   27.77739611
     atom   29 type  2   force =    -0.00312770   -0.22629104  -38.22918417
     atom   30 type  1   force =     0.00958590    0.40060594    0.40577584
     atom   31 type  2   force =     1.76721359    1.16545613   37.55020922
     atom   32 type  2   force =    -0.31226467    0.23456597  -38.82310201
     atom   33 type  1   force =     0.57279319   -0.89298043    2.35050212
     atom   34 type  2   force =     0.01112696   -0.45636343   38.60460494
     atom   35 type  2   force =     0.00043924    0.21525915  -37.78161001
     atom   36 type  3   force =     0.01330340    0.57471025   50.27964001
     The local contribution  to forces
     atom    1 type  1   force =     0.65283449   -0.14915397   -1.35969979
     atom    2 type  2   force =     0.75402758    0.84771252  -38.11827437
     atom    3 type  2   force =     0.01978846    0.16848120   37.94982108
     atom    4 type  1   force =     1.02834474   -0.71893163    3.87795942
     atom    5 type  2   force =     1.77292250   -1.11291384  -37.37767415
     atom    6 type  2   force =    -0.15447244    0.46738271   38.63596322
     atom    7 type  1   force =     3.14538831    1.39134577   -1.51639876
     atom    8 type  2   force =     1.75668478   -1.17129889  -37.33134453
     atom    9 type  2   force =    -0.30146319   -0.21607937   38.56697708
     atom   10 type  1   force =     0.58624472    0.87458847   -2.38103249
     atom   11 type  2   force =     0.58393624    1.43708757  -38.25443408
     atom   12 type  2   force =    -0.14287623   -0.34194400   38.05569692
     atom   13 type  1   force =    -0.65554546   -0.14179167   -1.17598271
     atom   14 type  2   force =     0.00162492    0.31617305  -38.16152444
     atom   15 type  2   force =    -0.00342419    0.26968500   37.62587352
     atom   16 type  1   force =     0.00247116   -3.80601123   -0.05653134
     atom   17 type  2   force =    -1.77007247   -1.11702106  -37.34829764
     atom   18 type  2   force =     0.14683203    0.46837282   38.67315540
     atom   19 type  1   force =    -3.14578048    1.39627727   -1.43139558
     atom   20 type  2   force =     0.00367753   -0.11450387   38.83905314
     atom   21 type  1   force =     0.00386528    0.35022296   -0.90186736
     atom   22 type  2   force =    -0.57616835    1.44096978  -38.24508324
     atom   23 type  2   force =     0.13762538   -0.34164339   38.06361330
     atom   24 type  1   force =     0.02068592    0.72260676    1.35645760
     atom   25 type  2   force =    -0.76695851    0.85704615  -38.09175613
     atom   26 type  2   force =    -0.01959409    0.16886695   37.97198594
     atom   27 type  1   force =    -1.03531395   -0.73765641    4.03788520
     atom   28 type  2   force =     0.01499669   -0.20044706  -28.06110963
     atom   29 type  2   force =     0.00292257    0.23354540   37.97352328
     atom   30 type  1   force =    -0.00931899   -0.41765766   -0.41058426
     atom   31 type  2   force =    -1.76057971   -1.16842995  -37.30197249
     atom   32 type  2   force =     0.30637641   -0.22137387   38.57642184
     atom   33 type  1   force =    -0.57520455    0.88869232   -2.35351865
     atom   34 type  2   force =    -0.01102482    0.46450446  -38.35000093
     atom   35 type  2   force =    -0.00041712   -0.20067280   37.53514763
     atom   36 type  3   force =    -0.00905691   -0.50676650  -47.98385296
     The core correction contribution to forces
     atom    1 type  1   force =     0.00000000    0.00000000    0.00000000
     atom    2 type  2   force =    -0.00008862    0.00040991    0.02119723
     atom    3 type  2   force =     0.00004744    0.00035948   -0.02089164
     atom    4 type  1   force =     0.00000000    0.00000000    0.00000000
     atom    5 type  2   force =    -0.00032639    0.00095419    0.02076122
     atom    6 type  2   force =     0.00018384   -0.00045350   -0.02074591
     atom    7 type  1   force =     0.00000000    0.00000000    0.00000000
     atom    8 type  2   force =    -0.00030535    0.00007783    0.02120805
     atom    9 type  2   force =     0.00066176    0.00083138   -0.02092570
     atom   10 type  1   force =     0.00000000    0.00000000    0.00000000
     atom   11 type  2   force =    -0.00018337   -0.00028248    0.02077704
     atom   12 type  2   force =     0.00064965    0.00105065   -0.02090233
     atom   13 type  1   force =     0.00000000    0.00000000    0.00000000
     atom   14 type  2   force =    -0.00002714    0.00013640    0.02100469
     atom   15 type  2   force =     0.00003436    0.00030099   -0.02072218
     atom   16 type  1   force =     0.00000000    0.00000000    0.00000000
     atom   17 type  2   force =     0.00032507    0.00094057    0.02076046
     atom   18 type  2   force =    -0.00016210   -0.00043165   -0.02075509
     atom   19 type  1   force =     0.00000000    0.00000000    0.00000000
     atom   20 type  2   force =     0.00000354    0.00076109   -0.02128216
     atom   21 type  1   force =     0.00000000    0.00000000    0.00000000
     atom   22 type  2   force =     0.00018146   -0.00027149    0.02078269
     atom   23 type  2   force =    -0.00065803    0.00107409   -0.02090164
     atom   24 type  1   force =     0.00000000    0.00000000    0.00000000
     atom   25 type  2   force =     0.00011963    0.00044494    0.02119568
     atom   26 type  2   force =    -0.00004258    0.00035904   -0.02089625
     atom   27 type  1   force =     0.00000000    0.00000000    0.00000000
     atom   28 type  2   force =    -0.00001445   -0.00048974   -0.00987103
     atom   29 type  2   force =    -0.00003757    0.00007432   -0.02115841
     atom   30 type  1   force =     0.00000000    0.00000000    0.00000000
     atom   31 type  2   force =     0.00030123    0.00007500    0.02120871
     atom   32 type  2   force =    -0.00069301    0.00082707   -0.02092105
     atom   33 type  1   force =     0.00000000    0.00000000    0.00000000
     atom   34 type  2   force =    -0.00001062    0.00032811    0.02128371
     atom   35 type  2   force =    -0.00000416    0.00090147   -0.02089226
     atom   36 type  3   force =     0.00004710    0.00072970    0.02462542
     The Hubbard contrib.    to forces
     atom    1 type  1   force =     0.00000000    0.00000000    0.00000000
     atom    2 type  2   force =     0.00000000    0.00000000    0.00000000
     atom    3 type  2   force =     0.00000000    0.00000000    0.00000000
     atom    4 type  1   force =     0.00000000    0.00000000    0.00000000
     atom    5 type  2   force =     0.00000000    0.00000000    0.00000000
     atom    6 type  2   force =     0.00000000    0.00000000    0.00000000
     atom    7 type  1   force =     0.00000000    0.00000000    0.00000000
     atom    8 type  2   force =     0.00000000    0.00000000    0.00000000
     atom    9 type  2   force =     0.00000000    0.00000000    0.00000000
     atom   10 type  1   force =     0.00000000    0.00000000    0.00000000
     atom   11 type  2   force =     0.00000000    0.00000000    0.00000000
     atom   12 type  2   force =     0.00000000    0.00000000    0.00000000
     atom   13 type  1   force =     0.00000000    0.00000000    0.00000000
     atom   14 type  2   force =     0.00000000    0.00000000    0.00000000
     atom   15 type  2   force =     0.00000000    0.00000000    0.00000000
     atom   16 type  1   force =     0.00000000    0.00000000    0.00000000
     atom   17 type  2   force =     0.00000000    0.00000000    0.00000000
     atom   18 type  2   force =     0.00000000    0.00000000    0.00000000
     atom   19 type  1   force =     0.00000000    0.00000000    0.00000000
     atom   20 type  2   force =     0.00000000    0.00000000    0.00000000
     atom   21 type  1   force =     0.00000000    0.00000000    0.00000000
     atom   22 type  2   force =     0.00000000    0.00000000    0.00000000
     atom   23 type  2   force =     0.00000000    0.00000000    0.00000000
     atom   24 type  1   force =     0.00000000    0.00000000    0.00000000
     atom   25 type  2   force =     0.00000000    0.00000000    0.00000000
     atom   26 type  2   force =     0.00000000    0.00000000    0.00000000
     atom   27 type  1   force =     0.00000000    0.00000000    0.00000000
     atom   28 type  2   force =     0.00000000    0.00000000    0.00000000
     atom   29 type  2   force =     0.00000000    0.00000000    0.00000000
     atom   30 type  1   force =     0.00000000    0.00000000    0.00000000
     atom   31 type  2   force =     0.00000000    0.00000000    0.00000000
     atom   32 type  2   force =     0.00000000    0.00000000    0.00000000
     atom   33 type  1   force =     0.00000000    0.00000000    0.00000000
     atom   34 type  2   force =     0.00000000    0.00000000    0.00000000
     atom   35 type  2   force =     0.00000000    0.00000000    0.00000000
     atom   36 type  3   force =     0.00000000    0.00000000    0.00000000
     The SCF correction term to forces
     atom    1 type  1   force =     0.00000339    0.00003078    0.00002045
     atom    2 type  2   force =     0.00000088    0.00000232    0.00001209
     atom    3 type  2   force =    -0.00000378   -0.00000190    0.00000468
     atom    4 type  1   force =     0.00000359    0.00004940    0.00002535
     atom    5 type  2   force =     0.00000894    0.00002530    0.00001158
     atom    6 type  2   force =     0.00000662    0.00002618    0.00000849
     atom    7 type  1   force =     0.00001179   -0.00003456    0.00002320
     atom    8 type  2   force =     0.00000953   -0.00001608    0.00002078
     atom    9 type  2   force =     0.00000482   -0.00001578    0.00000397
     atom   10 type  1   force =     0.00000464   -0.00003437    0.00002757
     atom   11 type  2   force =     0.00000295   -0.00001244    0.00001513
     atom   12 type  2   force =    -0.00000012   -0.00001594    0.00000113
     atom   13 type  1   force =    -0.00000291    0.00002377    0.00002635
     atom   14 type  2   force =    -0.00000030    0.00000162    0.00001817
     atom   15 type  2   force =     0.00000118    0.00000147    0.00000272
     atom   16 type  1   force =     0.00000132    0.00003567    0.00002981
     atom   17 type  2   force =    -0.00001038    0.00002535    0.00001332
     atom   18 type  2   force =    -0.00000273    0.00002686    0.00000838
     atom   19 type  1   force =    -0.00001551   -0.00003743    0.00002343
     atom   20 type  2   force =    -0.00000070   -0.00000704   -0.00000163
     atom   21 type  1   force =     0.00000337   -0.00003181    0.00003031
     atom   22 type  2   force =    -0.00000284   -0.00001335    0.00001857
     atom   23 type  2   force =     0.00000009   -0.00001617    0.00000018
     atom   24 type  1   force =     0.00000075    0.00003863    0.00002008
     atom   25 type  2   force =    -0.00000164    0.00000102    0.00001420
     atom   26 type  2   force =    -0.00000088   -0.00000332    0.00000940
     atom   27 type  1   force =    -0.00000776    0.00005398    0.00002750
     atom   28 type  2   force =    -0.00000029    0.00005421    0.00001423
     atom   29 type  2   force =    -0.00000048    0.00002498    0.00001570
     atom   30 type  1   force =     0.00000423   -0.00006258    0.00002786
     atom   31 type  2   force =    -0.00000907   -0.00001684    0.00001834
     atom   32 type  2   force =    -0.00000330   -0.00001331    0.00000734
     atom   33 type  1   force =    -0.00000776   -0.00003051    0.00002635
     atom   34 type  2   force =     0.00000019   -0.00001944    0.00001997
     atom   35 type  2   force =    -0.00000096   -0.00001644    0.00000427
     atom   36 type  3   force =     0.00000253    0.00010894    0.00004714

     Total force =     0.005586     Total SCF correction =     0.000234
     Energy error            =      7.5E-05 Ry
     Gradient error          =      1.8E-03 Ry/Bohr

     bfgs converged in  23 scf cycles and  22 bfgs steps
     (criteria: energy <  1.0E-04 Ry, force <  1.0E-02 Ry/Bohr)

     End of BFGS Geometry Optimization

     Final energy             =   -2246.4528442655 Ry

     File ./MoS2-V-O.bfgs deleted, as requested
Begin final coordinates

ATOMIC_POSITIONS (angstrom)
Mo            6.5562821186        1.7934475904        2.7641627971
S             8.1239789652        0.8819590699        4.3794317389
S             8.1166412800        0.8608661345        1.1730374816
Mo            8.0916787363        4.5521837204        2.6903217281
S             6.5205220705        3.7132674047        4.3015982719
S             6.5412161240        3.5863767654        1.0983674485
Mo            6.5118969340        7.2211025656        2.6679884201
S             8.0784497002        6.3373043057        4.3023943181
S             8.1308838382        6.3797781501        1.0971478688
Mo            8.1209776698        9.9705252200        2.7792072264
S             6.5117199655        8.9762361965        4.3356308437
S             6.5771671508        9.0684947783        1.1340623841
Mo            3.4212598354        1.7936188546        2.7610985458
S             4.9870522585        0.8551824968        4.3538243488
S             4.9906219337        0.8699605117        1.1766268367
Mo            4.9891191444        4.5636833519        2.6478799139
S             3.4587487366        3.7128842858        4.2994346637
S             3.4380653565        3.5879041885        1.0954719451
Mo            3.4612545045        7.2233392019        2.6665309367
S             4.9871880279        6.3522687443        1.0437315380
Mo            4.9873199826        9.9387106649        2.7422999740
S             3.4609691802        8.9788511326        4.3349588158
S             3.3955806109        9.0717742717        1.1334183475
Mo            0.2598738072        1.7379801367        2.7592750524
S             1.8532228189        0.8845144772        4.3771820242
S             1.8588911327        0.8622155618        1.1715471428
Mo            1.8872138866        4.5519457183        2.6874706349
S             0.2637914737        3.6444132418        4.2121208701
S             0.2589647783        3.5859797092        1.1589529104
Mo            0.2584582269        7.2476024358        2.7371920142
S             1.8971458407        6.3379577498        4.3006050423
S             1.8422106549        6.3804186299        1.0962017350
Mo            1.8519754036        9.9720551465        2.7784445988
S             0.2576309252        9.0564302378        4.3676107972
S             0.2577746128        9.0931488354        1.1851079028
O             0.2665993262        3.6938538131        5.7100027531
End final coordinates



     Writing all to output data dir ./MoS2-V-O.save/
 
     init_run     :      4.62s CPU      5.08s WALL (       1 calls)
     electrons    :   2088.00s CPU   2356.81s WALL (      23 calls)
     update_pot   :     67.12s CPU     71.63s WALL (      22 calls)
     forces       :     62.23s CPU     70.88s WALL (      23 calls)

     Called by init_run:
     wfcinit      :      0.48s CPU      0.53s WALL (       1 calls)
     potinit      :      2.38s CPU      2.61s WALL (       1 calls)
     hinit0       :      0.44s CPU      0.46s WALL (       1 calls)

     Called by electrons:
     c_bands      :    305.98s CPU    313.29s WALL (     213 calls)
     sum_band     :    118.41s CPU    152.46s WALL (     213 calls)
     v_of_rho     :    198.48s CPU    240.99s WALL (     228 calls)
     newd         :     67.79s CPU    100.13s WALL (     228 calls)
     PAW_pot      :      9.03s CPU      9.06s WALL (     250 calls)
     mix_rho      :   1411.18s CPU   1566.02s WALL (     213 calls)

     Called by c_bands:
     init_us_2    :      4.92s CPU      5.29s WALL (     449 calls)
     init_us_2:cp :      4.91s CPU      5.28s WALL (     449 calls)
     regterg      :    289.97s CPU    296.92s WALL (     213 calls)

     Called by *egterg:
     rdiaghg      :     20.33s CPU     20.53s WALL (    1142 calls)
     h_psi        :    188.12s CPU    189.79s WALL (    1173 calls)
     s_psi        :     17.80s CPU     17.86s WALL (    1173 calls)
     g_psi        :      0.91s CPU      0.92s WALL (     959 calls)

     Called by h_psi:
     h_psi:calbec :     20.52s CPU     20.63s WALL (    1173 calls)
     vloc_psi     :    147.76s CPU    149.21s WALL (    1173 calls)
     add_vuspsi   :     17.49s CPU     17.59s WALL (    1173 calls)

     General routines
     calbec       :     29.66s CPU     29.81s WALL (    1500 calls)
     fft          :    133.71s CPU    155.40s WALL (   15249 calls)
     ffts         :    632.71s CPU    782.01s WALL (  346367 calls)
     fftw         :     93.49s CPU     94.34s WALL (  130170 calls)
     interpolate  :      2.77s CPU      3.22s WALL (     228 calls)
 
     Parallel routines
 
     PWSCF        :  37m11.74s CPU  41m58.65s WALL

 
   This run was terminated on:  16:45:16   1Nov2023            

=------------------------------------------------------------------------------=
   JOB DONE.
=------------------------------------------------------------------------------=
