
     Program PWSCF v.7.2 starts on  1Nov2023 at 23:11: 1 

     This program is part of the open-source Quantum ESPRESSO suite
     for quantum simulation of materials; please cite
         "P. Giannozzi et al., J. Phys.:Condens. Matter 21 395502 (2009);
         "P. Giannozzi et al., J. Phys.:Condens. Matter 29 465901 (2017);
         "P. Giannozzi et al., J. Chem. Phys. 152 154105 (2020);
          URL http://www.quantum-espresso.org", 
     in publications or presentations arising from this work. More details at
     http://www.quantum-espresso.org/quote

     Parallel version (MPI & OpenMP), running on      48 processor cores
     Number of MPI processes:                48
     Threads/MPI process:                     1

     MPI processes distributed on     1 nodes
     44299 MiB available memory on the printing compute node when the environment starts
 
     Waiting for input...
     Reading input from standard input
Warning: card &CELL ignored
Warning: card CELL_DYNAMICS = 'BFGS', ignored
Warning: card CELL_DOFREE = '2DXY' ignored
Warning: card / ignored

     Current dimensions of program PWSCF are:
     Max number of different atomic species (ntypx) = 10
     Max number of k-points (npk) =  40000
     Max angular momentum in pseudopotentials (lmaxx) =  4
     file O.pbe-n-kjpaw_psl.0.1.UPF: wavefunction(s)  2P renormalized

     IMPORTANT: XC functional enforced from input :
     Exchange-correlation= RVV10
                           (   1   4  13   4  26   0   0)
     Any further DFT definition will be discarded
     Please, verify this is what you really want


     gamma-point specific algorithms are used
     signal trapping enabled: kill the code with -SIGUSR1 to stop cleanly the simulation 
 
     R & G space division:  proc/nbgrp/npool/nimage =      48
     Subspace diagonalization in iterative solution of the eigenvalue problem:
     one sub-group per band group will be used
     scalapack distributed-memory algorithm (size of sub-group:  2*  2 procs)

 
     Parallelization info
     --------------------
     sticks:   dense  smooth     PW     G-vecs:    dense   smooth      PW
     Min         396     194     47               101632    35090    4376
     Max         398     196     50               101674    35128    4410
     Sum       19091    9389   2349              4879585  1685513  210763
 
     Using Slab Decomposition
 


     bravais-lattice index     =            0
     lattice parameter (alat)  =      17.8707  a.u.
     unit-cell volume          =   17436.2743 (a.u.)^3
     number of atoms/cell      =           36
     number of atomic types    =            3
     number of electrons       =       312.00
     number of Kohn-Sham states=          187
     kinetic-energy cutoff     =      80.0000  Ry
     charge density cutoff     =     650.0000  Ry
     scf convergence threshold =      1.0E-06
     mixing beta               =       0.7000
     number of iterations used =            8  local-TF  mixing
     energy convergence thresh.=      1.0E-04
     force convergence thresh. =      1.0E-02
     Exchange-correlation= RVV10
                           (   1   4  13   4  26   0   0)
     nstep                     =          200


     celldm(1)=  17.870686  celldm(2)=   0.000000  celldm(3)=   0.000000
     celldm(4)=   0.000000  celldm(5)=   0.000000  celldm(6)=   0.000000

     crystal axes: (cart. coord. in units of alat)
               a(1) = (   1.000000   0.000000   0.000000 )  
               a(2) = (   0.000000   1.155671   0.000000 )  
               a(3) = (   0.000000   0.000000   2.643601 )  

     reciprocal axes: (cart. coord. in units 2 pi/alat)
               b(1) = (  1.000000  0.000000  0.000000 )  
               b(2) = (  0.000000  0.865298  0.000000 )  
               b(3) = (  0.000000  0.000000  0.378272 )  


     PseudoPot. # 1 for Mo read from file:
     ../pseudo/Mo_ONCV_PBE-1.0.oncvpsp.upf
     MD5 check sum: 1b5d28e075c9ccadda658a603575cd1f
     Pseudo is Norm-conserving, Zval = 14.0
     Generated using ONCVPSP code by D. R. Hamann
     Using radial grid of 1526 points,  6 beta functions with: 
                l(1) =   0
                l(2) =   0
                l(3) =   1
                l(4) =   1
                l(5) =   2
                l(6) =   2

     PseudoPot. # 2 for S  read from file:
     ../pseudo/s_pbe_v1.4.uspp.F.UPF
     MD5 check sum: 88d86576ff6df21479756cfb9bdac1df
     Pseudo is Ultrasoft + core correction, Zval =  6.0
     Generated by new atomic code, or converted to UPF format
     Using radial grid of  907 points,  6 beta functions with: 
                l(1) =   0
                l(2) =   0
                l(3) =   1
                l(4) =   1
                l(5) =   2
                l(6) =   2
     Q(r) pseudized with  8 coefficients,  rinner =    1.300   1.300   1.300
                                                       1.300   1.300

     PseudoPot. # 3 for O  read from file:
     ../pseudo/O.pbe-n-kjpaw_psl.0.1.UPF
     MD5 check sum: 0234752ac141de4415c5fc33072bef88
     Pseudo is Projector augmented-wave + core cor, Zval =  6.0
     Generated using "atomic" code by A. Dal Corso  v.5.0.99 svn rev. 10869
     Shape of augmentation charge: BESSEL
     Using radial grid of 1095 points,  4 beta functions with: 
                l(1) =   0
                l(2) =   0
                l(3) =   1
                l(4) =   1
     Q(r) pseudized with 0 coefficients 


     atomic species   valence    mass     pseudopotential
        Mo            14.00    95.94000     Mo( 1.00)
        S              6.00    32.06500     S ( 1.00)
        O              6.00    15.99940     O ( 1.00)

     No symmetry found



   Cartesian axes

     site n.     atom                  positions (alat units)
         1           Mo  tau(   1) = (   0.6952221   0.1890506   0.2985846  )
         2           S   tau(   2) = (   0.8646417   0.0856217   0.4689279  )
         3           S   tau(   3) = (   0.8663890   0.0857843   0.1351291  )
         4           Mo  tau(   4) = (   0.8560186   0.4753274   0.2873942  )
         5           S   tau(   5) = (   0.6873294   0.3936244   0.4596353  )
         6           S   tau(   6) = (   0.6929804   0.3713468   0.1185692  )
         7           Mo  tau(   7) = (   0.6862796   0.7633098   0.2825370  )
         8           S   tau(   8) = (   0.8545980   0.6708292   0.4486168  )
         9           S   tau(   9) = (   0.8545123   0.6666874   0.1146125  )
        10           Mo  tau(  10) = (   0.8629403   1.0471007   0.3006803  )
        11           S   tau(  11) = (   0.6868280   0.9456650   0.4634891  )
        12           S   tau(  12) = (   0.6998113   0.9568511   0.1205389  )
        13           Mo  tau(  13) = (   0.3618216   0.1847309   0.2935964  )
        14           S   tau(  14) = (   0.5260962   0.0863870   0.4600448  )
        15           S   tau(  15) = (   0.5348379   0.0894875   0.1297123  )
        16           Mo  tau(  16) = (   0.5265817   0.4772436   0.2784130  )
        17           S   tau(  17) = (   0.3624753   0.3882513   0.4525556  )
        18           S   tau(  18) = (   0.3635411   0.3752055   0.1119148  )
        19           Mo  tau(  19) = (   0.3652268   0.7630864   0.2781795  )
        20           S   tau(  20) = (   0.5269494   0.6690381   0.1096838  )
        21           Mo  tau(  21) = (   0.5300192   1.0470394   0.2900995  )
        22           S   tau(  22) = (   0.3670346   0.9457522   0.4574073  )
        23           S   tau(  23) = (   0.3604225   0.9585725   0.1159032  )
        24           Mo  tau(  24) = (   0.0313099   0.1847895   0.3013130  )
        25           S   tau(  25) = (   0.1956761   0.0838230   0.4650863  )
        26           S   tau(  26) = (   0.1967693   0.0903508   0.1278874  )
        27           Mo  tau(  27) = (   0.1967578   0.4753919   0.2813011  )
        28           S   tau(  28) = (   0.0287851   0.3864324   0.4586755  )
        29           S   tau(  29) = (   0.0244514   0.3729871   0.1239344  )
        30           Mo  tau(  30) = (   0.0286728   0.7631204   0.2856894  )
        31           S   tau(  31) = (   0.2011512   0.6675435   0.4465001  )
        32           S   tau(  32) = (   0.1969214   0.6672839   0.1104564  )
        33           Mo  tau(  33) = (   0.1950294   1.0511147   0.2932237  )
        34           S   tau(  34) = (   0.0312912   0.9612169   0.4667423  )
        35           S   tau(  35) = (   0.0292670   0.9563028   0.1216485  )
        36           O   tau(  36) = (   0.4444444   1.1556707   0.5792558  )

     number of k points=     1  Gaussian smearing, width (Ry)=  0.0100
                       cart. coord. in units 2pi/alat
        k(    1) = (   0.0000000   0.0000000   0.0000000), wk =   2.0000000

     Dense  grid:  2439793 G-vectors     FFT dimensions: ( 150, 180, 384)

     Smooth grid:   842757 G-vectors     FFT dimensions: ( 108, 120, 270)

     Estimated max dynamical RAM per process >     269.22 MB

     Estimated total dynamical RAM >      12.62 GB

     Initial potential from superposition of free atoms

     starting charge     311.9873, renormalised to     312.0000

     negative rho (up, down):  2.758E-04 0.000E+00


---------------------------------------------------------------------------------
Carrying out rVV10 run using the following parameters:
Nqs =      20    Nr_points =    1024   r_max =   100.000
b_value =  6.30000    beta =  0.00901
     q_mesh =  0.00010000  0.00030000  0.00058939  0.00100810
               0.00161396  0.00249058  0.00375900  0.00559430
               0.00824984  0.01209221  0.01765183  0.02569619
               0.03733578  0.05417739  0.07854596  0.11380545
               0.16482331  0.23864234  0.34545298  0.50000000

Gradients computed in Reciprocal space

---------------------------------------------------------------------------------


     Starting wfcs are  216 randomized atomic wfcs
     Checking if some PAW data can be deallocated... 

     total cpu time spent up to now is        5.3 secs

     Self-consistent Calculation

     iteration #  1     ecut=    80.00 Ry     beta= 0.70
     Davidson diagonalization with overlap
     ethr =  1.00E-02,  avg # of iterations =  2.0

     Threshold (ethr) on eigenvalues was too large:
     Diagonalizing with lowered threshold

     Davidson diagonalization with overlap
     ethr =  4.46E-04,  avg # of iterations =  4.0

     negative rho (up, down):  2.903E-08 0.000E+00

     total cpu time spent up to now is       24.3 secs

     total energy              =   -2246.28345890 Ry
     estimated scf accuracy    <       1.63603877 Ry

     iteration #  2     ecut=    80.00 Ry     beta= 0.70
     Davidson diagonalization with overlap
     ethr =  5.24E-04,  avg # of iterations =  4.0

     total cpu time spent up to now is       29.6 secs

     total energy              =   -2246.28676671 Ry
     estimated scf accuracy    <       0.58290092 Ry

     iteration #  3     ecut=    80.00 Ry     beta= 0.70
     Davidson diagonalization with overlap
     ethr =  1.87E-04,  avg # of iterations =  2.0

     total cpu time spent up to now is       33.9 secs

     total energy              =   -2246.28229393 Ry
     estimated scf accuracy    <       0.16000512 Ry

     iteration #  4     ecut=    80.00 Ry     beta= 0.70
     Davidson diagonalization with overlap
     ethr =  5.13E-05,  avg # of iterations = 19.0

     total cpu time spent up to now is       39.2 secs

     total energy              =   -2246.31123248 Ry
     estimated scf accuracy    <       0.02541898 Ry

     iteration #  5     ecut=    80.00 Ry     beta= 0.70
     Davidson diagonalization with overlap
     ethr =  8.15E-06,  avg # of iterations =  9.0

     total cpu time spent up to now is       43.8 secs

     total energy              =   -2246.31136555 Ry
     estimated scf accuracy    <       0.01501929 Ry

     iteration #  6     ecut=    80.00 Ry     beta= 0.70
     Davidson diagonalization with overlap
     ethr =  4.81E-06,  avg # of iterations =  2.0

     total cpu time spent up to now is       47.8 secs

     total energy              =   -2246.31053027 Ry
     estimated scf accuracy    <       0.00979954 Ry

     iteration #  7     ecut=    80.00 Ry     beta= 0.70
     Davidson diagonalization with overlap
     ethr =  3.14E-06,  avg # of iterations =  7.0

     negative rho (up, down):  1.302E-05 0.000E+00

     total cpu time spent up to now is       54.0 secs

     total energy              =   -2246.30940989 Ry
     estimated scf accuracy    <       0.00585570 Ry

     iteration #  8     ecut=    80.00 Ry     beta= 0.70
     Davidson diagonalization with overlap
     ethr =  1.88E-06,  avg # of iterations =  2.0

     negative rho (up, down):  1.184E-02 0.000E+00

     total cpu time spent up to now is       60.4 secs

     total energy              =   -2246.30895938 Ry
     estimated scf accuracy    <       0.00316458 Ry

     iteration #  9     ecut=    80.00 Ry     beta= 0.70
     Davidson diagonalization with overlap
     ethr =  1.01E-06,  avg # of iterations =  2.0

     negative rho (up, down):  2.104E-02 0.000E+00

     total cpu time spent up to now is       67.0 secs

     total energy              =   -2246.30875166 Ry
     estimated scf accuracy    <       0.00168196 Ry

     iteration # 10     ecut=    80.00 Ry     beta= 0.70
     Davidson diagonalization with overlap
     ethr =  5.39E-07,  avg # of iterations =  2.0

     negative rho (up, down):  2.260E-02 0.000E+00

     total cpu time spent up to now is       74.4 secs

     total energy              =   -2246.30883803 Ry
     estimated scf accuracy    <       0.00069693 Ry

     iteration # 11     ecut=    80.00 Ry     beta= 0.70
     Davidson diagonalization with overlap
     ethr =  2.23E-07,  avg # of iterations =  2.0

     negative rho (up, down):  1.366E-02 0.000E+00

     total cpu time spent up to now is       81.6 secs

     total energy              =   -2246.30881884 Ry
     estimated scf accuracy    <       0.00014217 Ry

     iteration # 12     ecut=    80.00 Ry     beta= 0.70
     Davidson diagonalization with overlap
     ethr =  4.56E-08,  avg # of iterations = 13.0

     negative rho (up, down):  4.064E-03 0.000E+00

     total cpu time spent up to now is       90.7 secs

     total energy              =   -2246.30886393 Ry
     estimated scf accuracy    <       0.00005265 Ry

     iteration # 13     ecut=    80.00 Ry     beta= 0.70
     Davidson diagonalization with overlap
     ethr =  1.69E-08,  avg # of iterations =  2.0

     negative rho (up, down):  9.769E-04 0.000E+00

     total cpu time spent up to now is       99.8 secs

     total energy              =   -2246.30888355 Ry
     estimated scf accuracy    <       0.00001069 Ry

     iteration # 14     ecut=    80.00 Ry     beta= 0.70
     Davidson diagonalization with overlap
     ethr =  3.43E-09,  avg # of iterations =  2.0

     negative rho (up, down):  4.472E-04 0.000E+00

     total cpu time spent up to now is      107.9 secs

     total energy              =   -2246.30888602 Ry
     estimated scf accuracy    <       0.00000292 Ry

     iteration # 15     ecut=    80.00 Ry     beta= 0.70
     Davidson diagonalization with overlap
     ethr =  9.36E-10,  avg # of iterations =  5.0

     negative rho (up, down):  2.028E-04 0.000E+00

     total cpu time spent up to now is      112.1 secs

     End of self-consistent calculation

          k = 0.0000 0.0000 0.0000 (105382 PWs)   bands (ev):

   -63.0662 -62.9986 -62.9779 -62.9697 -62.9219 -62.9111 -62.8999 -62.8860
   -62.8768 -62.8552 -62.8443 -62.8359 -37.3763 -37.3081 -37.2861 -37.2546
   -37.2426 -37.2285 -37.2171 -37.1863 -37.1793 -37.1664 -37.1645 -37.1559
   -37.1429 -37.1260 -37.1139 -37.1087 -37.1024 -37.0814 -37.0748 -37.0684
   -37.0541 -37.0385 -37.0290 -37.0276 -37.0228 -37.0166 -37.0066 -36.9972
   -36.9863 -36.9680 -36.9653 -36.9429 -36.9299 -36.8838 -36.8662 -36.8099
   -21.5558 -16.0204 -15.2845 -15.1985 -15.0599 -14.9854 -14.7950 -14.6305
   -14.5630 -14.5391 -14.4997 -14.4631 -14.4528 -14.3907 -14.2756 -14.2648
   -14.2226 -14.1934 -14.1832 -13.9959 -13.9485 -13.9426 -13.8976 -13.8214
    -7.9745  -7.8497  -7.6510  -7.5102  -7.4784  -7.3735  -7.3371  -7.2475
    -7.2324  -7.0403  -6.9097  -6.8797  -6.8387  -6.7650  -6.7320  -6.6779
    -6.5552  -6.5269  -6.4306  -6.3534  -6.1899  -6.0609  -6.0289  -5.9333
    -5.9075  -5.8707  -5.8269  -5.7860  -5.7475  -5.7349  -5.7122  -5.5969
    -5.5761  -5.5451  -5.4914  -5.3787  -5.2841  -5.1646  -5.1532  -5.0929
    -5.0597  -5.0241  -4.9338  -4.8579  -4.8285  -4.6168  -4.4862  -4.3970
    -4.3421  -4.3229  -4.2080  -4.1650  -4.0786  -4.0307  -3.9011  -3.8404
    -3.7940  -3.7421  -3.6870  -3.6340  -3.6124  -3.6098  -3.5783  -3.5556
    -3.5319  -3.4786  -3.3966  -3.3145  -3.0913  -3.0249  -2.9946  -2.9221
    -2.8711  -2.8531  -2.7761  -2.7689  -2.7302  -2.6752  -2.6306  -2.4053
    -2.2511  -2.0559  -2.0112  -1.9178  -1.0117  -0.8173  -0.8042  -0.2507
    -0.2388  -0.1926  -0.0831  -0.0441   0.0423   0.0674   0.1234   0.1698
     0.1884   0.3058   0.3676   0.4350   0.4403   0.4538   0.5060   0.5239
     0.5737   0.6325   0.6578   0.6656   0.7317   0.7803   0.8476   0.8549
     0.9135   0.9975   1.1766

     the Fermi energy is    -1.4647 ev

!    total energy              =   -2246.30888862 Ry
     estimated scf accuracy    <       0.00000099 Ry
     smearing contrib. (-TS)   =      -0.00000017 Ry
     internal energy E=F+TS    =   -2246.30888845 Ry

     The total energy is F=E-TS. E is the sum of the following terms:
     one-electron contribution =  -18437.89142403 Ry
     hartree contribution      =    9206.79678616 Ry
     xc contribution           =    -392.04028105 Ry
     ewald contribution        =    7386.68875813 Ry
     one-center paw contrib.   =      -9.86272764 Ry

     convergence has been achieved in  15 iterations

     negative rho (up, down):  2.028E-04 0.000E+00

     Forces acting on atoms (cartesian axes, Ry/au):

     atom    1 type  1   force =     0.03428812   -0.00876330    0.02537969
     atom    2 type  2   force =    -0.00866061    0.01855807   -0.00371106
     atom    3 type  2   force =    -0.01395272    0.00601477   -0.00671959
     atom    4 type  1   force =     0.00485020    0.00360008    0.00039956
     atom    5 type  2   force =     0.00087404    0.00091093   -0.00681953
     atom    6 type  2   force =     0.00127130    0.00724647   -0.00312452
     atom    7 type  1   force =     0.01003056   -0.01562260   -0.00678026
     atom    8 type  2   force =     0.00091050   -0.00398249    0.01721360
     atom    9 type  2   force =     0.01219490    0.00696508    0.01233946
     atom   10 type  1   force =    -0.01222163    0.00595009   -0.02855989
     atom   11 type  2   force =     0.00329431   -0.00063775   -0.00654709
     atom   12 type  2   force =     0.00049104    0.00033929    0.00625942
     atom   13 type  1   force =     0.00115777    0.00892212   -0.01402898
     atom   14 type  2   force =    -0.09430426   -0.08024596    0.01628210
     atom   15 type  2   force =    -0.01179424    0.00273673   -0.00689789
     atom   16 type  1   force =    -0.00202008    0.00922429    0.00541718
     atom   17 type  2   force =     0.00505393    0.00288082    0.00381687
     atom   18 type  2   force =    -0.00276187   -0.00160412    0.01248238
     atom   19 type  1   force =     0.00181334   -0.01651690   -0.00603648
     atom   20 type  2   force =     0.00329177   -0.00408988   -0.00063801
     atom   21 type  1   force =     0.01033529   -0.00722204   -0.04280938
     atom   22 type  2   force =    -0.00754020   -0.01169156   -0.01767255
     atom   23 type  2   force =    -0.00263374    0.00147965    0.00999777
     atom   24 type  1   force =    -0.00823856   -0.00480905   -0.01703590
     atom   25 type  2   force =     0.01041441    0.02354241   -0.00199863
     atom   26 type  2   force =    -0.01139291   -0.00279750   -0.00348811
     atom   27 type  1   force =     0.00002657   -0.00115410    0.00628224
     atom   28 type  2   force =     0.00087346   -0.00083620   -0.00338227
     atom   29 type  2   force =     0.00180603   -0.00007348   -0.00329169
     atom   30 type  1   force =    -0.00417149    0.01060620   -0.00374797
     atom   31 type  2   force =     0.00164512    0.00134206    0.01667986
     atom   32 type  2   force =    -0.00889179    0.00783892    0.00799516
     atom   33 type  1   force =     0.01452150   -0.00162294   -0.00781511
     atom   34 type  2   force =     0.00372670   -0.04362884   -0.00870035
     atom   35 type  2   force =    -0.01009028    0.00710978    0.01292730
     atom   36 type  3   force =     0.07580350    0.08003094    0.04633264
     The non-local contrib.  to forces
     atom    1 type  1   force =     0.00283472    0.00642491   -0.01762526
     atom    2 type  2   force =    -0.01180825    0.00782251   -0.27516842
     atom    3 type  2   force =    -0.01556475    0.00001303    0.26965889
     atom    4 type  1   force =     0.00578668    0.01143960    0.00644393
     atom    5 type  2   force =     0.00576613   -0.03359233   -0.25504835
     atom    6 type  2   force =     0.00207653    0.00811825    0.26572053
     atom    7 type  1   force =    -0.01702160    0.00639582   -0.02048643
     atom    8 type  2   force =     0.00347437   -0.00438041   -0.25711172
     atom    9 type  2   force =     0.00674772   -0.00849485    0.27890637
     atom   10 type  1   force =     0.00481952    0.00071367   -0.00020052
     atom   11 type  2   force =     0.01603929    0.00272743   -0.26509293
     atom   12 type  2   force =    -0.01112564   -0.01698236    0.26408203
     atom   13 type  1   force =     0.01661974    0.01367660    0.00987688
     atom   14 type  2   force =    -0.18286102   -0.21071645    0.25157330
     atom   15 type  2   force =    -0.01359418   -0.00340735    0.26368522
     atom   16 type  1   force =    -0.00230312    0.03502401   -0.02601664
     atom   17 type  2   force =     0.00477671   -0.03382070   -0.25260524
     atom   18 type  2   force =    -0.00345402    0.00071203    0.27160343
     atom   19 type  1   force =     0.00179884    0.01219709   -0.02044155
     atom   20 type  2   force =     0.00118519   -0.02273309    0.26737394
     atom   21 type  1   force =     0.00311065    0.03605768    0.03303186
     atom   22 type  2   force =    -0.01681588    0.00051041   -0.24922860
     atom   23 type  2   force =     0.00403451   -0.01531211    0.26753986
     atom   24 type  1   force =     0.01381496    0.01711542   -0.00564078
     atom   25 type  2   force =    -0.01018571    0.01649019   -0.26862113
     atom   26 type  2   force =    -0.00469298   -0.01192981    0.25908262
     atom   27 type  1   force =    -0.00590119    0.00685897    0.01234880
     atom   28 type  2   force =    -0.00281178   -0.02388922   -0.27797097
     atom   29 type  2   force =     0.00612385    0.00182720    0.26378899
     atom   30 type  1   force =     0.00149190    0.02034974    0.00894998
     atom   31 type  2   force =    -0.00529384    0.00274036   -0.25403293
     atom   32 type  2   force =    -0.00188851   -0.01097664    0.27668511
     atom   33 type  1   force =    -0.00728658    0.00358877    0.00776032
     atom   34 type  2   force =    -0.00461679   -0.03739290   -0.27476383
     atom   35 type  2   force =    -0.00316620   -0.01077614    0.27148599
     atom   36 type  3   force =     0.98338703    1.08886358   -1.27374162
     The ionic contribution  to forces
     atom    1 type  1   force =     1.65660469    1.38036221    3.39669360
     atom    2 type  2   force =    -0.15706053    0.64137608   38.87694584
     atom    3 type  2   force =    -0.06635346    0.08859730  -36.77188387
     atom    4 type  1   force =     0.25536308    0.88180022   -0.31740583
     atom    5 type  2   force =    -0.62292774    2.06248142   38.42161807
     atom    6 type  2   force =     0.44195932   -0.33464060  -38.61892504
     atom    7 type  1   force =    -2.15937158   -3.53792891    1.22169428
     atom    8 type  2   force =    -0.88207374   -0.13890553   37.16232099
     atom    9 type  2   force =     0.37670242   -0.09546654  -38.48481442
     atom   10 type  1   force =    -0.50605514   -0.73608652    4.04377439
     atom   11 type  2   force =     0.57766097   -2.70312849   38.41860376
     atom   12 type  2   force =     0.61220044    0.50823478  -38.61404122
     atom   13 type  1   force =    -0.37974973    3.01692817   -0.90229169
     atom   14 type  2   force =     3.83536231    4.02483242   32.84044868
     atom   15 type  2   force =     0.29859261    0.09597269  -37.93074624
     atom   16 type  1   force =     0.14416496    4.52053420   -0.82945431
     atom   17 type  2   force =     0.60415234    2.41283087   37.46280996
     atom   18 type  2   force =    -0.20808448   -0.44220010  -39.22392358
     atom   19 type  1   force =     2.48230267   -3.49550964   -0.97334833
     atom   20 type  2   force =     0.26287962   -0.29504947  -39.04310134
     atom   21 type  1   force =     1.23894099   -1.55365625   -3.69343160
     atom   22 type  2   force =    -0.52803566   -4.44597625   36.71944364
     atom   23 type  2   force =    -0.17956421    0.41735850  -39.21707803
     atom   24 type  1   force =    -1.07284540    1.75352615    4.34695140
     atom   25 type  2   force =    -1.45486204    1.05504227   38.11043257
     atom   26 type  2   force =    -0.51350015    0.17714310  -38.21314371
     atom   27 type  1   force =    -0.29806533    0.83580260   -3.39995722
     atom   28 type  2   force =    -0.10064823    1.33252601   37.96237248
     atom   29 type  2   force =    -0.31064459   -0.30322692  -37.79052012
     atom   30 type  1   force =    -0.55186219   -1.39064758   -1.12278873
     atom   31 type  2   force =     1.01913666   -0.31603814   37.05039504
     atom   32 type  2   force =    -0.54685656   -0.08273025  -39.15690822
     atom   33 type  1   force =    -0.82976643   -1.66536180   -0.71982806
     atom   34 type  2   force =    -0.15843452   -1.86394546   39.00249991
     atom   35 type  2   force =    -0.37938464    0.34675286  -38.44299458
     atom   36 type  3   force =    -1.89987669   -2.15160339   48.42958152
     The local contribution  to forces
     atom    1 type  1   force =    -1.62497072   -1.39550520   -3.35473840
     atom    2 type  2   force =     0.15973045   -0.63016395  -38.62663529
     atom    3 type  2   force =     0.06722383   -0.08247391   36.51566703
     atom    4 type  1   force =    -0.25630462   -0.88986480    0.31027417
     atom    5 type  2   force =     0.61857770   -2.03005828  -38.19401568
     atom    6 type  2   force =    -0.44286928    0.33456928   38.37040388
     atom    7 type  1   force =     2.18642407    3.51606604   -1.20896609
     atom    8 type  2   force =     0.87955385    0.13875993  -36.90873187
     atom    9 type  2   force =    -0.37115416    0.11041960   38.23860254
     atom   10 type  1   force =     0.48908198    0.74142917   -4.07308834
     atom   11 type  2   force =    -0.58951294    2.70016432  -38.18125059
     atom   12 type  2   force =    -0.60159727   -0.49228639   38.37638311
     atom   13 type  1   force =     0.36414863   -3.02163672    0.87719237
     atom   14 type  2   force =    -3.75761619   -3.90641227  -33.06837528
     atom   15 type  2   force =    -0.29750530   -0.09004145   37.68020004
     atom   16 type  1   force =    -0.14390150   -4.54639686    0.85983989
     atom   17 type  2   force =    -0.60367902   -2.37791610  -37.22691395
     atom   18 type  2   force =     0.20875835    0.44056400   38.98501455
     atom   19 type  1   force =    -2.48230507    3.46691407    0.98674847
     atom   20 type  2   force =    -0.26081404    0.31275609   38.79554772
     atom   21 type  1   force =    -1.23170616    1.51038437    3.61633289
     atom   22 type  2   force =     0.53629406    4.43328521  -36.50873124
     atom   23 type  2   force =     0.17322656   -0.40181049   38.97966017
     atom   24 type  1   force =     1.05077213   -1.77559429   -4.35924710
     atom   25 type  2   force =     1.47405766   -1.04683941  -37.86549066
     atom   26 type  2   force =     0.50682442   -0.16867807   37.97052543
     atom   27 type  1   force =     0.30404128   -0.84397064    3.39282502
     atom   28 type  2   force =     0.10410741   -1.31135522  -37.70909544
     atom   29 type  2   force =     0.30683370    0.30187271   37.54331458
     atom   30 type  1   force =     0.54620072    1.38104174    1.10897731
     atom   31 type  2   force =    -1.01248706    0.31462513  -36.80039454
     atom   32 type  2   force =     0.54001244    0.10090043   38.90862913
     atom   33 type  1   force =     0.85148065    1.66029259    0.70317549
     atom   34 type  2   force =     0.16620531    1.85663035  -38.75782643
     atom   35 type  2   force =     0.37252656   -0.32971267   38.20484487
     atom   36 type  3   force =     1.00324029    1.15509786  -47.12308837
     The core correction contribution to forces
     atom    1 type  1   force =     0.00000000    0.00000000    0.00000000
     atom    2 type  2   force =     0.00049943   -0.00046804    0.02100954
     atom    3 type  2   force =     0.00073930   -0.00011527   -0.02085396
     atom    4 type  1   force =     0.00000000    0.00000000    0.00000000
     atom    5 type  2   force =    -0.00055209    0.00199132    0.02046951
     atom    6 type  2   force =     0.00011127   -0.00088931   -0.02102958
     atom    7 type  1   force =     0.00000000    0.00000000    0.00000000
     atom    8 type  2   force =    -0.00008840    0.00059904    0.02057126
     atom    9 type  2   force =    -0.00010271    0.00052063   -0.02111321
     atom   10 type  1   force =     0.00000000    0.00000000    0.00000000
     atom   11 type  2   force =    -0.00083966   -0.00041710    0.02102685
     atom   12 type  2   force =     0.00101597    0.00141180   -0.02088631
     atom   13 type  1   force =     0.00000000    0.00000000    0.00000000
     atom   14 type  2   force =     0.01093971    0.01217639   -0.00746203
     atom   15 type  2   force =     0.00071694    0.00021171   -0.02080966
     atom   16 type  1   force =     0.00000000    0.00000000    0.00000000
     atom   17 type  2   force =    -0.00019789    0.00176773    0.02039170
     atom   18 type  2   force =     0.00001268   -0.00073941   -0.02094670
     atom   19 type  1   force =     0.00000000    0.00000000    0.00000000
     atom   20 type  2   force =     0.00004550    0.00093808   -0.02125815
     atom   21 type  1   force =     0.00000000    0.00000000    0.00000000
     atom   22 type  2   force =     0.00093235    0.00044772    0.02067108
     atom   23 type  2   force =    -0.00037077    0.00132067   -0.02085269
     atom   24 type  1   force =     0.00000000    0.00000000    0.00000000
     atom   25 type  2   force =     0.00129312   -0.00119067    0.02150018
     atom   26 type  2   force =    -0.00002700    0.00060551   -0.02066589
     atom   27 type  1   force =     0.00000000    0.00000000    0.00000000
     atom   28 type  2   force =     0.00023703    0.00178920    0.02115463
     atom   29 type  2   force =    -0.00050774   -0.00060414   -0.02059147
     atom   30 type  1   force =     0.00000000    0.00000000    0.00000000
     atom   31 type  2   force =     0.00034459    0.00001936    0.02057545
     atom   32 type  2   force =    -0.00016521    0.00065659   -0.02117485
     atom   33 type  1   force =     0.00000000    0.00000000    0.00000000
     atom   34 type  2   force =     0.00059012    0.00118996    0.02122694
     atom   35 type  2   force =    -0.00002596    0.00093648   -0.02111719
     atom   36 type  3   force =    -0.01090517   -0.01221025    0.01343479
     The Hubbard contrib.    to forces
     atom    1 type  1   force =     0.00000000    0.00000000    0.00000000
     atom    2 type  2   force =     0.00000000    0.00000000    0.00000000
     atom    3 type  2   force =     0.00000000    0.00000000    0.00000000
     atom    4 type  1   force =     0.00000000    0.00000000    0.00000000
     atom    5 type  2   force =     0.00000000    0.00000000    0.00000000
     atom    6 type  2   force =     0.00000000    0.00000000    0.00000000
     atom    7 type  1   force =     0.00000000    0.00000000    0.00000000
     atom    8 type  2   force =     0.00000000    0.00000000    0.00000000
     atom    9 type  2   force =     0.00000000    0.00000000    0.00000000
     atom   10 type  1   force =     0.00000000    0.00000000    0.00000000
     atom   11 type  2   force =     0.00000000    0.00000000    0.00000000
     atom   12 type  2   force =     0.00000000    0.00000000    0.00000000
     atom   13 type  1   force =     0.00000000    0.00000000    0.00000000
     atom   14 type  2   force =     0.00000000    0.00000000    0.00000000
     atom   15 type  2   force =     0.00000000    0.00000000    0.00000000
     atom   16 type  1   force =     0.00000000    0.00000000    0.00000000
     atom   17 type  2   force =     0.00000000    0.00000000    0.00000000
     atom   18 type  2   force =     0.00000000    0.00000000    0.00000000
     atom   19 type  1   force =     0.00000000    0.00000000    0.00000000
     atom   20 type  2   force =     0.00000000    0.00000000    0.00000000
     atom   21 type  1   force =     0.00000000    0.00000000    0.00000000
     atom   22 type  2   force =     0.00000000    0.00000000    0.00000000
     atom   23 type  2   force =     0.00000000    0.00000000    0.00000000
     atom   24 type  1   force =     0.00000000    0.00000000    0.00000000
     atom   25 type  2   force =     0.00000000    0.00000000    0.00000000
     atom   26 type  2   force =     0.00000000    0.00000000    0.00000000
     atom   27 type  1   force =     0.00000000    0.00000000    0.00000000
     atom   28 type  2   force =     0.00000000    0.00000000    0.00000000
     atom   29 type  2   force =     0.00000000    0.00000000    0.00000000
     atom   30 type  1   force =     0.00000000    0.00000000    0.00000000
     atom   31 type  2   force =     0.00000000    0.00000000    0.00000000
     atom   32 type  2   force =     0.00000000    0.00000000    0.00000000
     atom   33 type  1   force =     0.00000000    0.00000000    0.00000000
     atom   34 type  2   force =     0.00000000    0.00000000    0.00000000
     atom   35 type  2   force =     0.00000000    0.00000000    0.00000000
     atom   36 type  3   force =     0.00000000    0.00000000    0.00000000
     The SCF correction term to forces
     atom    1 type  1   force =    -0.00018027   -0.00004470    0.00101985
     atom    2 type  2   force =    -0.00002142   -0.00000801    0.00010737
     atom    3 type  2   force =     0.00000265   -0.00000585    0.00066242
     atom    4 type  1   force =     0.00000535    0.00022558    0.00105739
     atom    5 type  2   force =     0.00001032    0.00008932    0.00012701
     atom    6 type  2   force =    -0.00000626    0.00008937    0.00067578
     atom    7 type  1   force =    -0.00000004   -0.00015503    0.00094807
     atom    8 type  2   force =     0.00004471   -0.00005501    0.00013502
     atom    9 type  2   force =     0.00000192   -0.00001324    0.00072826
     atom   10 type  1   force =    -0.00006770   -0.00010570    0.00092467
     atom   11 type  2   force =    -0.00005306    0.00001659    0.00013591
     atom   12 type  2   force =    -0.00000217   -0.00003802    0.00069191
     atom   13 type  1   force =     0.00013940   -0.00004542    0.00116355
     atom   14 type  2   force =    -0.00012878   -0.00012552    0.00006752
     atom   15 type  2   force =    -0.00000401    0.00000165    0.00074284
     atom   16 type  1   force =     0.00001987    0.00006346    0.00101833
     atom   17 type  2   force =     0.00000207    0.00001954    0.00010450
     atom   18 type  2   force =     0.00000588    0.00005988    0.00070477
     atom   19 type  1   force =     0.00001718   -0.00011790    0.00097501
     atom   20 type  2   force =    -0.00000420   -0.00000097    0.00076991
     atom   21 type  1   force =    -0.00000991   -0.00000733    0.00122757
     atom   22 type  2   force =     0.00008522    0.00004187    0.00014266
     atom   23 type  2   force =     0.00004046   -0.00007640    0.00069855
     atom   24 type  1   force =     0.00002003    0.00014419    0.00087068
     atom   25 type  2   force =     0.00011167    0.00004055    0.00015050
     atom   26 type  2   force =     0.00000309    0.00006229    0.00068352
     atom   27 type  1   force =    -0.00004791    0.00015550    0.00103573
     atom   28 type  2   force =    -0.00001069    0.00009355    0.00012711
     atom   29 type  2   force =     0.00000109    0.00005821    0.00068642
     atom   30 type  1   force =    -0.00000162   -0.00013718    0.00108357
     atom   31 type  2   force =    -0.00005494   -0.00000413    0.00010693
     atom   32 type  2   force =     0.00000632   -0.00001070    0.00073408
     atom   33 type  1   force =     0.00009414   -0.00014198    0.00104723
     atom   34 type  2   force =    -0.00001715   -0.00011028    0.00013316
     atom   35 type  2   force =    -0.00003975   -0.00009023    0.00067830
     atom   36 type  3   force =    -0.00004167   -0.00011635    0.00011641

     Total force =     0.207444     Total SCF correction =     0.004408

     BFGS Geometry Optimization
     Energy error            =      0.0E+00 Ry
     Gradient error          =      9.4E-02 Ry/Bohr

     number of scf cycles    =   1
     number of bfgs steps    =   0

     energy             new  =   -2246.3088886226 Ry

     new trust radius        =       0.1248912105 bohr
     new conv_thr            =       0.0000010000 Ry


ATOMIC_POSITIONS (angstrom)
Mo            6.5926929028        1.7831688889        2.8370733871
S             8.1721263395        0.8195245315        4.4325745422
S             8.1858496255        0.8144246255        1.2743275747
Mo            8.0977291800        4.4969620228        2.7180298330
S             6.5003717775        3.7228935315        4.3430519106
S             6.5540225399        3.5155722214        1.1196268039
Mo            6.4952896397        7.2101701617        2.6682965258
S             8.0822095439        6.3417635484        4.2515706069
S             8.0873709107        6.3083880796        1.0903927592
Mo            8.1541516386        9.9053290670        2.8283485204
S             6.4969108700        8.9425893302        4.3796409637
S             6.6182070470        9.0488907599        1.1432196453
Mo            3.4222723281        1.7516772313        2.7690473456
S             4.9252618254        0.7744768753        4.3591492072
S             5.0515925119        0.8477103245        1.2230082539
Mo            4.9786877032        4.5180592890        2.6357511977
S             3.4305160862        3.6731241486        4.2817293829
S             3.4364590624        3.5473798330        1.0649570746
Mo            3.4548213206        7.2075841698        2.6274824938
S             4.9849761248        6.3247680150        1.0369161132
Mo            5.0177331224        9.8977783145        2.7207472138
S             3.4669680167        8.9375643633        4.3162394017
S             3.4070354519        9.0657729818        1.1013588901
Mo            0.2917308295        1.7449646928        2.8404297002
S             1.8559732810        0.8051521149        4.3971518098
S             1.8547711666        0.8529455453        1.2075550241
Mo            1.8607053677        4.4950560399        2.6635217995
S             0.2726760658        3.6539563266        4.3357942768
S             0.2321869193        3.5272103448        1.1702759955
Mo            0.2689446958        7.2222586518        2.6997130891
S             1.9031088088        6.3135090250        4.2312707222
S             1.8575328812        6.3144919897        1.0487901408
Mo            1.8520311082        9.9392803332        2.7688106742
S             0.2978849815        9.0669104374        4.4092654391
S             0.2714318530        9.0472880471        1.1572416135
O             4.2431179293       10.9712505474        5.5024016047



     Writing config-only to output data dir ./MoS2-V-O.save/
     NEW-OLD atomic charge density approx. for the potential

     negative rho (up, down):  1.754E-04 0.000E+00

     total cpu time spent up to now is      120.2 secs

     Self-consistent Calculation

     iteration #  1     ecut=    80.00 Ry     beta= 0.70
     Davidson diagonalization with overlap
     ethr =  1.00E-06,  avg # of iterations = 11.0

     negative rho (up, down):  8.973E-05 0.000E+00

     total cpu time spent up to now is      134.9 secs

     total energy              =   -2246.34180708 Ry
     estimated scf accuracy    <       0.00634112 Ry

     iteration #  2     ecut=    80.00 Ry     beta= 0.70
     Davidson diagonalization with overlap
     ethr =  2.03E-06,  avg # of iterations =  4.0

     negative rho (up, down):  7.668E-05 0.000E+00

     total cpu time spent up to now is      149.2 secs

     total energy              =   -2246.34279508 Ry
     estimated scf accuracy    <       0.00236954 Ry

     iteration #  3     ecut=    80.00 Ry     beta= 0.70
     Davidson diagonalization with overlap
     ethr =  7.59E-07,  avg # of iterations =  2.0

     negative rho (up, down):  4.821E-05 0.000E+00

     total cpu time spent up to now is      165.9 secs

     total energy              =   -2246.34288770 Ry
     estimated scf accuracy    <       0.00037750 Ry

     iteration #  4     ecut=    80.00 Ry     beta= 0.70
     Davidson diagonalization with overlap
     ethr =  1.21E-07,  avg # of iterations =  4.0

     negative rho (up, down):  4.407E-05 0.000E+00

     total cpu time spent up to now is      177.5 secs

     total energy              =   -2246.34294018 Ry
     estimated scf accuracy    <       0.00004794 Ry

     iteration #  5     ecut=    80.00 Ry     beta= 0.70
     Davidson diagonalization with overlap
     ethr =  1.54E-08,  avg # of iterations =  4.0

     negative rho (up, down):  4.626E-05 0.000E+00

     total cpu time spent up to now is      191.5 secs

     total energy              =   -2246.34294699 Ry
     estimated scf accuracy    <       0.00000872 Ry

     iteration #  6     ecut=    80.00 Ry     beta= 0.70
     Davidson diagonalization with overlap
     ethr =  2.80E-09,  avg # of iterations =  5.0

     negative rho (up, down):  5.281E-05 0.000E+00

     total cpu time spent up to now is      203.6 secs

     total energy              =   -2246.34294907 Ry
     estimated scf accuracy    <       0.00000422 Ry

     iteration #  7     ecut=    80.00 Ry     beta= 0.70
     Davidson diagonalization with overlap
     ethr =  1.35E-09,  avg # of iterations =  2.0

     negative rho (up, down):  6.627E-05 0.000E+00

     total cpu time spent up to now is      216.4 secs

     total energy              =   -2246.34294927 Ry
     estimated scf accuracy    <       0.00000120 Ry

     iteration #  8     ecut=    80.00 Ry     beta= 0.70
     Davidson diagonalization with overlap
     ethr =  3.83E-10,  avg # of iterations =  4.0

     negative rho (up, down):  2.020E-04 0.000E+00

     total cpu time spent up to now is      220.7 secs

     End of self-consistent calculation

          k = 0.0000 0.0000 0.0000 (105382 PWs)   bands (ev):

   -63.0379 -62.9921 -62.9767 -62.9684 -62.9138 -62.9039 -62.8937 -62.8828
   -62.8721 -62.8631 -62.8316 -62.8196 -37.3460 -37.2926 -37.2747 -37.2413
   -37.2393 -37.2214 -37.2059 -37.1784 -37.1744 -37.1556 -37.1556 -37.1503
   -37.1396 -37.1181 -37.1048 -37.1014 -37.0962 -37.0775 -37.0697 -37.0655
   -37.0486 -37.0350 -37.0269 -37.0210 -37.0177 -37.0143 -37.0038 -36.9917
   -36.9767 -36.9655 -36.9559 -36.9380 -36.9203 -36.8745 -36.8602 -36.8134
   -22.4085 -16.0185 -15.2764 -15.1897 -15.0532 -14.9764 -14.7917 -14.6038
   -14.5599 -14.5226 -14.5002 -14.4652 -14.4323 -14.3858 -14.2742 -14.2381
   -14.2097 -14.1975 -14.1844 -13.9849 -13.9516 -13.9241 -13.8843 -13.7338
    -8.0730  -7.9013  -7.7463  -7.5172  -7.5029  -7.3645  -7.3427  -7.2573
    -7.2357  -7.0894  -6.9335  -6.8761  -6.8296  -6.7714  -6.7420  -6.6938
    -6.5498  -6.5272  -6.4307  -6.3486  -6.2070  -6.0663  -6.0148  -5.9264
    -5.8999  -5.8729  -5.8279  -5.7851  -5.7525  -5.7404  -5.7075  -5.5890
    -5.5773  -5.5369  -5.4849  -5.3682  -5.2759  -5.1753  -5.1477  -5.0968
    -5.0663  -5.0111  -4.9323  -4.8749  -4.8441  -4.6072  -4.5007  -4.3856
    -4.3356  -4.3237  -4.2307  -4.1886  -4.0911  -4.0597  -3.8932  -3.8733
    -3.7911  -3.7485  -3.6879  -3.6350  -3.6198  -3.6053  -3.5890  -3.5536
    -3.5227  -3.4710  -3.3968  -3.3189  -3.1097  -3.0246  -3.0106  -2.9034
    -2.8796  -2.8397  -2.7983  -2.7848  -2.7328  -2.6822  -2.6449  -2.4296
    -2.3119  -2.0660  -2.0249  -1.9527  -0.9399  -0.8281  -0.6929  -0.2441
    -0.2374  -0.1699  -0.0674  -0.0247   0.0437   0.0721   0.1517   0.1951
     0.2008   0.3174   0.3698   0.4493   0.4642   0.4725   0.5104   0.5451
     0.5894   0.6454   0.6506   0.6833   0.7331   0.8028   0.8553   0.8768
     0.9064   0.9981   1.1807

     the Fermi energy is    -1.4462 ev

!    total energy              =   -2246.34294951 Ry
     estimated scf accuracy    <       0.00000024 Ry
     smearing contrib. (-TS)   =      -0.00000001 Ry
     internal energy E=F+TS    =   -2246.34294949 Ry

     The total energy is F=E-TS. E is the sum of the following terms:
     one-electron contribution =  -18437.34249941 Ry
     hartree contribution      =    9206.54302158 Ry
     xc contribution           =    -392.11320498 Ry
     ewald contribution        =    7386.42811942 Ry
     one-center paw contrib.   =      -9.85838611 Ry

     convergence has been achieved in   8 iterations

     negative rho (up, down):  2.020E-04 0.000E+00

     Forces acting on atoms (cartesian axes, Ry/au):

     atom    1 type  1   force =     0.00409834   -0.01135952    0.01900204
     atom    2 type  2   force =    -0.00481973    0.01115593   -0.00211284
     atom    3 type  2   force =    -0.01204813    0.00628335   -0.00953848
     atom    4 type  1   force =     0.00490214    0.00320625    0.00061621
     atom    5 type  2   force =     0.00157202    0.00003711   -0.00395429
     atom    6 type  2   force =     0.00138253    0.00542410    0.00220975
     atom    7 type  1   force =     0.00679480   -0.01025518   -0.00050043
     atom    8 type  2   force =     0.00189983   -0.00377261    0.01272367
     atom    9 type  2   force =     0.01165581    0.00534907    0.00743817
     atom   10 type  1   force =    -0.00397242    0.00680244   -0.00923182
     atom   11 type  2   force =     0.00228409   -0.00004985   -0.01144738
     atom   12 type  2   force =     0.00368383   -0.00359990   -0.00360423
     atom   13 type  1   force =    -0.00567587    0.00468930   -0.00714252
     atom   14 type  2   force =    -0.03703281   -0.03617887   -0.04507496
     atom   15 type  2   force =    -0.00319006    0.00663958   -0.00342387
     atom   16 type  1   force =     0.00144010    0.00629934    0.00378349
     atom   17 type  2   force =     0.00506269    0.00209104    0.00347236
     atom   18 type  2   force =    -0.00162373    0.00100504    0.00850094
     atom   19 type  1   force =     0.00157859   -0.01033302   -0.00162526
     atom   20 type  2   force =     0.00341784   -0.00434667   -0.00309625
     atom   21 type  1   force =    -0.00254059   -0.00961525   -0.01804572
     atom   22 type  2   force =    -0.00176596   -0.01258021   -0.01876756
     atom   23 type  2   force =    -0.00343339   -0.00155908    0.00186054
     atom   24 type  1   force =    -0.00509973   -0.00310496   -0.00942763
     atom   25 type  2   force =     0.00602951    0.01854386   -0.00542245
     atom   26 type  2   force =    -0.00786874   -0.00239388   -0.00585623
     atom   27 type  1   force =    -0.00059293    0.00013685    0.00597193
     atom   28 type  2   force =     0.00060622   -0.00183104   -0.00380366
     atom   29 type  2   force =     0.00165614    0.00142598   -0.00352800
     atom   30 type  1   force =    -0.00214886    0.00240037    0.00340592
     atom   31 type  2   force =     0.00027458   -0.00007273    0.01119623
     atom   32 type  2   force =    -0.00817741    0.00583179    0.00603785
     atom   33 type  1   force =     0.00488593   -0.00090116   -0.00076582
     atom   34 type  2   force =     0.00091023   -0.03112942   -0.01370843
     atom   35 type  2   force =    -0.00651753    0.00781823    0.00684654
     atom   36 type  3   force =     0.04237265    0.04794372    0.08701219
     The non-local contrib.  to forces
     atom    1 type  1   force =     0.00368782    0.00798147   -0.01578820
     atom    2 type  2   force =    -0.00918493    0.00304907   -0.27223826
     atom    3 type  2   force =    -0.01233760   -0.00114995    0.26597408
     atom    4 type  1   force =     0.00577035    0.01199823    0.00649971
     atom    5 type  2   force =     0.00596729   -0.03464311   -0.25339165
     atom    6 type  2   force =     0.00217969    0.00723017    0.26896453
     atom    7 type  1   force =    -0.01650995    0.00516469   -0.02243994
     atom    8 type  2   force =     0.00409115   -0.00430514   -0.25940449
     atom    9 type  2   force =     0.00599818   -0.01005046    0.27583931
     atom   10 type  1   force =     0.00269759    0.00069563   -0.00095219
     atom   11 type  2   force =     0.01432495    0.00182790   -0.26765120
     atom   12 type  2   force =    -0.00749097   -0.01983328    0.25809717
     atom   13 type  1   force =     0.01888610    0.01210964    0.01160076
     atom   14 type  2   force =    -0.13357630   -0.16312280    0.22815637
     atom   15 type  2   force =    -0.00782068   -0.00375427    0.26695669
     atom   16 type  1   force =    -0.00309643    0.03423035   -0.02718239
     atom   17 type  2   force =     0.00415233   -0.03330933   -0.25184196
     atom   18 type  2   force =    -0.00262594    0.00336618    0.26915080
     atom   19 type  1   force =     0.00351762    0.00899163   -0.02164884
     atom   20 type  2   force =     0.00160638   -0.02186350    0.26543917
     atom   21 type  1   force =     0.00372322    0.04085118    0.03559256
     atom   22 type  2   force =    -0.01679278   -0.01018938   -0.26231138
     atom   23 type  2   force =     0.00531670   -0.01827555    0.26419814
     atom   24 type  1   force =     0.01030970    0.01813453   -0.00482922
     atom   25 type  2   force =    -0.01181560    0.01347150   -0.27344457
     atom   26 type  2   force =    -0.00179058   -0.01044738    0.25892092
     atom   27 type  1   force =    -0.00557541    0.00680840    0.01135197
     atom   28 type  2   force =    -0.00307639   -0.02396470   -0.27856233
     atom   29 type  2   force =     0.00608145    0.00117426    0.26466407
     atom   30 type  1   force =     0.00068523    0.02129634    0.00757942
     atom   31 type  2   force =    -0.00584056    0.00146032   -0.25813323
     atom   32 type  2   force =    -0.00159337   -0.01209042    0.27514791
     atom   33 type  1   force =    -0.00485994    0.00370088    0.00544973
     atom   34 type  2   force =    -0.00582381   -0.02761315   -0.27933026
     atom   35 type  2   force =    -0.00119269   -0.00978459    0.26853667
     atom   36 type  3   force =     1.01622668    1.14233161   -1.50305296
     The ionic contribution  to forces
     atom    1 type  1   force =     0.91075034    1.43162178    4.26712486
     atom    2 type  2   force =    -0.02155664    0.44724766   38.96897143
     atom    3 type  2   force =    -0.08272495    0.13689893  -36.89413592
     atom    4 type  1   force =     0.22247337    0.82114903   -0.28883031
     atom    5 type  2   force =    -0.68643452    2.01774955   38.37098322
     atom    6 type  2   force =     0.36515949   -0.42125120  -38.53410724
     atom    7 type  1   force =    -2.25845604   -3.39240198    1.24307252
     atom    8 type  2   force =    -0.87529175   -0.11273495   37.30725196
     atom    9 type  2   force =     0.38743828   -0.15196177  -38.47703826
     atom   10 type  1   force =    -0.26042472   -0.68959946    3.76145760
     atom   11 type  2   force =     0.52304985   -2.65589357   38.36892470
     atom   12 type  2   force =     0.61903748    0.40600641  -38.65706249
     atom   13 type  1   force =    -0.18109987    2.96135433   -1.18442462
     atom   14 type  2   force =     4.10467673    4.26206830   31.86753847
     atom   15 type  2   force =     0.39080351    0.28336604  -37.84671902
     atom   16 type  1   force =     0.23437562    4.23798548   -0.64544358
     atom   17 type  2   force =     0.63227334    2.34626705   37.49100820
     atom   18 type  2   force =    -0.16667490   -0.40903105  -39.16850280
     atom   19 type  1   force =     2.47369424   -3.35257042   -0.99407408
     atom   20 type  2   force =     0.25486075   -0.30554253  -39.09883225
     atom   21 type  1   force =     1.11865449   -1.44932481   -4.43775203
     atom   22 type  2   force =    -0.40762722   -4.23967923   36.69947328
     atom   23 type  2   force =    -0.23737692    0.34703374  -39.18441500
     atom   24 type  1   force =    -0.86106908    1.63442920    4.08174879
     atom   25 type  2   force =    -1.51246139    0.93530343   38.07437972
     atom   26 type  2   force =    -0.48137529    0.17391973  -38.19601975
     atom   27 type  1   force =    -0.33308376    0.85652566   -3.18084267
     atom   28 type  2   force =    -0.08486264    1.26834207   37.95695593
     atom   29 type  2   force =    -0.29171817   -0.25897958  -37.81289127
     atom   30 type  1   force =    -0.43124592   -1.47178921   -1.08635265
     atom   31 type  2   force =     1.00363843   -0.28335396   37.13949533
     atom   32 type  2   force =    -0.54967704   -0.12137688  -39.11737603
     atom   33 type  1   force =    -0.94749332   -1.50727149   -0.51983204
     atom   34 type  2   force =    -0.18513072   -1.62983632   38.93001984
     atom   35 type  2   force =    -0.29426335    0.36068388  -38.37415383
     atom   36 type  3   force =    -2.09083772   -2.47535387   49.17039999
     The local contribution  to forces
     atom    1 type  1   force =    -0.91039113   -1.45086972   -4.23278089
     atom    2 type  2   force =     0.02544987   -0.43875000  -38.72003590
     atom    3 type  2   force =     0.08248244   -0.12943570   36.63938390
     atom    4 type  1   force =    -0.22319701   -0.82981106    0.28261517
     atom    5 type  2   force =     0.68266333   -1.98507386  -38.14213902
     atom    6 type  2   force =    -0.36599012    0.42042197   38.28838828
     atom    7 type  1   force =     2.28181404    3.37692187   -1.22137202
     atom    8 type  2   force =     0.87324752    0.11266845  -37.05601157
     atom    9 type  2   force =    -0.38170059    0.16678241   38.22969021
     atom   10 type  1   force =     0.25386678    0.69555620   -3.76998439
     atom   11 type  2   force =    -0.53434560    2.65434950  -38.13400490
     atom   12 type  2   force =    -0.60874430   -0.39122826   38.41607237
     atom   13 type  1   force =     0.15642837   -2.96879165    1.16542451
     atom   14 type  2   force =    -4.01639696   -4.14461786  -32.13462146
     atom   15 type  2   force =    -0.38675358   -0.27336612   37.59722205
     atom   16 type  1   force =    -0.22987596   -4.26585878    0.67607625
     atom   17 type  2   force =    -0.63127135   -2.31255355  -37.25624162
     atom   18 type  2   force =     0.16765462    0.40751173   38.92870458
     atom   19 type  1   force =    -2.47578596    3.33320336    1.01386650
     atom   20 type  2   force =    -0.25310780    0.32215056   38.85148725
     atom   21 type  1   force =    -1.12503993    1.39877399    4.38393241
     atom   22 type  2   force =     0.42168141    4.23649065  -36.47731990
     atom   23 type  2   force =     0.22908741   -0.33173003   38.94282884
     atom   24 type  1   force =     0.84580938   -1.65555879   -4.08663780
     atom   25 type  2   force =     1.52915273   -0.92922304  -37.82817363
     atom   26 type  2   force =     0.47545442   -0.16639370   37.95188159
     atom   27 type  1   force =     0.33795388   -0.86307361    3.17518781
     atom   28 type  2   force =     0.08834024   -1.24786925  -37.70359154
     atom   29 type  2   force =     0.28779984    0.25982555   37.56531709
     atom   30 type  1   force =     0.42848852    1.45275431    1.08194619
     atom   31 type  2   force =    -0.99789414    0.28170129  -36.89110417
     atom   32 type  2   force =     0.54328462    0.13860842   38.86940511
     atom   33 type  1   force =     0.95723727    1.50260364    0.51340779
     atom   34 type  2   force =     0.19131791    1.62539640  -38.68599410
     atom   35 type  2   force =     0.28903058   -0.34404715   38.13347845
     atom   36 type  3   force =     1.12779524    1.39327646  -47.59630619
     The core correction contribution to forces
     atom    1 type  1   force =     0.00000000    0.00000000    0.00000000
     atom    2 type  2   force =     0.00050761   -0.00039451    0.02097685
     atom    3 type  2   force =     0.00054810   -0.00001662   -0.02080273
     atom    4 type  1   force =     0.00000000    0.00000000    0.00000000
     atom    5 type  2   force =    -0.00059187    0.00205648    0.02039273
     atom    6 type  2   force =     0.00005348   -0.00094238   -0.02107751
     atom    7 type  1   force =     0.00000000    0.00000000    0.00000000
     atom    8 type  2   force =    -0.00009485    0.00059919    0.02066159
     atom    9 type  2   force =    -0.00004375    0.00055299   -0.02106234
     atom   10 type  1   force =     0.00000000    0.00000000    0.00000000
     atom   11 type  2   force =    -0.00076249   -0.00037208    0.02106534
     atom   12 type  2   force =     0.00087496    0.00142275   -0.02072488
     atom   13 type  1   force =     0.00000000    0.00000000    0.00000000
     atom   14 type  2   force =     0.00806426    0.00931516   -0.00624070
     atom   15 type  2   force =     0.00055911    0.00039495   -0.02091297
     atom   16 type  1   force =     0.00000000    0.00000000    0.00000000
     atom   17 type  2   force =    -0.00016345    0.00171926    0.02034825
     atom   18 type  2   force =    -0.00001489   -0.00081403   -0.02089438
     atom   19 type  1   force =     0.00000000    0.00000000    0.00000000
     atom   20 type  2   force =     0.00004135    0.00090111   -0.02121978
     atom   21 type  1   force =     0.00000000    0.00000000    0.00000000
     atom   22 type  2   force =     0.00097070    0.00084330    0.02121699
     atom   23 type  2   force =    -0.00048147    0.00138399   -0.02075924
     atom   24 type  1   force =     0.00000000    0.00000000    0.00000000
     atom   25 type  2   force =     0.00120508   -0.00102210    0.02161616
     atom   26 type  2   force =    -0.00015300    0.00053649   -0.02065886
     atom   27 type  1   force =     0.00000000    0.00000000    0.00000000
     atom   28 type  2   force =     0.00024137    0.00172702    0.02118109
     atom   29 type  2   force =    -0.00049461   -0.00053249   -0.02063555
     atom   30 type  1   force =     0.00000000    0.00000000    0.00000000
     atom   31 type  2   force =     0.00033428    0.00011606    0.02070096
     atom   32 type  2   force =    -0.00021764    0.00067478   -0.02113225
     atom   33 type  1   force =     0.00000000    0.00000000    0.00000000
     atom   34 type  2   force =     0.00057301    0.00084639    0.02137498
     atom   35 type  2   force =    -0.00006912    0.00090229   -0.02102726
     atom   36 type  3   force =    -0.01101396   -0.01249741    0.01554450
     The Hubbard contrib.    to forces
     atom    1 type  1   force =     0.00000000    0.00000000    0.00000000
     atom    2 type  2   force =     0.00000000    0.00000000    0.00000000
     atom    3 type  2   force =     0.00000000    0.00000000    0.00000000
     atom    4 type  1   force =     0.00000000    0.00000000    0.00000000
     atom    5 type  2   force =     0.00000000    0.00000000    0.00000000
     atom    6 type  2   force =     0.00000000    0.00000000    0.00000000
     atom    7 type  1   force =     0.00000000    0.00000000    0.00000000
     atom    8 type  2   force =     0.00000000    0.00000000    0.00000000
     atom    9 type  2   force =     0.00000000    0.00000000    0.00000000
     atom   10 type  1   force =     0.00000000    0.00000000    0.00000000
     atom   11 type  2   force =     0.00000000    0.00000000    0.00000000
     atom   12 type  2   force =     0.00000000    0.00000000    0.00000000
     atom   13 type  1   force =     0.00000000    0.00000000    0.00000000
     atom   14 type  2   force =     0.00000000    0.00000000    0.00000000
     atom   15 type  2   force =     0.00000000    0.00000000    0.00000000
     atom   16 type  1   force =     0.00000000    0.00000000    0.00000000
     atom   17 type  2   force =     0.00000000    0.00000000    0.00000000
     atom   18 type  2   force =     0.00000000    0.00000000    0.00000000
     atom   19 type  1   force =     0.00000000    0.00000000    0.00000000
     atom   20 type  2   force =     0.00000000    0.00000000    0.00000000
     atom   21 type  1   force =     0.00000000    0.00000000    0.00000000
     atom   22 type  2   force =     0.00000000    0.00000000    0.00000000
     atom   23 type  2   force =     0.00000000    0.00000000    0.00000000
     atom   24 type  1   force =     0.00000000    0.00000000    0.00000000
     atom   25 type  2   force =     0.00000000    0.00000000    0.00000000
     atom   26 type  2   force =     0.00000000    0.00000000    0.00000000
     atom   27 type  1   force =     0.00000000    0.00000000    0.00000000
     atom   28 type  2   force =     0.00000000    0.00000000    0.00000000
     atom   29 type  2   force =     0.00000000    0.00000000    0.00000000
     atom   30 type  1   force =     0.00000000    0.00000000    0.00000000
     atom   31 type  2   force =     0.00000000    0.00000000    0.00000000
     atom   32 type  2   force =     0.00000000    0.00000000    0.00000000
     atom   33 type  1   force =     0.00000000    0.00000000    0.00000000
     atom   34 type  2   force =     0.00000000    0.00000000    0.00000000
     atom   35 type  2   force =     0.00000000    0.00000000    0.00000000
     atom   36 type  3   force =     0.00000000    0.00000000    0.00000000
     The SCF correction term to forces
     atom    1 type  1   force =     0.00004962   -0.00009486    0.00044380
     atom    2 type  2   force =    -0.00003732    0.00000188    0.00021058
     atom    3 type  2   force =    -0.00001781   -0.00001513    0.00003973
     atom    4 type  1   force =    -0.00014625   -0.00013176    0.00032918
     atom    5 type  2   force =    -0.00003389   -0.00005376    0.00019797
     atom    6 type  2   force =    -0.00002169   -0.00003628    0.00003924
     atom    7 type  1   force =    -0.00005494    0.00005842    0.00023654
     atom    8 type  2   force =    -0.00005393   -0.00000198    0.00022372
     atom    9 type  2   force =    -0.00003799    0.00002409    0.00000679
     atom   10 type  1   force =    -0.00011376    0.00014826    0.00024469
     atom   11 type  2   force =     0.00001571    0.00003659    0.00021622
     atom   12 type  2   force =     0.00000496    0.00003067    0.00001114
     atom   13 type  1   force =     0.00010786    0.00001515    0.00025437
     atom   14 type  2   force =     0.00019777    0.00017651    0.00008990
     atom   15 type  2   force =     0.00001989   -0.00000284    0.00002692
     atom   16 type  1   force =     0.00003518   -0.00005952    0.00033076
     atom   17 type  2   force =     0.00007013   -0.00003421    0.00019703
     atom   18 type  2   force =     0.00003570   -0.00002962    0.00004028
     atom   19 type  1   force =     0.00015101    0.00004059    0.00022870
     atom   20 type  2   force =     0.00001547    0.00000587    0.00002690
     atom   21 type  1   force =     0.00011994    0.00008257    0.00017888
     atom   22 type  2   force =     0.00000024   -0.00004737    0.00017098
     atom   23 type  2   force =     0.00001921    0.00002696    0.00000534
     atom   24 type  1   force =    -0.00015142   -0.00011171    0.00028814
     atom   25 type  2   force =    -0.00005299    0.00001227    0.00019742
     atom   26 type  2   force =    -0.00000598   -0.00001084    0.00001742
     atom   27 type  1   force =     0.00011067   -0.00012542    0.00027236
     atom   28 type  2   force =    -0.00003804   -0.00006799    0.00021073
     atom   29 type  2   force =    -0.00001406   -0.00006358    0.00001521
     atom   30 type  1   force =    -0.00007837    0.00013712    0.00023050
     atom   31 type  2   force =     0.00003488    0.00000174    0.00023488
     atom   32 type  2   force =     0.00002434    0.00001407   -0.00000935
     atom   33 type  1   force =     0.00000023    0.00006398    0.00020624
     atom   34 type  2   force =    -0.00002784    0.00007544    0.00021864
     atom   35 type  2   force =    -0.00002463    0.00006198    0.00001006
     atom   36 type  3   force =     0.00020073    0.00018511    0.00042439

     Total force =     0.148506     Total SCF correction =     0.001417
     Energy error            =      3.4E-02 Ry
     Gradient error          =      8.7E-02 Ry/Bohr

     number of scf cycles    =   2
     number of bfgs steps    =   1

     energy             old  =   -2246.3088886226 Ry
     energy             new  =   -2246.3429495056 Ry

     CASE: energy            _new < energy            _old

     new trust radius        =       0.1373803316 bohr
     new conv_thr            =       0.0000000870 Ry


ATOMIC_POSITIONS (angstrom)
Mo            6.6017112082        1.7760612940        2.8511857525
S             8.1680858584        0.8285682276        4.4308210331
S             8.1773453036        0.8185981630        1.2684918643
Mo            8.1010179621        4.4992017602        2.7183996714
S             6.5012851557        3.7230996955        4.3397962391
S             6.5549300336        3.5196009612        1.1200081038
Mo            6.5005340414        7.2021546401        2.6666575858
S             8.0832831525        6.3391807436        4.2610656868
S             8.0953280338        6.3123235313        1.0964155444
Mo            8.1497674117        9.9097309506        2.8181270982
S             6.4986577241        8.9424338790        4.3729519749
S             6.6200245575        9.0472845054        1.1428389000
Mo            3.4198689289        1.7557111905        2.7628119350
S             4.8884605243        0.7409882377        4.3415321914
S             5.0476612791        0.8513700762        1.2199833700
Mo            4.9789395508        4.5229057593        2.6386365483
S             3.4339218870        3.6746953528        4.2841380065
S             3.4351301633        3.5475153052        1.0715044650
Mo            3.4559325219        7.1993469618        2.6254739013
S             4.9872504818        6.3218955826        1.0353417878
Mo            5.0186928761        9.8918026659        2.7034662380
S             3.4645821037        8.9292810807        4.3038342973
S             3.4048902986        9.0653536633        1.1042984268
Mo            0.2876474535        1.7425214557        2.8325065542
S             1.8609408504        0.8186701360        4.3942119653
S             1.8487441135        0.8512505709        1.2041043123
Mo            1.8604347272        4.4948804770        2.6676057541
S             0.2731395144        3.6529301603        4.3333214669
S             0.2333327211        3.5278592405        1.1679503518
Mo            0.2670789456        7.2255757618        2.7005222185
S             1.9035778014        6.3137534273        4.2399437475
S             1.8518806705        6.3188334499        1.0532599671
Mo            1.8573176606        9.9385241175        2.7668335618
S             0.2990816303        9.0433659833        4.4010769204
S             0.2663042036        9.0524034792        1.1631107463
O             4.2785701058       11.0101739234        5.5525333490



     Writing config-only to output data dir ./MoS2-V-O.save/
     NEW-OLD atomic charge density approx. for the potential

     negative rho (up, down):  1.421E-04 0.000E+00

     total cpu time spent up to now is      228.7 secs

     Self-consistent Calculation

     iteration #  1     ecut=    80.00 Ry     beta= 0.70
     Davidson diagonalization with overlap
     ethr =  1.00E-06,  avg # of iterations = 13.0

     negative rho (up, down):  2.670E-04 0.000E+00

     total cpu time spent up to now is      241.0 secs

     total energy              =   -2246.36711618 Ry
     estimated scf accuracy    <       0.00370931 Ry

     iteration #  2     ecut=    80.00 Ry     beta= 0.70
     Davidson diagonalization with overlap
     ethr =  1.19E-06,  avg # of iterations =  4.0

     negative rho (up, down):  4.086E-04 0.000E+00

     total cpu time spent up to now is      256.8 secs

     total energy              =   -2246.36777015 Ry
     estimated scf accuracy    <       0.00169414 Ry

     iteration #  3     ecut=    80.00 Ry     beta= 0.70
     Davidson diagonalization with overlap
     ethr =  5.43E-07,  avg # of iterations =  2.0

     negative rho (up, down):  6.353E-04 0.000E+00

     total cpu time spent up to now is      271.1 secs

     total energy              =   -2246.36778407 Ry
     estimated scf accuracy    <       0.00030009 Ry

     iteration #  4     ecut=    80.00 Ry     beta= 0.70
     Davidson diagonalization with overlap
     ethr =  9.62E-08,  avg # of iterations =  4.0

     negative rho (up, down):  6.721E-04 0.000E+00

     total cpu time spent up to now is      286.3 secs

     total energy              =   -2246.36783936 Ry
     estimated scf accuracy    <       0.00005985 Ry

     iteration #  5     ecut=    80.00 Ry     beta= 0.70
     Davidson diagonalization with overlap
     ethr =  1.92E-08,  avg # of iterations =  2.0

     negative rho (up, down):  6.607E-04 0.000E+00

     total cpu time spent up to now is      300.0 secs

     total energy              =   -2246.36783990 Ry
     estimated scf accuracy    <       0.00001851 Ry

     iteration #  6     ecut=    80.00 Ry     beta= 0.70
     Davidson diagonalization with overlap
     ethr =  5.93E-09,  avg # of iterations =  4.0

     negative rho (up, down):  6.131E-04 0.000E+00

     total cpu time spent up to now is      313.4 secs

     total energy              =   -2246.36784413 Ry
     estimated scf accuracy    <       0.00000321 Ry

     iteration #  7     ecut=    80.00 Ry     beta= 0.70
     Davidson diagonalization with overlap
     ethr =  1.03E-09,  avg # of iterations =  5.0

     negative rho (up, down):  4.914E-04 0.000E+00

     total cpu time spent up to now is      324.8 secs

     total energy              =   -2246.36784482 Ry
     estimated scf accuracy    <       0.00000104 Ry

     iteration #  8     ecut=    80.00 Ry     beta= 0.70
     Davidson diagonalization with overlap
     ethr =  3.33E-10,  avg # of iterations =  3.0

     negative rho (up, down):  4.168E-04 0.000E+00

     total cpu time spent up to now is      337.0 secs

     total energy              =   -2246.36784492 Ry
     estimated scf accuracy    <       0.00000068 Ry

     iteration #  9     ecut=    80.00 Ry     beta= 0.70
     Davidson diagonalization with overlap
     ethr =  2.18E-10,  avg # of iterations =  2.0

     negative rho (up, down):  3.434E-04 0.000E+00

     total cpu time spent up to now is      346.5 secs

     total energy              =   -2246.36784483 Ry
     estimated scf accuracy    <       0.00000032 Ry

     iteration # 10     ecut=    80.00 Ry     beta= 0.70
     Davidson diagonalization with overlap
     ethr =  1.04E-10,  avg # of iterations =  3.0

     negative rho (up, down):  1.999E-04 0.000E+00

     total cpu time spent up to now is      350.7 secs

     End of self-consistent calculation

          k = 0.0000 0.0000 0.0000 (105382 PWs)   bands (ev):

   -63.0157 -62.9952 -62.9839 -62.9765 -62.9202 -62.9077 -62.8988 -62.8927
   -62.8796 -62.8757 -62.8451 -62.8307 -37.3408 -37.2855 -37.2781 -37.2490
   -37.2328 -37.2206 -37.2088 -37.1814 -37.1803 -37.1602 -37.1584 -37.1524
   -37.1453 -37.1252 -37.1112 -37.1071 -37.1015 -37.0844 -37.0769 -37.0742
   -37.0545 -37.0444 -37.0370 -37.0336 -37.0293 -37.0219 -37.0121 -37.0030
   -36.9899 -36.9750 -36.9674 -36.9459 -36.9289 -36.8850 -36.8678 -36.8264
   -22.5119 -16.0303 -15.2848 -15.1986 -15.0604 -14.9818 -14.8031 -14.6007
   -14.5672 -14.5195 -14.5120 -14.4847 -14.4297 -14.3962 -14.2874 -14.2333
   -14.2139 -14.2114 -14.1931 -13.9932 -13.9632 -13.9383 -13.8841 -13.7370
    -8.0421  -7.9088  -7.7727  -7.5440  -7.4874  -7.3727  -7.3584  -7.2727
    -7.2400  -7.1104  -6.9450  -6.8852  -6.8241  -6.7814  -6.7557  -6.6989
    -6.5586  -6.5354  -6.4374  -6.3564  -6.2175  -6.0749  -6.0169  -5.9347
    -5.9005  -5.8834  -5.8421  -5.7958  -5.7682  -5.7491  -5.7111  -5.5961
    -5.5858  -5.5410  -5.4907  -5.3668  -5.2689  -5.1925  -5.1589  -5.1103
    -5.0790  -5.0155  -4.9366  -4.8965  -4.8403  -4.6143  -4.5163  -4.3909
    -4.3449  -4.3261  -4.2501  -4.2066  -4.1212  -4.0656  -3.9207  -3.8845
    -3.7926  -3.7648  -3.6930  -3.6521  -3.6322  -3.6180  -3.5962  -3.5617
    -3.5318  -3.4739  -3.4026  -3.3250  -3.1445  -3.0403  -3.0223  -2.9074
    -2.8942  -2.8386  -2.8271  -2.8009  -2.7423  -2.6947  -2.6506  -2.4803
    -2.3427  -2.0816  -2.0437  -1.9744  -0.9104  -0.8470  -0.5722  -0.2612
    -0.2462  -0.1558  -0.0707  -0.0166   0.0321   0.0593   0.1512   0.2006
     0.2176   0.3170   0.3604   0.4472   0.4609   0.4733   0.5059   0.5484
     0.5857   0.6252   0.6567   0.6869   0.7338   0.8098   0.8468   0.8621
     0.9168   0.9918   1.1641

     the Fermi energy is    -1.4424 ev

!    total energy              =   -2246.36784490 Ry
     estimated scf accuracy    <       0.00000004 Ry
     smearing contrib. (-TS)   =      -0.00000000 Ry
     internal energy E=F+TS    =   -2246.36784490 Ry

     The total energy is F=E-TS. E is the sum of the following terms:
     one-electron contribution =  -18434.59444172 Ry
     hartree contribution      =    9205.03702216 Ry
     xc contribution           =    -392.13914503 Ry
     ewald contribution        =    7385.18628945 Ry
     one-center paw contrib.   =      -9.85756976 Ry

     convergence has been achieved in  10 iterations

     negative rho (up, down):  1.999E-04 0.000E+00

     Forces acting on atoms (cartesian axes, Ry/au):

     atom    1 type  1   force =    -0.01366849   -0.00859433    0.00639834
     atom    2 type  2   force =    -0.00148273    0.00451892    0.00136505
     atom    3 type  2   force =    -0.01047792    0.00599569   -0.00917727
     atom    4 type  1   force =     0.00441510    0.00198065    0.00042900
     atom    5 type  2   force =     0.00181685   -0.00090526   -0.00071013
     atom    6 type  2   force =     0.00123848    0.00354265    0.00667367
     atom    7 type  1   force =     0.00385288   -0.00522918    0.00237037
     atom    8 type  2   force =     0.00224001   -0.00375438    0.00931652
     atom    9 type  2   force =     0.01033577    0.00361679    0.00360963
     atom   10 type  1   force =     0.00127790    0.00682666    0.00200305
     atom   11 type  2   force =     0.00128344    0.00001214   -0.01322215
     atom   12 type  2   force =     0.00554164   -0.00617118   -0.00903299
     atom   13 type  1   force =    -0.01147925    0.00252784   -0.00484964
     atom   14 type  2   force =    -0.01204643   -0.02253353   -0.04358616
     atom   15 type  2   force =     0.00133577    0.00732536   -0.00147084
     atom   16 type  1   force =     0.00329400    0.00394060    0.00211642
     atom   17 type  2   force =     0.00469402    0.00131395    0.00325880
     atom   18 type  2   force =    -0.00078414    0.00318233    0.00523375
     atom   19 type  1   force =     0.00080805   -0.00633192   -0.00018617
     atom   20 type  2   force =     0.00362539   -0.00414089   -0.00413082
     atom   21 type  1   force =    -0.01129962   -0.01239081   -0.00169292
     atom   22 type  2   force =     0.00298748   -0.00920576   -0.01426271
     atom   23 type  2   force =    -0.00420824   -0.00426340   -0.00417826
     atom   24 type  1   force =    -0.00396041   -0.00103977   -0.00579361
     atom   25 type  2   force =     0.00273284    0.01283872   -0.00580928
     atom   26 type  2   force =    -0.00510723   -0.00202490   -0.00677076
     atom   27 type  1   force =    -0.00068966    0.00096596    0.00496317
     atom   28 type  2   force =     0.00038427   -0.00266120   -0.00335172
     atom   29 type  2   force =     0.00163070    0.00245202   -0.00318165
     atom   30 type  1   force =    -0.00052531   -0.00332706    0.00630725
     atom   31 type  2   force =    -0.00024508   -0.00145919    0.00721262
     atom   32 type  2   force =    -0.00689900    0.00369793    0.00463839
     atom   33 type  1   force =    -0.00212671   -0.00027696    0.00171701
     atom   34 type  2   force =    -0.00099745   -0.01913149   -0.01375859
     atom   35 type  2   force =    -0.00337750    0.00711706    0.00278949
     atom   36 type  3   force =     0.03588057    0.04158594    0.07476311
     The non-local contrib.  to forces
     atom    1 type  1   force =     0.00266126    0.00896748   -0.01243791
     atom    2 type  2   force =    -0.00675143   -0.00150788   -0.26913128
     atom    3 type  2   force =    -0.00949779   -0.00289210    0.26405614
     atom    4 type  1   force =     0.00586611    0.01242051    0.00673811
     atom    5 type  2   force =     0.00606018   -0.03576360   -0.25225698
     atom    6 type  2   force =     0.00188393    0.00641035    0.27131017
     atom    7 type  1   force =    -0.01560234    0.00405631   -0.02387688
     atom    8 type  2   force =     0.00431908   -0.00393935   -0.26116125
     atom    9 type  2   force =     0.00444568   -0.01160089    0.27310468
     atom   10 type  1   force =     0.00156453    0.00098329   -0.00060455
     atom   11 type  2   force =     0.01327049    0.00057853   -0.26927749
     atom   12 type  2   force =    -0.00544234   -0.02187645    0.25487399
     atom   13 type  1   force =     0.01792089    0.01210644    0.01194095
     atom   14 type  2   force =    -0.10414366   -0.13288745    0.24305861
     atom   15 type  2   force =    -0.00576767   -0.00648494    0.26942031
     atom   16 type  1   force =    -0.00347274    0.03400823   -0.02826287
     atom   17 type  2   force =     0.00304803   -0.03243777   -0.25183483
     atom   18 type  2   force =    -0.00184456    0.00544506    0.26709584
     atom   19 type  1   force =     0.00545532    0.00735316   -0.02204603
     atom   20 type  2   force =     0.00189231   -0.02052387    0.26421499
     atom   21 type  1   force =     0.00384409    0.04080669    0.03551532
     atom   22 type  2   force =    -0.01455362   -0.01174091   -0.26737401
     atom   23 type  2   force =     0.00631035   -0.02074672    0.26163488
     atom   24 type  1   force =     0.00785426    0.01854934   -0.00297125
     atom   25 type  2   force =    -0.01161754    0.00879869   -0.27669974
     atom   26 type  2   force =     0.00076501   -0.00939005    0.25897921
     atom   27 type  1   force =    -0.00542910    0.00682858    0.01041866
     atom   28 type  2   force =    -0.00324603   -0.02380767   -0.27899743
     atom   29 type  2   force =     0.00601286    0.00041051    0.26583445
     atom   30 type  1   force =    -0.00007336    0.02215978    0.00685789
     atom   31 type  2   force =    -0.00607457    0.00023584   -0.26141478
[...]
     atom   28 type  2   force =    -0.00010037   -0.01412295   -0.27964927
     atom   29 type  2   force =     0.00018357   -0.00975122    0.26989669
     atom   30 type  1   force =     0.00034373    0.02062106    0.00491964
     atom   31 type  2   force =    -0.00513342   -0.00040790   -0.26700246
     atom   32 type  2   force =     0.00547448   -0.01291027    0.26947248
     atom   33 type  1   force =    -0.00200952    0.00691048    0.00277202
     atom   34 type  2   force =    -0.00014146   -0.00578248   -0.27496586
     atom   35 type  2   force =     0.00075477   -0.01303178    0.26712948
     atom   36 type  3   force =     0.00234801    0.04039638   -2.32258563
     The ionic contribution  to forces
     atom    1 type  1   force =     0.74027378    1.34102987   -1.50199864
     atom    2 type  2   force =     0.84250290   -0.00238511   38.17348712
     atom    3 type  2   force =     0.10342023   -0.06575629  -38.30067180
     atom    4 type  1   force =     0.26480872    0.83985605   -0.20840783
     atom    5 type  2   force =    -0.37970032    2.15809913   37.82542091
     atom    6 type  2   force =     0.19265262   -0.18042085  -38.76191974
     atom    7 type  1   force =    -2.56798632   -2.42424300    1.88830745
     atom    8 type  2   force =    -1.02747624    0.15850647   38.11701619
     atom    9 type  2   force =     0.36177586   -0.03316493  -38.35263881
     atom   10 type  1   force =     0.15995708   -0.98150873    1.30674556
     atom   11 type  2   force =     0.09784100   -2.40325647   37.94663167
     atom   12 type  2   force =     0.26962206    0.19596956  -38.70805943
     atom   13 type  1   force =    -0.76871752    1.32513543   -1.55106906
     atom   14 type  2   force =     0.00208472    0.01273785   28.36322599
     atom   15 type  2   force =     0.01721659   -0.09260779  -38.15210725
     atom   16 type  1   force =    -0.01350776    4.24653718    0.88228714
     atom   17 type  2   force =     0.37107890    2.14647949   37.79759741
     atom   18 type  2   force =    -0.17513581   -0.17264923  -38.76935166
     atom   19 type  1   force =     2.54316664   -2.40492753    1.50124765
     atom   20 type  2   force =     0.01523533   -0.04465079  -38.93818345
     atom   21 type  1   force =    -0.01031898   -1.42695369   -3.01570022
     atom   22 type  2   force =    -0.10844318   -2.40439431   37.86226494
     atom   23 type  2   force =    -0.26809051    0.20413613  -38.74472205
     atom   24 type  1   force =     0.00407377    0.84081720    1.26490990
     atom   25 type  2   force =    -0.81785456    0.00658868   38.18120691
     atom   26 type  2   force =    -0.11105064   -0.05035413  -38.35307421
     atom   27 type  1   force =    -0.27793779    0.86531906   -0.39198522
     atom   28 type  2   force =     0.01074395    0.80769745   37.88781171
     atom   29 type  2   force =    -0.01192991    0.00957704  -37.96670439
     atom   30 type  1   force =     0.01884115   -0.82422435    1.01358814
     atom   31 type  2   force =     1.05493314    0.15694651   38.07245588
     atom   32 type  2   force =    -0.37692155   -0.04049857  -38.41989858
     atom   33 type  1   force =    -0.14159509   -1.00019062    1.13105149
     atom   34 type  2   force =     0.00639819   -0.76575569   38.51884535
     atom   35 type  2   force =    -0.00710364    0.03380467  -38.00531901
     atom   36 type  3   force =    -0.01285683   -0.03129569   50.40770993
     The local contribution  to forces
     atom    1 type  1   force =    -0.73377227   -1.35644257    1.48833621
     atom    2 type  2   force =    -0.84152528    0.00726589  -37.92160365
     atom    3 type  2   force =    -0.10099408    0.07607543   38.05717900
     atom    4 type  1   force =    -0.27069593   -0.84726354    0.20272645
     atom    5 type  2   force =     0.37674808   -2.13690002  -37.58807575
     atom    6 type  2   force =    -0.19327133    0.18305305   38.51786419
     atom    7 type  1   force =     2.57695991    2.42438291   -1.86452781
     atom    8 type  2   force =     1.02325263   -0.15838362  -37.87061602
     atom    9 type  2   force =    -0.35606930    0.04543427   38.10491268
     atom   10 type  1   force =    -0.16054176    0.97569915   -1.30790860
     atom   11 type  2   force =    -0.10416738    2.40402741  -37.70366407
     atom   12 type  2   force =    -0.26133474   -0.18258837   38.46487260
     atom   13 type  1   force =     0.75889173   -1.33895670    1.53779463
     atom   14 type  2   force =    -0.00208974   -0.00188135  -28.64985335
     atom   15 type  2   force =    -0.01702858    0.10339390   37.89934208
     atom   16 type  1   force =     0.01468599   -4.27639409   -0.84875400
     atom   17 type  2   force =    -0.36814801   -2.12502003  -37.56010038
     atom   18 type  2   force =     0.17605838    0.17546186   38.52508885
     atom   19 type  1   force =    -2.55348626    2.40359534   -1.47760198
     atom   20 type  2   force =    -0.01492965    0.05768043   38.69404363
     atom   21 type  1   force =     0.00941506    1.38835674    2.99921251
     atom   22 type  2   force =     0.11453356    2.40488404  -37.61901509
     atom   23 type  2   force =     0.25977674   -0.19108125   38.50179496
     atom   24 type  1   force =    -0.00424134   -0.85714306   -1.27340719
     atom   25 type  2   force =     0.81746269   -0.00172162  -37.92995256
     atom   26 type  2   force =     0.10865827    0.06065961   38.11031417
     atom   27 type  1   force =     0.28408036   -0.87166694    0.38628248
     atom   28 type  2   force =    -0.01044721   -0.79434800  -37.63005339
     atom   29 type  2   force =     0.01177990    0.00025060   37.71671069
     atom   30 type  1   force =    -0.01940093    0.80306863   -1.01737457
     atom   31 type  2   force =    -1.05050842   -0.15651924  -37.82613249
     atom   32 type  2   force =     0.37051477    0.05274896   38.17246833
     atom   33 type  1   force =     0.14293588    0.99347358   -1.13330868
     atom   34 type  2   force =    -0.00608635    0.77242391  -38.26406420
     atom   35 type  2   force =     0.00696195   -0.02146161   37.75943797
     atom   36 type  3   force =     0.01057801   -0.00872537  -48.11241210
     The core correction contribution to forces
     atom    1 type  1   force =     0.00000000    0.00000000    0.00000000
     atom    2 type  2   force =    -0.00006900    0.00010386    0.02133653
     atom    3 type  2   force =     0.00014679    0.00040604   -0.02075746
     atom    4 type  1   force =     0.00000000    0.00000000    0.00000000
     atom    5 type  2   force =    -0.00039954    0.00095582    0.02069088
     atom    6 type  2   force =     0.00009608   -0.00017608   -0.02082729
     atom    7 type  1   force =     0.00000000    0.00000000    0.00000000
     atom    8 type  2   force =    -0.00016766    0.00031410    0.02099299
     atom    9 type  2   force =     0.00056627    0.00069155   -0.02099408
     atom   10 type  1   force =     0.00000000    0.00000000    0.00000000
     atom   11 type  2   force =    -0.00014506   -0.00013462    0.02104270
     atom   12 type  2   force =     0.00074503    0.00094848   -0.02085145
     atom   13 type  1   force =     0.00000000    0.00000000    0.00000000
     atom   14 type  2   force =     0.00001034    0.00032371   -0.01001510
     atom   15 type  2   force =     0.00000276    0.00051668   -0.02113209
     atom   16 type  1   force =     0.00000000    0.00000000    0.00000000
     atom   17 type  2   force =     0.00035608    0.00097833    0.02069884
     atom   18 type  2   force =    -0.00009017   -0.00023447   -0.02082268
     atom   19 type  1   force =     0.00000000    0.00000000    0.00000000
     atom   20 type  2   force =     0.00005279    0.00058978   -0.02125997
     atom   21 type  1   force =     0.00000000    0.00000000    0.00000000
     atom   22 type  2   force =     0.00006656   -0.00016051    0.02102670
     atom   23 type  2   force =    -0.00074832    0.00101061   -0.02084038
     atom   24 type  1   force =     0.00000000    0.00000000    0.00000000
     atom   25 type  2   force =     0.00002569    0.00009226    0.02135599
     atom   26 type  2   force =    -0.00016513    0.00042218   -0.02078638
     atom   27 type  1   force =     0.00000000    0.00000000    0.00000000
     atom   28 type  2   force =     0.00001657    0.00086636    0.02136068
     atom   29 type  2   force =    -0.00001905    0.00026052   -0.02085703
     atom   30 type  1   force =     0.00000000    0.00000000    0.00000000
     atom   31 type  2   force =     0.00026495    0.00028834    0.02099280
     atom   32 type  2   force =    -0.00057080    0.00065852   -0.02100514
     atom   33 type  1   force =     0.00000000    0.00000000    0.00000000
     atom   34 type  2   force =     0.00001159    0.00020255    0.02126962
     atom   35 type  2   force =    -0.00004429    0.00076508   -0.02091775
     atom   36 type  3   force =    -0.00002551   -0.00044606    0.02465416
     The Hubbard contrib.    to forces
     atom    1 type  1   force =     0.00000000    0.00000000    0.00000000
     atom    2 type  2   force =     0.00000000    0.00000000    0.00000000
     atom    3 type  2   force =     0.00000000    0.00000000    0.00000000
     atom    4 type  1   force =     0.00000000    0.00000000    0.00000000
     atom    5 type  2   force =     0.00000000    0.00000000    0.00000000
     atom    6 type  2   force =     0.00000000    0.00000000    0.00000000
     atom    7 type  1   force =     0.00000000    0.00000000    0.00000000
     atom    8 type  2   force =     0.00000000    0.00000000    0.00000000
     atom    9 type  2   force =     0.00000000    0.00000000    0.00000000
     atom   10 type  1   force =     0.00000000    0.00000000    0.00000000
     atom   11 type  2   force =     0.00000000    0.00000000    0.00000000
     atom   12 type  2   force =     0.00000000    0.00000000    0.00000000
     atom   13 type  1   force =     0.00000000    0.00000000    0.00000000
     atom   14 type  2   force =     0.00000000    0.00000000    0.00000000
     atom   15 type  2   force =     0.00000000    0.00000000    0.00000000
     atom   16 type  1   force =     0.00000000    0.00000000    0.00000000
     atom   17 type  2   force =     0.00000000    0.00000000    0.00000000
     atom   18 type  2   force =     0.00000000    0.00000000    0.00000000
     atom   19 type  1   force =     0.00000000    0.00000000    0.00000000
     atom   20 type  2   force =     0.00000000    0.00000000    0.00000000
     atom   21 type  1   force =     0.00000000    0.00000000    0.00000000
     atom   22 type  2   force =     0.00000000    0.00000000    0.00000000
     atom   23 type  2   force =     0.00000000    0.00000000    0.00000000
     atom   24 type  1   force =     0.00000000    0.00000000    0.00000000
     atom   25 type  2   force =     0.00000000    0.00000000    0.00000000
     atom   26 type  2   force =     0.00000000    0.00000000    0.00000000
     atom   27 type  1   force =     0.00000000    0.00000000    0.00000000
     atom   28 type  2   force =     0.00000000    0.00000000    0.00000000
     atom   29 type  2   force =     0.00000000    0.00000000    0.00000000
     atom   30 type  1   force =     0.00000000    0.00000000    0.00000000
     atom   31 type  2   force =     0.00000000    0.00000000    0.00000000
     atom   32 type  2   force =     0.00000000    0.00000000    0.00000000
     atom   33 type  1   force =     0.00000000    0.00000000    0.00000000
     atom   34 type  2   force =     0.00000000    0.00000000    0.00000000
     atom   35 type  2   force =     0.00000000    0.00000000    0.00000000
     atom   36 type  3   force =     0.00000000    0.00000000    0.00000000
     The SCF correction term to forces
     atom    1 type  1   force =     0.00003902    0.00001953    0.00000468
     atom    2 type  2   force =    -0.00001165    0.00002489   -0.00001779
     atom    3 type  2   force =    -0.00000338    0.00000306    0.00000075
     atom    4 type  1   force =    -0.00000129   -0.00001150   -0.00001282
     atom    5 type  2   force =    -0.00000193    0.00000175   -0.00001394
     atom    6 type  2   force =    -0.00000427    0.00000711    0.00001173
     atom    7 type  1   force =     0.00000292   -0.00002668   -0.00005449
     atom    8 type  2   force =     0.00001579   -0.00001652   -0.00001127
     atom    9 type  2   force =     0.00001496    0.00000641   -0.00001241
     atom   10 type  1   force =     0.00001896   -0.00000261   -0.00005298
     atom   11 type  2   force =     0.00002152   -0.00000649   -0.00001567
     atom   12 type  2   force =     0.00001414   -0.00000793   -0.00001875
     atom   13 type  1   force =     0.00002130    0.00003149   -0.00002339
     atom   14 type  2   force =     0.00002234    0.00002997   -0.00002459
     atom   15 type  2   force =     0.00000609    0.00000802   -0.00001373
     atom   16 type  1   force =     0.00001299    0.00000759   -0.00001722
     atom   17 type  2   force =     0.00000434    0.00002264   -0.00000882
     atom   18 type  2   force =     0.00000314    0.00002420   -0.00000753
     atom   19 type  1   force =    -0.00003596   -0.00003991   -0.00005544
     atom   20 type  2   force =     0.00000427   -0.00001208   -0.00001324
     atom   21 type  1   force =     0.00000688    0.00000302   -0.00007031
     atom   22 type  2   force =    -0.00000844   -0.00001636   -0.00001337
     atom   23 type  2   force =    -0.00000087   -0.00000961   -0.00003562
     atom   24 type  1   force =    -0.00000173    0.00003371   -0.00002437
     atom   25 type  2   force =    -0.00002847    0.00001626   -0.00001145
     atom   26 type  2   force =    -0.00002374   -0.00001137   -0.00001765
     atom   27 type  1   force =    -0.00000560    0.00001815   -0.00000401
     atom   28 type  2   force =    -0.00000907   -0.00000193   -0.00000990
     atom   29 type  2   force =    -0.00000424   -0.00000664    0.00000172
     atom   30 type  1   force =    -0.00002796   -0.00002272   -0.00004499
     atom   31 type  2   force =    -0.00000356   -0.00002140   -0.00001621
     atom   32 type  2   force =    -0.00000063    0.00000518   -0.00001705
     atom   33 type  1   force =    -0.00003631   -0.00000360   -0.00005737
     atom   34 type  2   force =    -0.00000709   -0.00000735   -0.00001502
     atom   35 type  2   force =    -0.00000188   -0.00000234   -0.00002010
     atom   36 type  3   force =     0.00002300    0.00005131   -0.00002412

     Total force =     0.007203     Total SCF correction =     0.000224
     Energy error            =      9.8E-05 Ry
     Gradient error          =      2.7E-03 Ry/Bohr

     bfgs converged in  21 scf cycles and  20 bfgs steps
     (criteria: energy <  1.0E-04 Ry, force <  1.0E-02 Ry/Bohr)

     End of BFGS Geometry Optimization

     Final energy             =   -2246.4491462366 Ry

     File ./MoS2-V-O.bfgs deleted, as requested
Begin final coordinates

ATOMIC_POSITIONS (angstrom)
Mo            6.5680451254        1.7574262200        2.7500010946
S             8.1046873620        0.8279830854        4.3711407331
S             8.1295796993        0.8140940514        1.1723217125
Mo            8.0995060858        4.4783208742        2.7213624456
S             6.5030778720        3.6469879815        4.3216536770
S             6.5352470109        3.5661745430        1.1090316655
Mo            6.5046578432        7.1637901872        2.6775215687
S             8.0720574102        6.2859950447        4.3094394024
S             8.1216031753        6.3033996719        1.1186749144
Mo            8.1125224505        9.9136754233        2.7688633391
S             6.4967873566        8.9283001032        4.3320563287
S             6.5819607756        8.9963907217        1.1198336947
Mo            3.3802295348        1.7526529394        2.7484314503
S             4.9741440958        0.7983047213        4.2502375746
S             4.9749175368        0.8234757352        1.1823214289
Mo            4.9717925782        4.5170369091        2.6681534726
S             3.4393728956        3.6425680799        4.3196279900
S             3.4103224086        3.5597579833        1.1085147373
Mo            3.4451189744        7.1665024031        2.6705239069
S             4.9767665015        6.2968503220        1.0576268864
Mo            4.9746001117        9.8555490953        2.7169430143
S             3.4445862818        8.9306763572        4.3255875199
S             3.3655136996        9.0032585775        1.1156004623
Mo            0.2446228131        1.7112909819        2.7743040877
S             1.8375000949        0.8262081547        4.3715845597
S             1.8141961937        0.8150589250        1.1676361294
Mo            1.8472959968        4.4759618310        2.7178431293
S             0.2451371024        3.5849625673        4.3239562857
S             0.2431035432        3.5354172435        1.1598587147
Mo            0.2488978452        7.1926933207        2.7381852260
S             1.8865192973        6.2835995021        4.3060236139
S             1.8304472011        6.3019057392        1.1126141092
Mo            1.8306507017        9.9161690631        2.7658368772
S             0.2451263240        9.0032704164        4.3591044268
S             0.2419986459        9.0272638188        1.1723676885
O             4.9727589116       11.7068738162        5.7499776691
End final coordinates



     Writing all to output data dir ./MoS2-V-O.save/
 
     init_run     :      4.60s CPU      5.11s WALL (       1 calls)
     electrons    :   2061.91s CPU   2350.53s WALL (      21 calls)
     update_pot   :     63.97s CPU     68.70s WALL (      20 calls)
     forces       :     62.44s CPU     72.67s WALL (      21 calls)

     Called by init_run:
     wfcinit      :      0.49s CPU      0.54s WALL (       1 calls)
     potinit      :      2.33s CPU      2.59s WALL (       1 calls)
     hinit0       :      0.45s CPU      0.47s WALL (       1 calls)

     Called by electrons:
     c_bands      :    298.01s CPU    305.96s WALL (     199 calls)
     sum_band     :    123.70s CPU    169.59s WALL (     199 calls)
     v_of_rho     :    234.56s CPU    286.34s WALL (     213 calls)
     newd         :     76.94s CPU    116.07s WALL (     213 calls)
     PAW_pot      :      8.41s CPU      8.45s WALL (     233 calls)
     mix_rho      :   1345.22s CPU   1492.09s WALL (     199 calls)

     Called by c_bands:
     init_us_2    :      4.62s CPU      4.90s WALL (     419 calls)
     init_us_2:cp :      4.62s CPU      4.90s WALL (     419 calls)
     regterg      :    283.06s CPU    290.70s WALL (     199 calls)

     Called by *egterg:
     rdiaghg      :     18.50s CPU     18.68s WALL (    1047 calls)
     h_psi        :    181.74s CPU    183.52s WALL (    1075 calls)
     s_psi        :     16.40s CPU     16.46s WALL (    1075 calls)
     g_psi        :      1.35s CPU      1.37s WALL (     875 calls)

     Called by h_psi:
     h_psi:calbec :     19.18s CPU     19.33s WALL (    1075 calls)
     vloc_psi     :    143.51s CPU    145.01s WALL (    1075 calls)
     add_vuspsi   :     16.55s CPU     16.66s WALL (    1075 calls)

     General routines
     calbec       :     27.75s CPU     27.96s WALL (    1378 calls)
     fft          :    164.79s CPU    185.85s WALL (   14217 calls)
     ffts         :    592.67s CPU    733.99s WALL (  326521 calls)
     fftw         :     90.71s CPU     91.53s WALL (  121328 calls)
     interpolate  :      2.64s CPU      3.03s WALL (     213 calls)
 
     Parallel routines
 
     PWSCF        :  36m43.10s CPU  41m52.38s WALL

 
   This run was terminated on:  23:52:54   1Nov2023            

=------------------------------------------------------------------------------=
   JOB DONE.
=------------------------------------------------------------------------------=
