
     Program PWSCF v.7.2 starts on  1Nov2023 at 13:27:26 

     This program is part of the open-source Quantum ESPRESSO suite
     for quantum simulation of materials; please cite
         "P. Giannozzi et al., J. Phys.:Condens. Matter 21 395502 (2009);
         "P. Giannozzi et al., J. Phys.:Condens. Matter 29 465901 (2017);
         "P. Giannozzi et al., J. Chem. Phys. 152 154105 (2020);
          URL http://www.quantum-espresso.org", 
     in publications or presentations arising from this work. More details at
     http://www.quantum-espresso.org/quote

     Parallel version (MPI & OpenMP), running on      48 processor cores
     Number of MPI processes:                48
     Threads/MPI process:                     1

     MPI processes distributed on     1 nodes
     38004 MiB available memory on the printing compute node when the environment starts
 
     Waiting for input...
     Reading input from standard input
Warning: card &CELL ignored
Warning: card CELL_DYNAMICS = 'BFGS', ignored
Warning: card CELL_DOFREE = '2DXY' ignored
Warning: card / ignored

     Current dimensions of program PWSCF are:
     Max number of different atomic species (ntypx) = 10
     Max number of k-points (npk) =  40000
     Max angular momentum in pseudopotentials (lmaxx) =  4
     file O.pbe-n-kjpaw_psl.0.1.UPF: wavefunction(s)  2P renormalized

     IMPORTANT: XC functional enforced from input :
     Exchange-correlation= RVV10
                           (   1   4  13   4  26   0   0)
     Any further DFT definition will be discarded
     Please, verify this is what you really want


     gamma-point specific algorithms are used
     signal trapping enabled: kill the code with -SIGUSR1 to stop cleanly the simulation 
 
     R & G space division:  proc/nbgrp/npool/nimage =      48
     Subspace diagonalization in iterative solution of the eigenvalue problem:
     one sub-group per band group will be used
     scalapack distributed-memory algorithm (size of sub-group:  2*  2 procs)

 
     Parallelization info
     --------------------
     sticks:   dense  smooth     PW     G-vecs:    dense   smooth      PW
     Min         396     194     47               101632    35090    4376
     Max         398     196     50               101674    35128    4410
     Sum       19091    9389   2349              4879585  1685513  210763
 
     Using Slab Decomposition
 


     bravais-lattice index     =            0
     lattice parameter (alat)  =      17.8707  a.u.
     unit-cell volume          =   17436.2743 (a.u.)^3
     number of atoms/cell      =           36
     number of atomic types    =            3
     number of electrons       =       312.00
     number of Kohn-Sham states=          187
     kinetic-energy cutoff     =      80.0000  Ry
     charge density cutoff     =     650.0000  Ry
     scf convergence threshold =      1.0E-06
     mixing beta               =       0.7000
     number of iterations used =            8  local-TF  mixing
     energy convergence thresh.=      1.0E-04
     force convergence thresh. =      1.0E-02
     Exchange-correlation= RVV10
                           (   1   4  13   4  26   0   0)
     nstep                     =          200


     celldm(1)=  17.870686  celldm(2)=   0.000000  celldm(3)=   0.000000
     celldm(4)=   0.000000  celldm(5)=   0.000000  celldm(6)=   0.000000

     crystal axes: (cart. coord. in units of alat)
               a(1) = (   1.000000   0.000000   0.000000 )  
               a(2) = (   0.000000   1.155671   0.000000 )  
               a(3) = (   0.000000   0.000000   2.643601 )  

     reciprocal axes: (cart. coord. in units 2 pi/alat)
               b(1) = (  1.000000  0.000000  0.000000 )  
               b(2) = (  0.000000  0.865298  0.000000 )  
               b(3) = (  0.000000  0.000000  0.378272 )  


     PseudoPot. # 1 for Mo read from file:
     ../pseudo/Mo_ONCV_PBE-1.0.oncvpsp.upf
     MD5 check sum: 1b5d28e075c9ccadda658a603575cd1f
     Pseudo is Norm-conserving, Zval = 14.0
     Generated using ONCVPSP code by D. R. Hamann
     Using radial grid of 1526 points,  6 beta functions with: 
                l(1) =   0
                l(2) =   0
                l(3) =   1
                l(4) =   1
                l(5) =   2
                l(6) =   2

     PseudoPot. # 2 for S  read from file:
     ../pseudo/s_pbe_v1.4.uspp.F.UPF
     MD5 check sum: 88d86576ff6df21479756cfb9bdac1df
     Pseudo is Ultrasoft + core correction, Zval =  6.0
     Generated by new atomic code, or converted to UPF format
     Using radial grid of  907 points,  6 beta functions with: 
                l(1) =   0
                l(2) =   0
                l(3) =   1
                l(4) =   1
                l(5) =   2
                l(6) =   2
     Q(r) pseudized with  8 coefficients,  rinner =    1.300   1.300   1.300
                                                       1.300   1.300

     PseudoPot. # 3 for O  read from file:
     ../pseudo/O.pbe-n-kjpaw_psl.0.1.UPF
     MD5 check sum: 0234752ac141de4415c5fc33072bef88
     Pseudo is Projector augmented-wave + core cor, Zval =  6.0
     Generated using "atomic" code by A. Dal Corso  v.5.0.99 svn rev. 10869
     Shape of augmentation charge: BESSEL
     Using radial grid of 1095 points,  4 beta functions with: 
                l(1) =   0
                l(2) =   0
                l(3) =   1
                l(4) =   1
     Q(r) pseudized with 0 coefficients 


     atomic species   valence    mass     pseudopotential
        Mo            14.00    95.94000     Mo( 1.00)
        S              6.00    32.06500     S ( 1.00)
        O              6.00    15.99940     O ( 1.00)

     No symmetry found



   Cartesian axes

     site n.     atom                  positions (alat units)
         1           Mo  tau(   1) = (   0.6952221   0.1890506   0.2985846  )
         2           S   tau(   2) = (   0.8646417   0.0856217   0.4689279  )
         3           S   tau(   3) = (   0.8663890   0.0857843   0.1351291  )
         4           Mo  tau(   4) = (   0.8560186   0.4753274   0.2873942  )
         5           S   tau(   5) = (   0.6873294   0.3936244   0.4596353  )
         6           S   tau(   6) = (   0.6929804   0.3713468   0.1185692  )
         7           Mo  tau(   7) = (   0.6862796   0.7633098   0.2825370  )
         8           S   tau(   8) = (   0.8545980   0.6708292   0.4486168  )
         9           S   tau(   9) = (   0.8545123   0.6666874   0.1146125  )
        10           Mo  tau(  10) = (   0.8629403   1.0471007   0.3006803  )
        11           S   tau(  11) = (   0.6868280   0.9456650   0.4634891  )
        12           S   tau(  12) = (   0.6998113   0.9568511   0.1205389  )
        13           Mo  tau(  13) = (   0.3618216   0.1847309   0.2935964  )
        14           S   tau(  14) = (   0.5260962   0.0863870   0.4600448  )
        15           S   tau(  15) = (   0.5348379   0.0894875   0.1297123  )
        16           Mo  tau(  16) = (   0.5265817   0.4772436   0.2784130  )
        17           S   tau(  17) = (   0.3624753   0.3882513   0.4525556  )
        18           S   tau(  18) = (   0.3635411   0.3752055   0.1119148  )
        19           Mo  tau(  19) = (   0.3652268   0.7630864   0.2781795  )
        20           S   tau(  20) = (   0.5269494   0.6690381   0.1096838  )
        21           Mo  tau(  21) = (   0.5300192   1.0470394   0.2900995  )
        22           S   tau(  22) = (   0.3670346   0.9457522   0.4574073  )
        23           S   tau(  23) = (   0.3604225   0.9585725   0.1159032  )
        24           Mo  tau(  24) = (   0.0313099   0.1847895   0.3013130  )
        25           S   tau(  25) = (   0.1956761   0.0838230   0.4650863  )
        26           S   tau(  26) = (   0.1967693   0.0903508   0.1278874  )
        27           Mo  tau(  27) = (   0.1967578   0.4753919   0.2813011  )
        28           S   tau(  28) = (   0.0287851   0.3864324   0.4586755  )
        29           S   tau(  29) = (   0.0244514   0.3729871   0.1239344  )
        30           Mo  tau(  30) = (   0.0286728   0.7631204   0.2856894  )
        31           S   tau(  31) = (   0.2011512   0.6675435   0.4465001  )
        32           S   tau(  32) = (   0.1969214   0.6672839   0.1104564  )
        33           Mo  tau(  33) = (   0.1950294   1.0511147   0.2932237  )
        34           S   tau(  34) = (   0.0312912   0.9612169   0.4667423  )
        35           S   tau(  35) = (   0.0292670   0.9563028   0.1216485  )
        36           O   tau(  36) = (   0.1111111   0.2568157   0.5650415  )

     number of k points=     1  Gaussian smearing, width (Ry)=  0.0100
                       cart. coord. in units 2pi/alat
        k(    1) = (   0.0000000   0.0000000   0.0000000), wk =   2.0000000

     Dense  grid:  2439793 G-vectors     FFT dimensions: ( 150, 180, 384)

     Smooth grid:   842757 G-vectors     FFT dimensions: ( 108, 120, 270)

     Estimated max dynamical RAM per process >     269.22 MB

     Estimated total dynamical RAM >      12.62 GB

     Initial potential from superposition of free atoms

     starting charge     311.9873, renormalised to     312.0000

     negative rho (up, down):  2.748E-04 0.000E+00


---------------------------------------------------------------------------------
Carrying out rVV10 run using the following parameters:
Nqs =      20    Nr_points =    1024   r_max =   100.000
b_value =  6.30000    beta =  0.00901
     q_mesh =  0.00010000  0.00030000  0.00058939  0.00100810
               0.00161396  0.00249058  0.00375900  0.00559430
               0.00824984  0.01209221  0.01765183  0.02569619
               0.03733578  0.05417739  0.07854596  0.11380545
               0.16482331  0.23864234  0.34545298  0.50000000

Gradients computed in Reciprocal space

---------------------------------------------------------------------------------


     Starting wfcs are  216 randomized atomic wfcs
     Checking if some PAW data can be deallocated... 

     total cpu time spent up to now is        8.4 secs

     Self-consistent Calculation

     iteration #  1     ecut=    80.00 Ry     beta= 0.70
     Davidson diagonalization with overlap
     ethr =  1.00E-02,  avg # of iterations =  2.0

     Threshold (ethr) on eigenvalues was too large:
     Diagonalizing with lowered threshold

     Davidson diagonalization with overlap
     ethr =  4.32E-04,  avg # of iterations =  4.0

     negative rho (up, down):  3.524E-08 0.000E+00

     total cpu time spent up to now is       34.7 secs

     total energy              =   -2246.20424918 Ry
     estimated scf accuracy    <       1.59627335 Ry

     iteration #  2     ecut=    80.00 Ry     beta= 0.70
     Davidson diagonalization with overlap
     ethr =  5.12E-04,  avg # of iterations =  3.0

     total cpu time spent up to now is       43.3 secs

     total energy              =   -2246.19444033 Ry
     estimated scf accuracy    <       0.68302144 Ry

     iteration #  3     ecut=    80.00 Ry     beta= 0.70
     Davidson diagonalization with overlap
     ethr =  2.19E-04,  avg # of iterations =  5.0

     total cpu time spent up to now is       50.4 secs

     total energy              =   -2246.18030240 Ry
     estimated scf accuracy    <       0.23186747 Ry

     iteration #  4     ecut=    80.00 Ry     beta= 0.70
     Davidson diagonalization with overlap
     c_bands:  1 eigenvalues not converged
     ethr =  7.43E-05,  avg # of iterations = 20.0

     total cpu time spent up to now is       58.8 secs

     total energy              =   -2246.22019812 Ry
     estimated scf accuracy    <       0.03097517 Ry

     iteration #  5     ecut=    80.00 Ry     beta= 0.70
     Davidson diagonalization with overlap
     ethr =  9.93E-06,  avg # of iterations = 12.0

     total cpu time spent up to now is       66.2 secs

     total energy              =   -2246.22124109 Ry
     estimated scf accuracy    <       0.01699520 Ry

     iteration #  6     ecut=    80.00 Ry     beta= 0.70
     Davidson diagonalization with overlap
     ethr =  5.45E-06,  avg # of iterations =  2.0

     total cpu time spent up to now is       72.2 secs

     total energy              =   -2246.22027584 Ry
     estimated scf accuracy    <       0.01101505 Ry

     iteration #  7     ecut=    80.00 Ry     beta= 0.70
     Davidson diagonalization with overlap
     ethr =  3.53E-06,  avg # of iterations =  2.0

     total cpu time spent up to now is       78.3 secs

     total energy              =   -2246.21957969 Ry
     estimated scf accuracy    <       0.00654448 Ry

     iteration #  8     ecut=    80.00 Ry     beta= 0.70
     Davidson diagonalization with overlap
     ethr =  2.10E-06,  avg # of iterations =  2.0

     negative rho (up, down):  5.699E-03 0.000E+00

     total cpu time spent up to now is       88.2 secs

     total energy              =   -2246.21854939 Ry
     estimated scf accuracy    <       0.00400329 Ry

     iteration #  9     ecut=    80.00 Ry     beta= 0.70
     Davidson diagonalization with overlap
     ethr =  1.28E-06,  avg # of iterations =  2.0

     negative rho (up, down):  1.741E-02 0.000E+00

     total cpu time spent up to now is       98.8 secs

     total energy              =   -2246.21840124 Ry
     estimated scf accuracy    <       0.00208688 Ry

     iteration # 10     ecut=    80.00 Ry     beta= 0.70
     Davidson diagonalization with overlap
     ethr =  6.69E-07,  avg # of iterations =  2.0

     negative rho (up, down):  2.394E-02 0.000E+00

     total cpu time spent up to now is      108.8 secs

     total energy              =   -2246.21841823 Ry
     estimated scf accuracy    <       0.00106134 Ry

     iteration # 11     ecut=    80.00 Ry     beta= 0.70
     Davidson diagonalization with overlap
     ethr =  3.40E-07,  avg # of iterations =  2.0

     negative rho (up, down):  1.461E-02 0.000E+00

     total cpu time spent up to now is      120.4 secs

     total energy              =   -2246.21842120 Ry
     estimated scf accuracy    <       0.00022884 Ry

     iteration # 12     ecut=    80.00 Ry     beta= 0.70
     Davidson diagonalization with overlap
     ethr =  7.33E-08,  avg # of iterations = 10.0

     negative rho (up, down):  5.660E-03 0.000E+00

     total cpu time spent up to now is      132.0 secs

     total energy              =   -2246.21846008 Ry
     estimated scf accuracy    <       0.00004263 Ry

     iteration # 13     ecut=    80.00 Ry     beta= 0.70
     Davidson diagonalization with overlap
     ethr =  1.37E-08,  avg # of iterations =  2.0

     negative rho (up, down):  1.230E-03 0.000E+00

     total cpu time spent up to now is      147.1 secs

     total energy              =   -2246.21848157 Ry
     estimated scf accuracy    <       0.00001339 Ry

     iteration # 14     ecut=    80.00 Ry     beta= 0.70
     Davidson diagonalization with overlap
     ethr =  4.29E-09,  avg # of iterations =  2.0

     negative rho (up, down):  6.065E-04 0.000E+00

     total cpu time spent up to now is      161.9 secs

     total energy              =   -2246.21848408 Ry
     estimated scf accuracy    <       0.00000327 Ry

     iteration # 15     ecut=    80.00 Ry     beta= 0.70
     Davidson diagonalization with overlap
     ethr =  1.05E-09,  avg # of iterations =  5.0

     negative rho (up, down):  2.990E-04 0.000E+00

     total cpu time spent up to now is      172.8 secs

     total energy              =   -2246.21848909 Ry
     estimated scf accuracy    <       0.00000140 Ry

     iteration # 16     ecut=    80.00 Ry     beta= 0.70
     Davidson diagonalization with overlap
     ethr =  4.49E-10,  avg # of iterations =  5.0

     negative rho (up, down):  1.995E-04 0.000E+00

     total cpu time spent up to now is      178.6 secs

     End of self-consistent calculation

          k = 0.0000 0.0000 0.0000 (105382 PWs)   bands (ev):

   -63.0299 -62.9655 -62.9485 -62.9331 -62.9161 -62.9069 -62.8976 -62.8936
   -62.8918 -62.8824 -62.8573 -62.7820 -37.3399 -37.2882 -37.2672 -37.2496
   -37.2274 -37.2149 -37.1836 -37.1643 -37.1554 -37.1501 -37.1401 -37.1354
   -37.1273 -37.1130 -37.1038 -37.0900 -37.0841 -37.0795 -37.0734 -37.0662
   -37.0573 -37.0520 -37.0470 -37.0358 -37.0286 -37.0102 -37.0019 -36.9971
   -36.9913 -36.9737 -36.9392 -36.9082 -36.8981 -36.8690 -36.8437 -36.8200
   -20.4677 -16.0007 -15.4106 -15.2153 -15.0592 -14.9301 -14.8791 -14.8225
   -14.5558 -14.5526 -14.4903 -14.4528 -14.4293 -14.3779 -14.3131 -14.2775
   -14.2130 -14.1967 -14.1139 -14.0388 -13.9417 -13.9268 -13.9068 -13.7992
    -8.1332  -7.7699  -7.5620  -7.5029  -7.3973  -7.3583  -7.3304  -7.2472
    -7.2265  -6.9541  -6.9168  -6.8684  -6.8483  -6.7815  -6.6395  -6.5935
    -6.5479  -6.5390  -6.3777  -6.3171  -6.1401  -6.0969  -5.9816  -5.9393
    -5.9145  -5.8407  -5.7931  -5.7817  -5.7546  -5.7258  -5.6945  -5.6437
    -5.5402  -5.5056  -5.4949  -5.3819  -5.2542  -5.2066  -5.1526  -5.1240
    -5.0630  -5.0385  -4.9053  -4.8201  -4.7244  -4.6156  -4.4308  -4.4061
    -4.3980  -4.2735  -4.2086  -4.1223  -4.0706  -3.9768  -3.8905  -3.8583
    -3.7862  -3.7562  -3.7341  -3.7198  -3.6403  -3.6068  -3.5558  -3.5332
    -3.5066  -3.4557  -3.3086  -3.2166  -3.0998  -3.0565  -2.9496  -2.9129
    -2.8659  -2.8167  -2.7571  -2.7498  -2.7124  -2.7018  -2.6551  -2.4233
    -2.0960  -2.0297  -2.0246  -1.4372  -1.1619  -0.9197  -0.8164  -0.2578
    -0.2130  -0.1931  -0.1225  -0.0259   0.0855   0.1379   0.1532   0.1829
     0.2128   0.2569   0.3434   0.3729   0.4663   0.4909   0.5119   0.5441
     0.6056   0.6419   0.6947   0.7031   0.7329   0.7924   0.8096   0.8869
     0.9570   0.9757   1.1283

     the Fermi energy is    -1.2996 ev

!    total energy              =   -2246.21848885 Ry
     estimated scf accuracy    <       0.00000054 Ry
     smearing contrib. (-TS)   =      -0.00405854 Ry
     internal energy E=F+TS    =   -2246.21443030 Ry

     The total energy is F=E-TS. E is the sum of the following terms:
     one-electron contribution =  -18460.21695487 Ry
     hartree contribution      =    9218.16665852 Ry
     xc contribution           =    -391.98776235 Ry
     ewald contribution        =    7397.69510776 Ry
     one-center paw contrib.   =      -9.87147936 Ry

     convergence has been achieved in  16 iterations

     negative rho (up, down):  1.995E-04 0.000E+00

     Forces acting on atoms (cartesian axes, Ry/au):

     atom    1 type  1   force =     0.01506407   -0.02486490    0.00319021
     atom    2 type  2   force =    -0.01696417    0.01466836    0.00087724
     atom    3 type  2   force =    -0.00412696    0.01174772   -0.00169070
     atom    4 type  1   force =    -0.01889933    0.01411297   -0.00922408
     atom    5 type  2   force =    -0.00471691   -0.00612667   -0.00859522
     atom    6 type  2   force =     0.00315377    0.00898370   -0.00206678
     atom    7 type  1   force =     0.00818782   -0.01440129   -0.00790428
     atom    8 type  2   force =     0.00095337    0.00136048    0.01764180
     atom    9 type  2   force =     0.00990582    0.00286269    0.01106632
     atom   10 type  1   force =    -0.01603033    0.00982285   -0.02610049
     atom   11 type  2   force =     0.00458303   -0.00166567   -0.00629378
     atom   12 type  2   force =    -0.00076689    0.00076539    0.00640441
     atom   13 type  1   force =    -0.00184922    0.01185872   -0.00146349
     atom   14 type  2   force =     0.00775293   -0.00214365    0.01280798
     atom   15 type  2   force =    -0.00960115    0.00161657   -0.01100315
     atom   16 type  1   force =    -0.00033270    0.01173038    0.00602871
     atom   17 type  2   force =     0.00879315    0.00213396   -0.00581130
     atom   18 type  2   force =    -0.00518586   -0.00659540    0.01480452
     atom   19 type  1   force =     0.00317178   -0.01139584   -0.00473425
     atom   20 type  2   force =     0.00235426   -0.00359767   -0.00019420
     atom   21 type  1   force =    -0.00384985    0.00549658    0.00163225
     atom   22 type  2   force =    -0.00350309   -0.00084808   -0.00436137
     atom   23 type  2   force =    -0.00102173    0.00164578    0.00856659
     atom   24 type  1   force =    -0.03440615   -0.03202042   -0.07664399
     atom   25 type  2   force =     0.02438506    0.01648789   -0.01043943
     atom   26 type  2   force =    -0.01093889   -0.00160611   -0.00199181
     atom   27 type  1   force =     0.00656789   -0.00687877    0.00962238
     atom   28 type  2   force =     0.06845736   -0.04078911    0.02713580
     atom   29 type  2   force =     0.00092848    0.00117422   -0.00062059
     atom   30 type  1   force =    -0.00211750    0.00449030   -0.00225122
     atom   31 type  2   force =     0.00331519    0.00554240    0.01851215
     atom   32 type  2   force =    -0.00899823    0.01168770    0.00585414
     atom   33 type  1   force =     0.02307336   -0.02278492   -0.01407087
     atom   34 type  2   force =     0.00156721   -0.04381584   -0.00861530
     atom   35 type  2   force =    -0.00971898    0.00501347    0.01219707
     atom   36 type  3   force =    -0.03918663    0.07633221    0.04773474
     The non-local contrib.  to forces
     atom    1 type  1   force =    -0.00075544    0.03032132   -0.00859264
     atom    2 type  2   force =    -0.02897953   -0.00488288   -0.27719251
     atom    3 type  2   force =    -0.00741906    0.00160149    0.27367579
     atom    4 type  1   force =    -0.00486937   -0.01121344    0.00272658
     atom    5 type  2   force =     0.00269332   -0.03105631   -0.25592011
     atom    6 type  2   force =    -0.00000501    0.01257717    0.26051003
     atom    7 type  1   force =    -0.01917814    0.00205237   -0.02132019
     atom    8 type  2   force =     0.00699256   -0.00300430   -0.25428760
     atom    9 type  2   force =     0.00665752   -0.00852043    0.27989024
     atom   10 type  1   force =     0.00783115    0.00633791    0.00130302
     atom   11 type  2   force =     0.01395735    0.00352285   -0.26138349
     atom   12 type  2   force =    -0.01367276   -0.01753094    0.26335851
     atom   13 type  1   force =     0.00396539    0.00462598   -0.00598269
     atom   14 type  2   force =     0.01148608   -0.00960410   -0.26284819
     atom   15 type  2   force =    -0.01340768   -0.00466451    0.26194587
     atom   16 type  1   force =    -0.00491462    0.03294664   -0.02974668
     atom   17 type  2   force =     0.01721833   -0.01580975   -0.25427895
     atom   18 type  2   force =    -0.00614560    0.00092200    0.26710391
     atom   19 type  1   force =     0.01558591   -0.00119160   -0.01652645
     atom   20 type  2   force =     0.00039455   -0.02178258    0.26611066
     atom   21 type  1   force =     0.00282089    0.02848409    0.00648523
     atom   22 type  2   force =    -0.00648478    0.00568212   -0.25775291
     atom   23 type  2   force =     0.00354719   -0.01827760    0.27110035
     atom   24 type  1   force =     0.01307072    0.01174995   -0.01134253
     atom   25 type  2   force =    -0.02430568    0.12114913   -0.15418718
     atom   26 type  2   force =    -0.00137058   -0.00982050    0.26208343
     atom   27 type  1   force =    -0.01579616    0.00944256    0.01384725
     atom   28 type  2   force =     0.17842279   -0.30784376    0.06696623
     atom   29 type  2   force =     0.00921859    0.00742709    0.25968530
     atom   30 type  1   force =    -0.00272164    0.02910435    0.00633572
     atom   31 type  2   force =    -0.00692935   -0.00123039   -0.25427775
     atom   32 type  2   force =    -0.00432310   -0.00701100    0.27420255
     atom   33 type  1   force =     0.00596936    0.03244254    0.00567880
     atom   34 type  2   force =    -0.00163572   -0.04411581   -0.26932013
     atom   35 type  2   force =    -0.00480140   -0.01288354    0.27113236
     atom   36 type  3   force =    -0.36005013    0.71716960   -0.76626972
     The ionic contribution  to forces
     atom    1 type  1   force =    -0.30776988   -0.06740131    4.03570056
     atom    2 type  2   force =    -2.18058419   -0.75697863   38.54147353
     atom    3 type  2   force =    -0.38625168   -0.19326171  -36.92836564
     atom    4 type  1   force =    -1.03950237    1.76215989   -1.41930846
     atom    5 type  2   force =    -1.39710566    1.83807368   38.39258170
     atom    6 type  2   force =     0.24895123   -0.40665035  -38.70199790
     atom    7 type  1   force =    -2.74891060   -2.56008488    1.63471894
     atom    8 type  2   force =    -1.28755129    0.51076953   37.10329314
     atom    9 type  2   force =     0.25275003    0.11223590  -38.56613921
     atom   10 type  1   force =    -1.69193858   -1.27462627    4.29997354
     atom   11 type  2   force =    -0.66060831   -1.80742464   38.96364241
     atom   12 type  2   force =     0.40182673    0.60573640  -38.34233028
     atom   13 type  1   force =     2.39886719    0.33245707   -0.12726015
     atom   14 type  2   force =     0.49201071   -0.41079449   38.17647513
     atom   15 type  2   force =     0.24527097   -0.19459303  -37.45622169
     atom   16 type  1   force =     0.41104337    4.58864479   -0.93482851
     atom   17 type  2   force =     2.53307041    2.49101007   36.98285164
     atom   18 type  2   force =     0.05054521   -0.50744445  -39.41435006
     atom   19 type  1   force =     3.02404377   -2.13066401   -0.42029285
     atom   20 type  2   force =     0.27088853   -0.08815279  -38.98448275
     atom   21 type  1   force =     0.28329629   -0.52128473    0.07959974
     atom   22 type  2   force =     0.69205691   -2.04263794   38.20077899
     atom   23 type  2   force =    -0.00785413    0.55123335  -38.82767578
     atom   24 type  1   force =    -2.20332953   -0.41757951   -0.37965477
     atom   25 type  2   force =     2.44337618   -3.43356868   37.02737780
     atom   26 type  2   force =    -0.16356050   -0.21172011  -38.38446266
     atom   27 type  1   force =     0.77424660    2.42890073   -5.49783430
     atom   28 type  2   force =    -2.71532284    5.41401966   34.49112076
     atom   29 type  2   force =    -0.40426144   -0.21602750  -38.39134530
     atom   30 type  1   force =    -0.50598036   -0.45453636   -1.24396936
     atom   31 type  2   force =     1.42123662    0.73133062   36.93612882
     atom   32 type  2   force =    -0.43386637    0.18183838  -39.26163249
     atom   33 type  1   force =     1.13308508   -2.26657759    0.28720729
     atom   34 type  2   force =     0.09781737   -2.03878574   39.07382429
     atom   35 type  2   force =    -0.34171931    0.32972484  -38.40506728
     atom   36 type  3   force =     1.30173383    0.12265981   47.46047116
     The local contribution  to forces
     atom    1 type  1   force =     0.32347617    0.01231123   -4.02482876
     atom    2 type  2   force =     2.19122748    0.77624215  -38.28495765
     atom    3 type  2   force =     0.38920961    0.20360713   36.67360197
     atom    4 type  1   force =     1.02518731   -1.73673781    1.40629577
     atom    5 type  2   force =     1.39017531   -1.81483109  -38.16619867
     atom    6 type  2   force =    -0.24603741    0.40425772   38.45980503
     atom    7 type  1   force =     2.77641667    2.54354840   -1.62229161
     atom    8 type  2   force =     1.28176900   -0.50698870  -36.85214360
     atom    9 type  2   force =    -0.24942205   -0.10143117   38.31808203
     atom   10 type  1   force =     1.66806006    1.27812385   -4.32828438
     atom   11 type  2   force =     0.65187439    1.80263751  -38.72964556
     atom   12 type  2   force =    -0.39011786   -0.58887570   38.10584385
     atom   13 type  1   force =    -2.40448544   -0.32511455    0.13079405
     atom   14 type  2   force =    -0.49515171    0.41827758  -37.92180049
     atom   15 type  2   force =    -0.24215919    0.20062359   37.20347097
     atom   16 type  1   force =    -0.40635987   -4.61002995    0.96964877
     atom   17 type  2   force =    -2.54036342   -2.47373783  -36.75553481
     atom   18 type  2   force =    -0.04970801    0.50067086   39.18240583
     atom   19 type  1   force =    -3.03648435    2.12035883    0.43108014
     atom   20 type  2   force =    -0.26897551    0.10536696   38.73898897
     atom   21 type  1   force =    -0.28984630    0.49838739   -0.08537529
     atom   22 type  2   force =    -0.68921752    2.03670121  -37.96819926
     atom   23 type  2   force =     0.00373787   -0.53272609   38.58569525
     atom   24 type  1   force =     2.15574171    0.37368509    0.31323250
     atom   25 type  2   force =    -2.39600960    3.33456335  -36.89963235
     atom   26 type  2   force =     0.15422204    0.21945240   38.14073816
     atom   27 type  1   force =    -0.75171050   -2.44517499    5.49251776
     atom   28 type  2   force =     2.61547434   -5.16503349  -34.53359350
     atom   29 type  2   force =     0.39662205    0.21072742   38.15102074
     atom   30 type  1   force =     0.50647999    0.42993135    1.23441161
     atom   31 type  2   force =    -1.41146865   -0.72474359  -36.68422919
     atom   32 type  2   force =     0.42921397   -0.16365465   39.01390229
     atom   33 type  1   force =    -1.11607219    2.21136992   -0.30791171
     atom   34 type  2   force =    -0.09504403    2.03755805  -38.83438952
     atom   35 type  2   force =     0.33668826   -0.31291084   38.16679535
     atom   36 type  3   force =    -0.98475448   -0.75519771  -46.65434480
     The core correction contribution to forces
     atom    1 type  1   force =     0.00000000    0.00000000    0.00000000
     atom    2 type  2   force =     0.00130805    0.00025816    0.02124933
     atom    3 type  2   force =     0.00031327   -0.00019139   -0.02102647
     atom    4 type  1   force =     0.00000000    0.00000000    0.00000000
     atom    5 type  2   force =    -0.00054752    0.00169831    0.02056403
     atom    6 type  2   force =     0.00020777   -0.00116323   -0.02073715
     atom    7 type  1   force =     0.00000000    0.00000000    0.00000000
     atom    8 type  2   force =    -0.00029162    0.00057833    0.02041973
     atom    9 type  2   force =    -0.00010112    0.00055093   -0.02116228
     atom   10 type  1   force =     0.00000000    0.00000000    0.00000000
     atom   11 type  2   force =    -0.00061564   -0.00038492    0.02074586
     atom   12 type  2   force =     0.00121229    0.00143140   -0.02086668
     atom   13 type  1   force =     0.00000000    0.00000000    0.00000000
     atom   14 type  2   force =    -0.00056246    0.00002338    0.02066785
     atom   15 type  2   force =     0.00071319    0.00029037   -0.02060442
     atom   16 type  1   force =     0.00000000    0.00000000    0.00000000
     atom   17 type  2   force =    -0.00101402    0.00069624    0.02078466
     atom   18 type  2   force =     0.00016895   -0.00072212   -0.02073475
     atom   19 type  1   force =     0.00000000    0.00000000    0.00000000
     atom   20 type  2   force =     0.00009899    0.00088491   -0.02121539
     atom   21 type  1   force =     0.00000000    0.00000000    0.00000000
     atom   22 type  2   force =     0.00015400   -0.00055261    0.02053530
     atom   23 type  2   force =    -0.00044199    0.00145074   -0.02101510
     atom   24 type  1   force =     0.00000000    0.00000000    0.00000000
     atom   25 type  2   force =     0.00136398   -0.00572184    0.01571860
     atom   26 type  2   force =    -0.00023036    0.00051079   -0.02081300
     atom   27 type  1   force =     0.00000000    0.00000000    0.00000000
     atom   28 type  2   force =    -0.01017796    0.01814582    0.00229129
     atom   29 type  2   force =    -0.00067195   -0.00092830   -0.02045499
     atom   30 type  1   force =     0.00000000    0.00000000    0.00000000
     atom   31 type  2   force =     0.00045319    0.00017584    0.02058631
     atom   32 type  2   force =    -0.00006270    0.00046999   -0.02106620
     atom   33 type  1   force =     0.00000000    0.00000000    0.00000000
     atom   34 type  2   force =     0.00038643    0.00152774    0.02096167
     atom   35 type  2   force =     0.00007825    0.00107143   -0.02108026
     atom   36 type  3   force =     0.00394678   -0.00837958    0.00772693
     The Hubbard contrib.    to forces
     atom    1 type  1   force =     0.00000000    0.00000000    0.00000000
     atom    2 type  2   force =     0.00000000    0.00000000    0.00000000
     atom    3 type  2   force =     0.00000000    0.00000000    0.00000000
     atom    4 type  1   force =     0.00000000    0.00000000    0.00000000
     atom    5 type  2   force =     0.00000000    0.00000000    0.00000000
     atom    6 type  2   force =     0.00000000    0.00000000    0.00000000
     atom    7 type  1   force =     0.00000000    0.00000000    0.00000000
     atom    8 type  2   force =     0.00000000    0.00000000    0.00000000
     atom    9 type  2   force =     0.00000000    0.00000000    0.00000000
     atom   10 type  1   force =     0.00000000    0.00000000    0.00000000
     atom   11 type  2   force =     0.00000000    0.00000000    0.00000000
     atom   12 type  2   force =     0.00000000    0.00000000    0.00000000
     atom   13 type  1   force =     0.00000000    0.00000000    0.00000000
     atom   14 type  2   force =     0.00000000    0.00000000    0.00000000
     atom   15 type  2   force =     0.00000000    0.00000000    0.00000000
     atom   16 type  1   force =     0.00000000    0.00000000    0.00000000
     atom   17 type  2   force =     0.00000000    0.00000000    0.00000000
     atom   18 type  2   force =     0.00000000    0.00000000    0.00000000
     atom   19 type  1   force =     0.00000000    0.00000000    0.00000000
     atom   20 type  2   force =     0.00000000    0.00000000    0.00000000
     atom   21 type  1   force =     0.00000000    0.00000000    0.00000000
     atom   22 type  2   force =     0.00000000    0.00000000    0.00000000
     atom   23 type  2   force =     0.00000000    0.00000000    0.00000000
     atom   24 type  1   force =     0.00000000    0.00000000    0.00000000
     atom   25 type  2   force =     0.00000000    0.00000000    0.00000000
     atom   26 type  2   force =     0.00000000    0.00000000    0.00000000
     atom   27 type  1   force =     0.00000000    0.00000000    0.00000000
     atom   28 type  2   force =     0.00000000    0.00000000    0.00000000
     atom   29 type  2   force =     0.00000000    0.00000000    0.00000000
     atom   30 type  1   force =     0.00000000    0.00000000    0.00000000
     atom   31 type  2   force =     0.00000000    0.00000000    0.00000000
     atom   32 type  2   force =     0.00000000    0.00000000    0.00000000
     atom   33 type  1   force =     0.00000000    0.00000000    0.00000000
     atom   34 type  2   force =     0.00000000    0.00000000    0.00000000
     atom   35 type  2   force =     0.00000000    0.00000000    0.00000000
     atom   36 type  3   force =     0.00000000    0.00000000    0.00000000
     The SCF correction term to forces
     atom    1 type  1   force =     0.00011125   -0.00009491    0.00088294
     atom    2 type  2   force =     0.00006204    0.00003078    0.00027644
     atom    3 type  2   force =     0.00001892   -0.00000658    0.00039554
     atom    4 type  1   force =     0.00028312   -0.00009444    0.00103392
     atom    5 type  2   force =     0.00006567   -0.00001003    0.00034973
     atom    6 type  2   force =     0.00003522   -0.00003637    0.00032510
     atom    7 type  1   force =    -0.00014208    0.00008406    0.00096048
     atom    8 type  2   force =     0.00003275    0.00000684    0.00033202
     atom    9 type  2   force =     0.00001946    0.00002869    0.00036743
     atom   10 type  1   force =     0.00001506   -0.00001141    0.00087922
     atom   11 type  2   force =    -0.00002675   -0.00001523    0.00031888
     atom   12 type  2   force =    -0.00001727    0.00000545    0.00037090
     atom   13 type  1   force =    -0.00019834   -0.00010855    0.00095720
     atom   14 type  2   force =    -0.00003166   -0.00004479    0.00028556
     atom   15 type  2   force =    -0.00002041   -0.00003862    0.00037801
     atom   16 type  1   force =    -0.00010355    0.00017014    0.00092701
     atom   17 type  2   force =    -0.00012013   -0.00002353    0.00033805
     atom   18 type  2   force =    -0.00004838   -0.00002045    0.00035148
     atom   19 type  1   force =     0.00002447    0.00010217    0.00097680
     atom   20 type  2   force =    -0.00005428    0.00008706    0.00037620
     atom   21 type  1   force =    -0.00012270   -0.00008894    0.00089446
     atom   22 type  2   force =    -0.00001368   -0.00003963    0.00024839
     atom   23 type  2   force =    -0.00001264   -0.00003339    0.00043377
     atom   24 type  1   force =     0.00010897    0.00012528    0.00109270
     atom   25 type  2   force =    -0.00004180    0.00006716    0.00025558
     atom   26 type  2   force =    -0.00000145   -0.00002746    0.00043416
     atom   27 type  1   force =    -0.00017402   -0.00004585    0.00106356
     atom   28 type  2   force =     0.00005904   -0.00007611    0.00032290
     atom   29 type  2   force =     0.00001926   -0.00002326    0.00044555
     atom   30 type  1   force =     0.00010253   -0.00000781    0.00094269
     atom   31 type  2   force =     0.00002141    0.00001115    0.00027585
     atom   32 type  2   force =     0.00003799    0.00004621    0.00041988
     atom   33 type  1   force =     0.00008914   -0.00001856    0.00092664
     atom   34 type  2   force =     0.00004119    0.00000115    0.00028027
     atom   35 type  2   force =     0.00003324    0.00001281    0.00038879
     atom   36 type  3   force =    -0.00006460    0.00008132    0.00012306

     Total force =     0.190245     Total SCF correction =     0.003798

     BFGS Geometry Optimization
     Energy error            =      0.0E+00 Ry
     Gradient error          =      7.7E-02 Ry/Bohr

     number of scf cycles    =   1
     number of bfgs steps    =   0

     energy             new  =   -2246.2184888468 Ry

     new trust radius        =       0.0981875923 bohr
     new conv_thr            =       0.0000010000 Ry


ATOMIC_POSITIONS (angstrom)
Mo            6.5825199709        1.7746482887        2.8253312209
S             8.1677322862        0.8174661861        4.4350025695
S             8.1910491952        0.8174583698        1.2769887469
Mo            8.0851614683        4.5025252073        2.7129372181
S             6.4974131771        3.7191693935        4.3421122548
S             6.5550187018        3.5164915262        1.1201865345
Mo            6.4943145048        7.2108164507        2.6677017220
S             8.0822322291        6.3445909272        4.2517971999
S             8.0861595798        6.3062171887        1.0897190429
Mo            8.1521361634        9.9073784419        2.8296499783
S             6.4975928301        8.9420453799        4.3797750068
S             6.6175413788        9.0491162392        1.1432963712
Mo            3.4206810999        1.7532312150        2.7756967189
S             4.9792681670        0.8158068394        4.3573107835
S             5.0527530461        0.8471175614        1.2208358429
Mo            4.9795806258        4.5193854501        2.6360748027
S             3.4324947964        3.6727289297        4.2766343723
S             3.4351763398        3.5447385647        1.0661858953
Mo            3.4555401759        7.2102941193        2.6281716037
S             4.9844800132        6.3250284802        1.0371509634
Mo            5.0102266694        9.9045087170        2.7442647093
S             3.4691043632        8.9433024831        4.3232833719
S             3.4078884882        9.0658608909        1.1006015440
Mo            0.2778835351        1.7305650556        2.8088864583
S             1.8633662316        0.8014190234        4.3926851293
S             1.8550114251        0.8535759996        1.2083468350
Mo            1.8641668873        4.4920266710        2.6652893226
S             0.3084399260        3.6328141583        4.3519437450
S             0.2317225373        3.5278705973        1.1716894820
Mo            0.2700316158        7.2190222578        2.7005051334
S             1.9039925711        6.3157317487        4.2322403275
S             1.8574765552        6.3165286780        1.0476571606
Mo            1.8565565613        9.9280818945        2.7655002682
S             0.2967422317        9.0668114853        4.4093104470
S             0.2716283353        9.0461787261        1.1568551918
O             1.0300144398        2.4690377094        5.3687218974



     Writing config-only to output data dir ./MoS2-V-O.save/
     NEW-OLD atomic charge density approx. for the potential

     negative rho (up, down):  1.830E-04 0.000E+00

     total cpu time spent up to now is      188.0 secs

     Self-consistent Calculation

     iteration #  1     ecut=    80.00 Ry     beta= 0.70
     Davidson diagonalization with overlap
     ethr =  1.00E-06,  avg # of iterations = 12.0

     negative rho (up, down):  2.164E-04 0.000E+00

     total cpu time spent up to now is      212.8 secs

     total energy              =   -2246.24987222 Ry
     estimated scf accuracy    <       0.01055623 Ry

     iteration #  2     ecut=    80.00 Ry     beta= 0.70
     Davidson diagonalization with overlap
     ethr =  3.38E-06,  avg # of iterations =  6.0

     negative rho (up, down):  2.705E-04 0.000E+00

     total cpu time spent up to now is      229.6 secs

     total energy              =   -2246.25108558 Ry
     estimated scf accuracy    <       0.00428492 Ry

     iteration #  3     ecut=    80.00 Ry     beta= 0.70
     Davidson diagonalization with overlap
     ethr =  1.37E-06,  avg # of iterations =  5.0

     negative rho (up, down):  3.317E-04 0.000E+00

     total cpu time spent up to now is      250.1 secs

     total energy              =   -2246.25149482 Ry
     estimated scf accuracy    <       0.00038292 Ry

     iteration #  4     ecut=    80.00 Ry     beta= 0.70
     Davidson diagonalization with overlap
     ethr =  1.23E-07,  avg # of iterations =  5.0

     negative rho (up, down):  3.555E-04 0.000E+00

     total cpu time spent up to now is      266.8 secs

     total energy              =   -2246.25154340 Ry
     estimated scf accuracy    <       0.00003610 Ry

     iteration #  5     ecut=    80.00 Ry     beta= 0.70
     Davidson diagonalization with overlap
     ethr =  1.16E-08,  avg # of iterations =  5.0

     negative rho (up, down):  3.585E-04 0.000E+00

     total cpu time spent up to now is      285.2 secs

     total energy              =   -2246.25155351 Ry
     estimated scf accuracy    <       0.00001037 Ry

     iteration #  6     ecut=    80.00 Ry     beta= 0.70
     Davidson diagonalization with overlap
     ethr =  3.32E-09,  avg # of iterations =  3.0

     negative rho (up, down):  3.533E-04 0.000E+00

     total cpu time spent up to now is      307.8 secs

     total energy              =   -2246.25155453 Ry
     estimated scf accuracy    <       0.00000180 Ry

     iteration #  7     ecut=    80.00 Ry     beta= 0.70
     Davidson diagonalization with overlap
     ethr =  5.76E-10,  avg # of iterations =  5.0

     negative rho (up, down):  2.028E-04 0.000E+00

     total cpu time spent up to now is      313.8 secs

     End of self-consistent calculation

          k = 0.0000 0.0000 0.0000 (105382 PWs)   bands (ev):

   -63.0745 -62.9660 -62.9481 -62.9237 -62.9137 -62.9035 -62.9023 -62.8963
   -62.8930 -62.8779 -62.8536 -62.7800 -37.3559 -37.3168 -37.2830 -37.2612
   -37.2409 -37.2134 -37.1824 -37.1637 -37.1606 -37.1503 -37.1404 -37.1345
   -37.1152 -37.1044 -37.1011 -37.0887 -37.0866 -37.0768 -37.0756 -37.0677
   -37.0559 -37.0518 -37.0462 -37.0393 -37.0293 -37.0171 -37.0123 -36.9991
   -36.9881 -36.9669 -36.9399 -36.9100 -36.8918 -36.8748 -36.8450 -36.8222
   -20.7651 -16.0074 -15.3412 -15.2270 -15.0658 -14.9317 -14.8536 -14.7859
   -14.5711 -14.5552 -14.5031 -14.4574 -14.4277 -14.3851 -14.3141 -14.2735
   -14.2209 -14.2103 -14.1170 -14.0270 -13.9595 -13.9231 -13.9154 -13.7500
    -8.1145  -7.7782  -7.5569  -7.5235  -7.4156  -7.3759  -7.3179  -7.2558
    -7.2343  -6.9719  -6.9103  -6.8763  -6.8654  -6.7767  -6.6664  -6.5976
    -6.5504  -6.5364  -6.3793  -6.3207  -6.1563  -6.1041  -5.9733  -5.9487
    -5.9100  -5.8444  -5.7925  -5.7857  -5.7550  -5.7368  -5.7153  -5.6562
    -5.5455  -5.4947  -5.4774  -5.3520  -5.2680  -5.2104  -5.1491  -5.1058
    -5.0613  -5.0551  -4.9052  -4.8391  -4.7312  -4.6241  -4.4382  -4.4111
    -4.4061  -4.2961  -4.2256  -4.1478  -4.0740  -3.9964  -3.8981  -3.8637
    -3.7799  -3.7690  -3.7342  -3.7249  -3.6409  -3.6037  -3.5695  -3.5472
    -3.5054  -3.4564  -3.3112  -3.2110  -3.0879  -3.0586  -2.9573  -2.9109
    -2.8731  -2.8164  -2.7685  -2.7533  -2.7334  -2.7093  -2.6542  -2.4345
    -2.0993  -2.0520  -2.0343  -1.5016  -1.1197  -0.9072  -0.8296  -0.2483
    -0.2204  -0.1889  -0.1253  -0.0045   0.0708   0.1515   0.1630   0.2068
     0.2284   0.2706   0.3359   0.3745   0.4603   0.5031   0.5187   0.5493
     0.6170   0.6343   0.6928   0.7017   0.7381   0.7989   0.8196   0.8944
     0.9471   0.9493   1.1186

     the Fermi energy is    -1.3106 ev

!    total energy              =   -2246.25155495 Ry
     estimated scf accuracy    <       0.00000032 Ry
     smearing contrib. (-TS)   =      -0.00157437 Ry
     internal energy E=F+TS    =   -2246.24998058 Ry

     The total energy is F=E-TS. E is the sum of the following terms:
     one-electron contribution =  -18456.90172192 Ry
     hartree contribution      =    9216.44523676 Ry
     xc contribution           =    -392.01136042 Ry
     ewald contribution        =    7396.08681298 Ry
     one-center paw contrib.   =      -9.86894799 Ry

     convergence has been achieved in   7 iterations

     negative rho (up, down):  2.028E-04 0.000E+00

     Forces acting on atoms (cartesian axes, Ry/au):

     atom    1 type  1   force =     0.00603523   -0.01320625   -0.00047343
     atom    2 type  2   force =    -0.00981931    0.00964970   -0.00318567
     atom    3 type  2   force =    -0.01420973    0.00299259   -0.01725007
     atom    4 type  1   force =    -0.00529170    0.00484385    0.00666924
     atom    5 type  2   force =    -0.00219928   -0.00545489   -0.00829112
     atom    6 type  2   force =     0.00139188    0.00626301   -0.00089479
     atom    7 type  1   force =     0.00523723   -0.00842715   -0.00156742
     atom    8 type  2   force =     0.00097120    0.00030642    0.01335311
     atom    9 type  2   force =     0.00863173    0.00322370    0.00460858
     atom   10 type  1   force =    -0.00886996    0.00901991   -0.00910505
     atom   11 type  2   force =     0.00392576   -0.00206772   -0.00837992
     atom   12 type  2   force =    -0.00327556    0.00001404    0.00220042
     atom   13 type  1   force =     0.00233249    0.00717435   -0.00145961
     atom   14 type  2   force =     0.00441029   -0.00086177    0.00859078
     atom   15 type  2   force =    -0.00760239    0.00160385   -0.00824323
     atom   16 type  1   force =     0.00035035    0.00668173    0.00444465
     atom   17 type  2   force =     0.00852426    0.00250602   -0.00186498
     atom   18 type  2   force =    -0.00380739   -0.00424492    0.01093364
     atom   19 type  1   force =     0.00287471   -0.00799147   -0.00139620
     atom   20 type  2   force =     0.00225562   -0.00312379   -0.00297429
     atom   21 type  1   force =    -0.00243205    0.00133406    0.00249828
     atom   22 type  2   force =    -0.00134820   -0.00182152   -0.00356553
     atom   23 type  2   force =     0.00207848   -0.00087731    0.00364438
     atom   24 type  1   force =    -0.01698069   -0.01576521   -0.04318369
     atom   25 type  2   force =     0.01262704    0.00657361   -0.02006690
     atom   26 type  2   force =    -0.00379257   -0.00532453   -0.00761714
     atom   27 type  1   force =     0.00726972   -0.00178714    0.00832228
     atom   28 type  2   force =     0.05996723   -0.06064839    0.01393951
     atom   29 type  2   force =    -0.00115990    0.00397839   -0.00250613
     atom   30 type  1   force =    -0.00362699   -0.00262285    0.00437716
     atom   31 type  2   force =     0.00252781    0.00381888    0.01288720
     atom   32 type  2   force =    -0.00730164    0.00834729    0.00515675
     atom   33 type  1   force =     0.01184832   -0.00912930   -0.00344253
     atom   34 type  2   force =    -0.00011700   -0.03247236   -0.01368590
     atom   35 type  2   force =    -0.00741469    0.00475856    0.00675031
     atom   36 type  3   force =    -0.04401031    0.09273658    0.05077730
     The non-local contrib.  to forces
     atom    1 type  1   force =     0.00228625    0.02584097   -0.00969684
     atom    2 type  2   force =    -0.02514311   -0.00938340   -0.27618926
     atom    3 type  2   force =    -0.01518050   -0.00543172    0.26077238
     atom    4 type  1   force =    -0.01075869   -0.00746493   -0.00331893
     atom    5 type  2   force =     0.00446819   -0.03117993   -0.25657165
     atom    6 type  2   force =    -0.00151930    0.01107888    0.26269310
     atom    7 type  1   force =    -0.01863429    0.00330396   -0.02228855
     atom    8 type  2   force =     0.00770531   -0.00405203   -0.25657423
     atom    9 type  2   force =     0.00499425   -0.00856365    0.27638628
     atom   10 type  1   force =     0.00613882    0.00725530   -0.00018272
     atom   11 type  2   force =     0.01230567    0.00254285   -0.26358581
     atom   12 type  2   force =    -0.01499009   -0.01890979    0.26203638
     atom   13 type  1   force =     0.00372267    0.00713214   -0.00634274
     atom   14 type  2   force =     0.00960528   -0.00868501   -0.26560948
     atom   15 type  2   force =    -0.01193855   -0.00481218    0.26390816
     atom   16 type  1   force =    -0.00573151    0.03491951   -0.03142970
     atom   17 type  2   force =     0.01644803   -0.01433688   -0.25339833
     atom   18 type  2   force =    -0.00436254    0.00375042    0.26451635
     atom   19 type  1   force =     0.01639697    0.00089819   -0.01541966
     atom   20 type  2   force =     0.00033220   -0.02057870    0.26396538
     atom   21 type  1   force =     0.00209831    0.03091229    0.00466338
     atom   22 type  2   force =    -0.00456940    0.00338890   -0.25814170
     atom   23 type  2   force =     0.00710217   -0.02077434    0.26789901
     atom   24 type  1   force =     0.00762121    0.01309896    0.00271340
     atom   25 type  2   force =    -0.01925034    0.08968638   -0.18227496
     atom   26 type  2   force =     0.00246984   -0.01266641    0.26037101
     atom   27 type  1   force =    -0.01740144    0.00643818    0.01307719
     atom   28 type  2   force =     0.17326404   -0.32248475    0.10654820
     atom   29 type  2   force =     0.00550406    0.00570720    0.26220634
     atom   30 type  1   force =    -0.00146416    0.03089219    0.00577307
     atom   31 type  2   force =    -0.00800118   -0.00416192   -0.25805892
     atom   32 type  2   force =    -0.00219290   -0.00908891    0.27376894
     atom   33 type  1   force =     0.00721008    0.02919300    0.00421857
     atom   34 type  2   force =    -0.00342235   -0.03503694   -0.27443058
     atom   35 type  2   force =    -0.00424250   -0.01318921    0.26799756
     atom   36 type  3   force =    -0.47009537    0.94116240   -0.88237033
     The ionic contribution  to forces
     atom    1 type  1   force =    -0.65910067    0.29735067    4.19496480
     atom    2 type  2   force =    -1.86608334   -0.79502362   38.67359108
     atom    3 type  2   force =    -0.54622833   -0.26097783  -37.15507339
     atom    4 type  1   force =    -0.56550877    1.45161076   -1.20990311
     atom    5 type  2   force =    -1.30757619    1.77219174   38.33448416
     atom    6 type  2   force =     0.16081044   -0.48258206  -38.64142764
     atom    7 type  1   force =    -2.81148124   -2.31793087    1.57639020
     atom    8 type  2   force =    -1.23145114    0.45097795   37.25206543
     atom    9 type  2   force =     0.30897997    0.10875017  -38.57025145
     atom   10 type  1   force =    -1.37684385   -1.40708709    4.09655077
     atom   11 type  2   force =    -0.63201848   -1.82215715   38.93285750
     atom   12 type  2   force =     0.30314366    0.53822203  -38.31754752
     atom   13 type  1   force =     2.32611726    0.18317158    0.02313246
     atom   14 type  2   force =     0.39192569   -0.37110830   38.25507409
     atom   15 type  2   force =     0.20848923   -0.13239659  -37.47208004
     atom   16 type  1   force =     0.43736972    4.36228544   -0.74721103
     atom   17 type  2   force =     2.52415412    2.40159997   37.00563328
     atom   18 type  2   force =     0.07850743   -0.47171061  -39.34933615
     atom   19 type  1   force =     3.01576346   -2.09369125   -0.46247855
     atom   20 type  2   force =     0.23988698   -0.07779249  -39.04920884
     atom   21 type  1   force =     0.24729892   -0.55740726    0.26615841
     atom   22 type  2   force =     0.70288563   -2.02440740   38.24422615
     atom   23 type  2   force =     0.06554128    0.50780871  -38.83340745
     atom   24 type  1   force =    -1.67227166   -0.17201878   -1.44699446
     atom   25 type  2   force =     2.10982332   -3.23906109   36.94022089
     atom   26 type  2   force =     0.01846009   -0.24749234  -38.32025969
     atom   27 type  1   force =     0.44904629    2.46382437   -5.20176946
     atom   28 type  2   force =    -3.01487745    5.54850383   33.99459481
     atom   29 type  2   force =    -0.35961462   -0.02037852  -38.27409360
     atom   30 type  1   force =    -0.45366364   -0.63483007   -1.15501282
     atom   31 type  2   force =     1.37137855    0.71777457   37.00648209
     atom   32 type  2   force =    -0.44274515    0.09303730  -39.20156426
     atom   33 type  1   force =     0.85399211   -1.88306017    0.38075783
     atom   34 type  2   force =     0.05678201   -1.74518219   38.98886037
     atom   35 type  2   force =    -0.30602368    0.31320498  -38.32126715
     atom   36 type  3   force =     1.37513204   -0.45401839   47.56284227
     The local contribution  to forces
     atom    1 type  1   force =     0.66295673   -0.33702668   -4.18556053
     atom    2 type  2   force =     1.88002898    0.81345035  -38.42179642
     atom    3 type  2   force =     0.54672947    0.26920046   36.89788502
     atom    4 type  1   force =     0.57074151   -1.43939266    1.21993726
     atom    5 type  2   force =     1.30149292   -1.74817709  -38.10665383
     atom    6 type  2   force =    -0.15809545    0.47883465   38.39865570
     atom    7 type  1   force =     2.83532524    2.30666288   -1.55537604
     atom    8 type  2   force =     1.22494793   -0.44707295  -37.00249299
     atom    9 type  2   force =    -0.30540935   -0.09742669   38.31960698
     atom   10 type  1   force =     1.36179467    1.40909796   -4.10528650
     atom   11 type  2   force =     0.62415906    1.81804509  -38.69832455
     atom   12 type  2   force =    -0.29259819   -0.52058105   38.07860962
     atom   13 type  1   force =    -2.32748729   -0.18368958   -0.01809851
     atom   14 type  2   force =    -0.39658276    0.37876526  -38.00149222
     atom   15 type  2   force =    -0.20477706    0.13834116   37.22061608
     atom   16 type  1   force =    -0.43126103   -4.39054666    0.78332828
     atom   17 type  2   force =    -2.53110265   -2.38545569  -36.77475175
     atom   18 type  2   force =    -0.07807976    0.46440965   39.11643088
     atom   19 type  1   force =    -3.02922631    2.08523289    0.47677406
     atom   20 type  2   force =    -0.23804740    0.09450648   38.80345405
     atom   21 type  1   force =    -0.25175336    0.52798179   -0.26811303
     atom   22 type  2   force =    -0.69976095    2.01983695  -38.01003789
     atom   23 type  2   force =    -0.07003515   -0.48926963   38.59011032
     atom   24 type  1   force =     1.64751922    0.14240345    1.40096052
     atom   25 type  2   force =    -2.07867048    3.15957342  -36.79492943
     atom   26 type  2   force =    -0.02453438    0.25413121   38.07300716
     atom   27 type  1   force =    -0.42416941   -2.47209700    5.19701752
     atom   28 type  2   force =     2.91184838   -5.30591973  -34.08660047
     atom   29 type  2   force =     0.35340956    0.01911576   38.02990462
     atom   30 type  1   force =     0.45145892    0.60187853    1.15389806
     atom   31 type  2   force =    -1.36129184   -0.70997453  -36.75600474
     atom   32 type  2   force =     0.43783758   -0.07602037   38.95396973
     atom   33 type  1   force =    -0.84937746    1.84497816   -0.38811860
     atom   34 type  2   force =    -0.05388335    1.74660723  -38.74904526
     atom   35 type  2   force =     0.30276193   -0.29617700   38.08102813
     atom   36 type  3   force =    -0.95426676   -0.38373818  -46.63821165
     The core correction contribution to forces
     atom    1 type  1   force =     0.00000000    0.00000000    0.00000000
     atom    2 type  2   force =     0.00133163    0.00043842    0.02126944
     atom    3 type  2   force =     0.00050522    0.00006876   -0.02071787
     atom    4 type  1   force =     0.00000000    0.00000000    0.00000000
     atom    5 type  2   force =    -0.00062763    0.00162282    0.02058614
     atom    6 type  2   force =     0.00019236   -0.00119716   -0.02078522
     atom    7 type  1   force =     0.00000000    0.00000000    0.00000000
     atom    8 type  2   force =    -0.00029408    0.00065245    0.02053329
     atom    9 type  2   force =     0.00003331    0.00058531   -0.02112700
     atom   10 type  1   force =     0.00000000    0.00000000    0.00000000
     atom   11 type  2   force =    -0.00050678   -0.00036359    0.02080650
     atom   12 type  2   force =     0.00118283    0.00145648   -0.02083471
     atom   13 type  1   force =     0.00000000    0.00000000    0.00000000
     atom   14 type  2   force =    -0.00053203    0.00000739    0.02075707
     atom   15 type  2   force =     0.00063675    0.00032474   -0.02066142
     atom   16 type  1   force =     0.00000000    0.00000000    0.00000000
     atom   17 type  2   force =    -0.00091808    0.00062219    0.02080397
     atom   18 type  2   force =     0.00011467   -0.00082265   -0.02068149
     atom   19 type  1   force =     0.00000000    0.00000000    0.00000000
     atom   20 type  2   force =     0.00009438    0.00084322   -0.02117058
     atom   21 type  1   force =     0.00000000    0.00000000    0.00000000
     atom   22 type  2   force =     0.00008137   -0.00048062    0.02059744
     atom   23 type  2   force =    -0.00052510    0.00153271   -0.02095845
     atom   24 type  1   force =     0.00000000    0.00000000    0.00000000
     atom   25 type  2   force =     0.00077395   -0.00390405    0.01709050
     atom   26 type  2   force =    -0.00025291    0.00059322   -0.02072307
     atom   27 type  1   force =     0.00000000    0.00000000    0.00000000
     atom   28 type  2   force =    -0.01028535    0.01913053   -0.00044351
     atom   29 type  2   force =    -0.00045705   -0.00066985   -0.02055207
     atom   30 type  1   force =     0.00000000    0.00000000    0.00000000
     atom   31 type  2   force =     0.00048357    0.00035678    0.02068419
     atom   32 type  2   force =    -0.00018397    0.00051297   -0.02104798
     atom   33 type  1   force =     0.00000000    0.00000000    0.00000000
     atom   34 type  2   force =     0.00040928    0.00126163    0.02111800
     atom   35 type  2   force =     0.00006192    0.00110545   -0.02096750
     atom   36 type  3   force =     0.00519274   -0.01085964    0.00905083
     The Hubbard contrib.    to forces
     atom    1 type  1   force =     0.00000000    0.00000000    0.00000000
     atom    2 type  2   force =     0.00000000    0.00000000    0.00000000
     atom    3 type  2   force =     0.00000000    0.00000000    0.00000000
     atom    4 type  1   force =     0.00000000    0.00000000    0.00000000
     atom    5 type  2   force =     0.00000000    0.00000000    0.00000000
     atom    6 type  2   force =     0.00000000    0.00000000    0.00000000
     atom    7 type  1   force =     0.00000000    0.00000000    0.00000000
     atom    8 type  2   force =     0.00000000    0.00000000    0.00000000
     atom    9 type  2   force =     0.00000000    0.00000000    0.00000000
     atom   10 type  1   force =     0.00000000    0.00000000    0.00000000
     atom   11 type  2   force =     0.00000000    0.00000000    0.00000000
     atom   12 type  2   force =     0.00000000    0.00000000    0.00000000
     atom   13 type  1   force =     0.00000000    0.00000000    0.00000000
     atom   14 type  2   force =     0.00000000    0.00000000    0.00000000
     atom   15 type  2   force =     0.00000000    0.00000000    0.00000000
     atom   16 type  1   force =     0.00000000    0.00000000    0.00000000
     atom   17 type  2   force =     0.00000000    0.00000000    0.00000000
     atom   18 type  2   force =     0.00000000    0.00000000    0.00000000
     atom   19 type  1   force =     0.00000000    0.00000000    0.00000000
     atom   20 type  2   force =     0.00000000    0.00000000    0.00000000
     atom   21 type  1   force =     0.00000000    0.00000000    0.00000000
     atom   22 type  2   force =     0.00000000    0.00000000    0.00000000
     atom   23 type  2   force =     0.00000000    0.00000000    0.00000000
     atom   24 type  1   force =     0.00000000    0.00000000    0.00000000
     atom   25 type  2   force =     0.00000000    0.00000000    0.00000000
     atom   26 type  2   force =     0.00000000    0.00000000    0.00000000
     atom   27 type  1   force =     0.00000000    0.00000000    0.00000000
     atom   28 type  2   force =     0.00000000    0.00000000    0.00000000
     atom   29 type  2   force =     0.00000000    0.00000000    0.00000000
     atom   30 type  1   force =     0.00000000    0.00000000    0.00000000
     atom   31 type  2   force =     0.00000000    0.00000000    0.00000000
     atom   32 type  2   force =     0.00000000    0.00000000    0.00000000
     atom   33 type  1   force =     0.00000000    0.00000000    0.00000000
     atom   34 type  2   force =     0.00000000    0.00000000    0.00000000
     atom   35 type  2   force =     0.00000000    0.00000000    0.00000000
     atom   36 type  3   force =     0.00000000    0.00000000    0.00000000
     The SCF correction term to forces
     atom    1 type  1   force =    -0.00010882    0.00062971   -0.00017303
     atom    2 type  2   force =     0.00004479    0.00016886   -0.00005267
     atom    3 type  2   force =    -0.00003733    0.00013384   -0.00010839
     atom    4 type  1   force =     0.00023251    0.00009159   -0.00003815
     atom    5 type  2   force =     0.00004169    0.00008850   -0.00012810
     atom    6 type  2   force =     0.00000209    0.00012961   -0.00002290
     atom    7 type  1   force =     0.00002579   -0.00046220   -0.00028520
     atom    8 type  2   force =     0.00006145   -0.00019809   -0.00017055
     atom    9 type  2   force =     0.00003181   -0.00012052    0.00000159
     atom   10 type  1   force =     0.00003865   -0.00024534   -0.00017876
     atom   11 type  2   force =    -0.00001544   -0.00013400   -0.00012573
     atom   12 type  2   force =    -0.00001551   -0.00017272   -0.00005552
     atom   13 type  1   force =    -0.00002189    0.00056113   -0.00014298
     atom   14 type  2   force =    -0.00000763    0.00015981   -0.00013083
     atom   15 type  2   force =    -0.00001449    0.00014762   -0.00001817
     atom   16 type  1   force =    -0.00002855    0.00002436   -0.00023505
     atom   17 type  2   force =    -0.00005890    0.00007735   -0.00014432
     atom   18 type  2   force =     0.00001107    0.00012919    0.00001189
     atom   19 type  1   force =    -0.00006115   -0.00043039   -0.00026422
     atom   20 type  2   force =    -0.00001228   -0.00010138   -0.00000647
     atom   21 type  1   force =    -0.00007766   -0.00015184   -0.00020264
     atom   22 type  2   force =     0.00001340   -0.00015843   -0.00020169
     atom   23 type  2   force =    -0.00000646   -0.00017384    0.00000879
     atom   24 type  1   force =     0.00014880    0.00075208    0.00014468
     atom   25 type  2   force =    -0.00005114    0.00027986   -0.00016607
     atom   26 type  2   force =     0.00006306    0.00011070   -0.00000470
     atom   27 type  1   force =    -0.00020747    0.00004823    0.00000486
     atom   28 type  2   force =     0.00001588    0.00012264   -0.00015169
     atom   29 type  2   force =    -0.00000359    0.00020471    0.00003642
     atom   30 type  1   force =     0.00004014   -0.00056258   -0.00027331
     atom   31 type  2   force =    -0.00004303   -0.00017509   -0.00020758
     atom   32 type  2   force =    -0.00001895   -0.00009279    0.00003816
     atom   33 type  1   force =     0.00002185   -0.00023937   -0.00029249
     atom   34 type  2   force =    -0.00000433   -0.00012117   -0.00018059
     atom   35 type  2   force =     0.00002590   -0.00018475   -0.00003290
     atom   36 type  3   force =     0.00002529    0.00019129   -0.00052599

     Total force =     0.168643     Total SCF correction =     0.001994
     Energy error            =      3.3E-02 Ry
     Gradient error          =      9.3E-02 Ry/Bohr

     number of scf cycles    =   2
     number of bfgs steps    =   1

     energy             old  =   -2246.2184888468 Ry
     energy             new  =   -2246.2515549489 Ry

     CASE: energy            _new < energy            _old


     WARNING: bfgs curvature condition failed, Theta= 0.986
     new trust radius        =       0.1080063516 bohr
     new conv_thr            =       0.0000000927 Ry


ATOMIC_POSITIONS (angstrom)
Mo            6.5876480622        1.7651589200        2.8258639278
S             8.1610024777        0.8236514313        4.4341838499
S             8.1856778609        0.8209160793        1.2711780120
Mo            8.0794480428        4.5070735464        2.7130713109
S             6.4957096822        3.7161359858        4.3376549780
S             6.5561328514        3.5203912210        1.1194618737
Mo            6.4977199568        7.2050745151        2.6655161743
S             8.0827429112        6.3449786743        4.2597882244
S             8.0910047376        6.3078477481        1.0935415051
Mo            8.1459059593        9.9123284799        2.8211919028
S             6.4998130754        8.9410359830        4.3757818639
S             6.6163426468        9.0492843602        1.1453611172
Mo            3.4210224420        1.7580336468        2.7749226591
S             4.9823193882        0.8150761722        4.3627636641
S             5.0482982066        0.8479699263        1.2158787329
Mo            4.9796201490        4.5240048190        2.6387681354
S             3.4370680489        3.6739769326        4.2748024312
S             3.4328645648        3.5419871339        1.0728058466
Mo            3.4571265937        7.2053325579        2.6267180867
S             4.9856960279        6.3232723011        1.0361698775
Mo            5.0086350754        9.9061056381        2.7454029691
S             3.4679293051        8.9425457076        4.3212243250
S             3.4083265543        9.0659357227        1.1035848311
Mo            0.2651613541        1.7187370489        2.7788539529
S             1.8725700139        0.8070216841        4.3841135720
S             1.8514739881        0.8515505374        1.2055146729
Mo            1.8678679461        4.4899910297        2.6699761100
S             0.3420234231        3.6049326361        4.3621503994
S             0.2315546987        3.5293784584        1.1707650963
Mo            0.2684330265        7.2191540179        2.7014063955
S             1.9055000738        6.3181234049        4.2402703093
S             1.8532456590        6.3216650584        1.0505381076
Mo            1.8652338313        9.9203252287        2.7614035972
S             0.2970404372        9.0471832478        4.4031447099
S             0.2672075886        9.0487541001        1.1615960335
O             1.0077314623        2.5146568996        5.3949706165



     Writing config-only to output data dir ./MoS2-V-O.save/
     NEW-OLD atomic charge density approx. for the potential

     negative rho (up, down):  1.792E-04 0.000E+00

     total cpu time spent up to now is      322.8 secs

     Self-consistent Calculation

     iteration #  1     ecut=    80.00 Ry     beta= 0.70
     Davidson diagonalization with overlap
     ethr =  1.00E-06,  avg # of iterations = 12.0

     negative rho (up, down):  1.488E-04 0.000E+00

     total cpu time spent up to now is      344.4 secs

     total energy              =   -2246.27723905 Ry
     estimated scf accuracy    <       0.00638409 Ry

     iteration #  2     ecut=    80.00 Ry     beta= 0.70
     Davidson diagonalization with overlap
     ethr =  2.05E-06,  avg # of iterations =  5.0

     negative rho (up, down):  1.626E-04 0.000E+00

     total cpu time spent up to now is      373.3 secs

     total energy              =   -2246.27813770 Ry
     estimated scf accuracy    <       0.00286621 Ry

     iteration #  3     ecut=    80.00 Ry     beta= 0.70
     Davidson diagonalization with overlap
     ethr =  9.19E-07,  avg # of iterations =  4.0

     negative rho (up, down):  1.566E-04 0.000E+00

     total cpu time spent up to now is      389.8 secs

     total energy              =   -2246.27836306 Ry
     estimated scf accuracy    <       0.00026230 Ry

     iteration #  4     ecut=    80.00 Ry     beta= 0.70
     Davidson diagonalization with overlap
     ethr =  8.41E-08,  avg # of iterations =  5.0

     negative rho (up, down):  1.590E-04 0.000E+00

     total cpu time spent up to now is      407.4 secs

     total energy              =   -2246.27839576 Ry
     estimated scf accuracy    <       0.00002687 Ry

     iteration #  5     ecut=    80.00 Ry     beta= 0.70
     Davidson diagonalization with overlap
     ethr =  8.61E-09,  avg # of iterations =  5.0

     negative rho (up, down):  1.646E-04 0.000E+00

     total cpu time spent up to now is      434.4 secs

     total energy              =   -2246.27840253 Ry
     estimated scf accuracy    <       0.00000482 Ry

     iteration #  6     ecut=    80.00 Ry     beta= 0.70
     Davidson diagonalization with overlap
     ethr =  1.54E-09,  avg # of iterations =  2.0

     negative rho (up, down):  1.710E-04 0.000E+00

     total cpu time spent up to now is      454.3 secs

     total energy              =   -2246.27840309 Ry
     estimated scf accuracy    <       0.00000123 Ry

     iteration #  7     ecut=    80.00 Ry     beta= 0.70
     Davidson diagonalization with overlap
     ethr =  3.94E-10,  avg # of iterations =  4.0

     negative rho (up, down):  1.746E-04 0.000E+00

     total cpu time spent up to now is      469.3 secs

     total energy              =   -2246.27840323 Ry
     estimated scf accuracy    <       0.00000039 Ry

     iteration #  8     ecut=    80.00 Ry     beta= 0.70
     Davidson diagonalization with overlap
     ethr =  1.27E-10,  avg # of iterations =  5.0

     negative rho (up, down):  1.815E-04 0.000E+00

     total cpu time spent up to now is      490.6 secs

     total energy              =   -2246.27840327 Ry
     estimated scf accuracy    <       0.00000012 Ry

     iteration #  9     ecut=    80.00 Ry     beta= 0.70
     Davidson diagonalization with overlap
     ethr =  3.83E-11,  avg # of iterations =  4.0

     negative rho (up, down):  2.034E-04 0.000E+00

     total cpu time spent up to now is      496.3 secs

     End of self-consistent calculation

          k = 0.0000 0.0000 0.0000 (105382 PWs)   bands (ev):

   -63.0961 -62.9613 -62.9473 -62.9272 -62.9165 -62.9072 -62.9046 -62.8977
   -62.8958 -62.8558 -62.8330 -62.7846 -37.3665 -37.3330 -37.2887 -37.2704
   -37.2452 -37.2079 -37.1829 -37.1653 -37.1578 -37.1472 -37.1394 -37.1331
   -37.1169 -37.1002 -37.0956 -37.0921 -37.0852 -37.0767 -37.0745 -37.0701
   -37.0572 -37.0491 -37.0417 -37.0361 -37.0199 -37.0163 -37.0052 -36.9973
   -36.9863 -36.9599 -36.9388 -36.9149 -36.8829 -36.8754 -36.8475 -36.8240
   -21.2292 -16.0121 -15.2956 -15.2338 -15.0699 -14.9305 -14.8469 -14.7156
   -14.5826 -14.5523 -14.5114 -14.4608 -14.4275 -14.3883 -14.3095 -14.2666
   -14.2264 -14.2161 -14.1168 -14.0158 -13.9711 -13.9265 -13.9109 -13.7004
    -8.1148  -7.7993  -7.5771  -7.5465  -7.4305  -7.3881  -7.3091  -7.2605
    -7.2390  -7.0091  -6.9155  -6.8840  -6.8727  -6.7726  -6.6909  -6.6015
    -6.5603  -6.5320  -6.3817  -6.3233  -6.1764  -6.1151  -5.9719  -5.9575
    -5.9021  -5.8469  -5.7975  -5.7840  -5.7534  -5.7441  -5.7287  -5.6650
    -5.5477  -5.4911  -5.4707  -5.3372  -5.2764  -5.2145  -5.1479  -5.0931
    -5.0639  -5.0564  -4.9059  -4.8546  -4.7344  -4.6276  -4.4598  -4.4211
    -4.4074  -4.3147  -4.2407  -4.1666  -4.1052  -3.9855  -3.9065  -3.8701
    -3.7817  -3.7747  -3.7375  -3.7182  -3.6399  -3.6029  -3.5771  -3.5635
    -3.4913  -3.4554  -3.3156  -3.2002  -3.1173  -3.0355  -2.9678  -2.9106
    -2.8765  -2.8194  -2.7775  -2.7573  -2.7387  -2.7142  -2.6559  -2.4463
    -2.1106  -2.0625  -2.0410  -1.5986  -1.0710  -0.8932  -0.8356  -0.2434
    -0.2262  -0.1838  -0.1274   0.0093   0.0611   0.1440   0.1702   0.2210
     0.2552   0.2828   0.3303   0.3757   0.4517   0.4992   0.5284   0.5548
     0.6288   0.6335   0.6885   0.6970   0.7455   0.8064   0.8330   0.8989
     0.9330   0.9419   1.1228

     the Fermi energy is    -1.3348 ev

!    total energy              =   -2246.27840326 Ry
     estimated scf accuracy    <       0.00000002 Ry
     smearing contrib. (-TS)   =      -0.00026314 Ry
     internal energy E=F+TS    =   -2246.27814012 Ry

     The total energy is F=E-TS. E is the sum of the following terms:
     one-electron contribution =  -18453.60513784 Ry
     hartree contribution      =    9214.77797555 Ry
     xc contribution           =    -392.04772068 Ry
     ewald contribution        =    7394.46288013 Ry
     one-center paw contrib.   =      -9.86613727 Ry

     convergence has been achieved in   9 iterations

     negative rho (up, down):  2.034E-04 0.000E+00

     Forces acting on atoms (cartesian axes, Ry/au):

     atom    1 type  1   force =    -0.00140902   -0.00471247   -0.00354375
     atom    2 type  2   force =    -0.00421303    0.00642504   -0.00572197
     atom    3 type  2   force =    -0.02178305   -0.00331825   -0.02677207
     atom    4 type  1   force =     0.00387984   -0.00091071    0.01497712
     atom    5 type  2   force =    -0.00047510   -0.00509534   -0.00674709
     atom    6 type  2   force =     0.00061092    0.00463658    0.00059436
     atom    7 type  1   force =     0.00301655   -0.00437075    0.00153806
     atom    8 type  2   force =     0.00085717   -0.00091210    0.01087313
     atom    9 type  2   force =     0.00752290    0.00285316    0.00113404
     atom   10 type  1   force =    -0.00392829    0.00731198   -0.00022562
     atom   11 type  2   force =     0.00329624   -0.00208557   -0.00869405
     atom   12 type  2   force =    -0.00472256   -0.00062240   -0.00006069
     atom   13 type  1   force =     0.00515123    0.00280913   -0.00286828
     atom   14 type  2   force =     0.00229741    0.00006821    0.00549126
     atom   15 type  2   force =    -0.00630801    0.00133154   -0.00575739
     atom   16 type  1   force =     0.00067097    0.00301345    0.00280335
     atom   17 type  2   force =     0.00862185    0.00271956    0.00147646
     atom   18 type  2   force =    -0.00253170   -0.00219256    0.00764755
     atom   19 type  1   force =     0.00249767   -0.00509359    0.00047162
     atom   20 type  2   force =     0.00238982   -0.00268837   -0.00422356
     atom   21 type  1   force =    -0.00167075   -0.00094615    0.00201056
     atom   22 type  2   force =     0.00031466   -0.00263357   -0.00227118
     atom   23 type  2   force =     0.00412366   -0.00264162    0.00073494
     atom   24 type  1   force =    -0.00234779   -0.00466858   -0.01760250
     atom   25 type  2   force =     0.00661027   -0.00406407   -0.02404111
     atom   26 type  2   force =     0.00177233   -0.00724630   -0.01110779
     atom   27 type  1   force =     0.00725893    0.00126696    0.00667677
     atom   28 type  2   force =     0.04543560   -0.06266816   -0.00255933
     atom   29 type  2   force =    -0.00216262    0.00611661   -0.00281320
     atom   30 type  1   force =    -0.00421273   -0.00654563    0.00715662
     atom   31 type  2   force =     0.00173173    0.00189990    0.00903909
     atom   32 type  2   force =    -0.00583226    0.00562293    0.00481514
     atom   33 type  1   force =     0.00311846   -0.00014524    0.00132815
     atom   34 type  2   force =    -0.00102855   -0.02300465   -0.01494149
     atom   35 type  2   force =    -0.00545816    0.00419861    0.00402813
     atom   36 type  3   force =    -0.04309459    0.09629241    0.05715471
     The non-local contrib.  to forces
     atom    1 type  1   force =     0.00418534    0.02281499   -0.01039861
     atom    2 type  2   force =    -0.02083754   -0.01224576   -0.27432257
     atom    3 type  2   force =    -0.02130629   -0.01043557    0.25157153
     atom    4 type  1   force =    -0.01314882   -0.00511926   -0.00643901
     atom    5 type  2   force =     0.00572007   -0.03105771   -0.25615218
     atom    6 type  2   force =    -0.00226063    0.01031796    0.26433903
     atom    7 type  1   force =    -0.01831860    0.00453345   -0.02245947
     atom    8 type  2   force =     0.00804071   -0.00503032   -0.25745830
     atom    9 type  2   force =     0.00333070   -0.00905429    0.27421432
     atom   10 type  1   force =     0.00463504    0.00772104   -0.00095277
     atom   11 type  2   force =     0.01118530    0.00193416   -0.26443171
     atom   12 type  2   force =    -0.01563145   -0.01995966    0.26137690
     atom   13 type  1   force =     0.00313199    0.01019005   -0.00658454
     atom   14 type  2   force =     0.00840783   -0.00806543   -0.26760758
     atom   15 type  2   force =    -0.01081596   -0.00520063    0.26522053
     atom   16 type  1   force =    -0.00585243    0.03623569   -0.03243051
     atom   17 type  2   force =     0.01555490   -0.01367910   -0.25268042
     atom   18 type  2   force =    -0.00295313    0.00598096    0.26276937
     atom   19 type  1   force =     0.01678214    0.00250099   -0.01444036
     atom   20 type  2   force =     0.00031414   -0.01958459    0.26274125
     atom   21 type  1   force =     0.00151958    0.03207122    0.00337524
     atom   22 type  2   force =    -0.00328646    0.00144926   -0.25817755
     atom   23 type  2   force =     0.00978408   -0.02231160    0.26562422
     atom   24 type  1   force =     0.00290197    0.01667841    0.01427532
     atom   25 type  2   force =    -0.01110442    0.05776569   -0.21022482
     atom   26 type  2   force =     0.00541424   -0.01395632    0.25937689
     atom   27 type  1   force =    -0.01850256    0.00310908    0.01333621
     atom   28 type  2   force =     0.16260574   -0.31562013    0.13827159
     atom   29 type  2   force =     0.00360843    0.00372482    0.26434730
     atom   30 type  1   force =    -0.00040881    0.03115592    0.00577349
     atom   31 type  2   force =    -0.00910110   -0.00662285   -0.26010751
     atom   32 type  2   force =    -0.00031192   -0.01045746    0.27319955
     atom   33 type  1   force =     0.00769683    0.02598045    0.00382987
     atom   34 type  2   force =    -0.00447617   -0.02716791   -0.27699110
     atom   35 type  2   force =    -0.00343978   -0.01382579    0.26645179
     atom   36 type  3   force =    -0.57515515    1.12795120   -1.03264302
[...]
     atom   28 type  2   force =     0.00054788    0.00924286    0.29347934
     atom   29 type  2   force =    -0.00002057   -0.00918661    0.27717758
     atom   30 type  1   force =     0.00006069    0.01762152    0.00414829
     atom   31 type  2   force =    -0.00697008    0.00226771   -0.26869421
     atom   32 type  2   force =     0.00602163   -0.01279750    0.26717396
     atom   33 type  1   force =     0.00182749    0.00500115    0.00310002
     atom   34 type  2   force =    -0.00066845   -0.00902692   -0.27621856
     atom   35 type  2   force =     0.00043288   -0.01485144    0.26742415
     atom   36 type  3   force =    -0.01079808   -0.05320564   -2.32496422
     The ionic contribution  to forces
     atom    1 type  1   force =    -0.65930395    0.12343476    0.88762950
     atom    2 type  2   force =    -0.79418582   -0.84787485   38.28861828
     atom    3 type  2   force =    -0.03562609   -0.16679226  -38.31586451
     atom    4 type  1   force =    -1.13298657    0.83874058   -3.48707813
     atom    5 type  2   force =    -1.76338994    1.13316410   37.62360031
     atom    6 type  2   force =     0.17965656   -0.34812110  -38.87099129
     atom    7 type  1   force =    -3.19548604   -1.50302244    1.84576414
     atom    8 type  2   force =    -1.76732300    1.13537924   37.64596771
     atom    9 type  2   force =     0.29656561    0.20098304  -38.70652003
     atom   10 type  1   force =    -0.65074130   -0.94526010    2.42034072
     atom   11 type  2   force =    -0.60359777   -1.39585502   38.49688541
     atom   12 type  2   force =     0.13793149    0.27674751  -38.26119765
     atom   13 type  1   force =     0.73054167    0.10405313    0.78923999
     atom   14 type  2   force =     0.01027538   -0.29331078   38.29382299
     atom   15 type  2   force =     0.01678065   -0.26081530  -38.00513556
     atom   16 type  1   force =     0.04212710    3.95274002    0.25333959
     atom   17 type  2   force =     1.80669893    1.13290222   37.61993499
     atom   18 type  2   force =    -0.15095362   -0.34955384  -38.90490608
     atom   19 type  1   force =     3.19712825   -1.47172640    1.77091330
     atom   20 type  2   force =     0.01297023    0.11432183  -38.92811454
     atom   21 type  1   force =     0.02709553   -0.49127891    0.55598224
     atom   22 type  2   force =     0.59167224   -1.40701583   38.44390452
     atom   23 type  2   force =    -0.12404994    0.26119702  -38.30914070
     atom   24 type  1   force =    -0.06068922   -0.65740744   -1.81503242
     atom   25 type  2   force =     0.78598196   -0.87489469   38.27948045
     atom   26 type  2   force =     0.01030224   -0.17497615  -38.39023838
     atom   27 type  1   force =     1.08737749    0.87893462   -3.58375911
     atom   28 type  2   force =    -0.06152044    0.23212631   27.87037317
     atom   29 type  2   force =    -0.02648420   -0.12483848  -38.22086447
     atom   30 type  1   force =    -0.00862995    0.32026056    0.59850965
     atom   31 type  2   force =     1.77536288    1.16294984   37.63853744
     atom   32 type  2   force =    -0.30674559    0.22012670  -38.71010876
     atom   33 type  1   force =     0.61928767   -0.96573375    2.06821852
     atom   34 type  2   force =     0.01011853   -0.45085146   38.62277193
     atom   35 type  2   force =    -0.01261644    0.11662291  -37.82121161
     atom   36 type  3   force =     0.01645548    0.52464440   50.31632836
     The local contribution  to forces
     atom    1 type  1   force =     0.66057149   -0.14775318   -0.88052428
     atom    2 type  2   force =     0.79350913    0.85695798  -38.03941352
     atom    3 type  2   force =     0.03767396    0.17538678   38.07083075
     atom    4 type  1   force =     1.12296242   -0.83573367    3.46592690
     atom    5 type  2   force =     1.75949194   -1.11463822  -37.38650781
     atom    6 type  2   force =    -0.17897783    0.35106960   38.62839581
     atom    7 type  1   force =     3.21057760    1.49892593   -1.82573336
     atom    8 type  2   force =     1.76090099   -1.13806673  -37.39817780
     atom    9 type  2   force =    -0.29066065   -0.18849743   38.45982698
     atom   10 type  1   force =     0.65231416    0.94085126   -2.42343588
     atom   11 type  2   force =     0.59636167    1.39737002  -38.25608272
     atom   12 type  2   force =    -0.12988013   -0.26317614   38.01771233
     atom   13 type  1   force =    -0.73139341   -0.12841947   -0.78248798
     atom   14 type  2   force =    -0.01032505    0.30177639  -38.04455953
     atom   15 type  2   force =    -0.01657789    0.26876760   37.76210576
     atom   16 type  1   force =    -0.04170224   -3.98527056   -0.23075097
     atom   17 type  2   force =    -1.80289130   -1.11448051  -37.38268104
     atom   18 type  2   force =     0.15059931    0.35248802   38.66228872
     atom   19 type  1   force =    -3.21238627    1.46755086   -1.75121508
     atom   20 type  2   force =    -0.01291095   -0.09839221   38.68312012
     atom   21 type  1   force =    -0.02720610    0.46176404   -0.55806585
     atom   22 type  2   force =    -0.58469891    1.40864440  -38.20273607
     atom   23 type  2   force =     0.11626735   -0.24810886   38.06560339
     atom   24 type  1   force =     0.06020361    0.63559692    1.80032634
     atom   25 type  2   force =    -0.78526922    0.88368984  -38.03051251
     atom   26 type  2   force =    -0.01260995    0.18362322   38.14549851
     atom   27 type  1   force =    -1.07772665   -0.87564655    3.56233666
     atom   28 type  2   force =     0.06055151   -0.24071677  -28.15657597
     atom   29 type  2   force =     0.02627699    0.13304330   37.96571609
     atom   30 type  1   force =     0.00864754   -0.33748713   -0.60240103
     atom   31 type  2   force =    -1.76889581   -1.16547716  -37.39064170
     atom   32 type  2   force =     0.30078678   -0.20750684   38.46294878
     atom   33 type  1   force =    -0.62112564    0.96061147   -2.07108974
     atom   34 type  2   force =    -0.00985717    0.45976474  -38.36821021
     atom   35 type  2   force =     0.01226582   -0.10269391   37.57475788
     atom   36 type  3   force =    -0.00632189   -0.47262796  -48.01576653
     The core correction contribution to forces
     atom    1 type  1   force =     0.00000000    0.00000000    0.00000000
     atom    2 type  2   force =    -0.00005003    0.00051690    0.02117729
     atom    3 type  2   force =     0.00006916    0.00030716   -0.02090532
     atom    4 type  1   force =     0.00000000    0.00000000    0.00000000
     atom    5 type  2   force =    -0.00038088    0.00077343    0.02077442
     atom    6 type  2   force =     0.00018211   -0.00038113   -0.02076767
     atom    7 type  1   force =     0.00000000    0.00000000    0.00000000
     atom    8 type  2   force =    -0.00030294    0.00019712    0.02119952
     atom    9 type  2   force =     0.00062966    0.00083238   -0.02094083
     atom   10 type  1   force =     0.00000000    0.00000000    0.00000000
     atom   11 type  2   force =    -0.00019638   -0.00019530    0.02078392
     atom   12 type  2   force =     0.00073357    0.00101918   -0.02088360
     atom   13 type  1   force =     0.00000000    0.00000000    0.00000000
     atom   14 type  2   force =    -0.00003283    0.00014172    0.02098111
     atom   15 type  2   force =     0.00001005    0.00034682   -0.02072179
     atom   16 type  1   force =     0.00000000    0.00000000    0.00000000
     atom   17 type  2   force =     0.00030307    0.00075481    0.02078661
     atom   18 type  2   force =    -0.00019797   -0.00034930   -0.02075840
     atom   19 type  1   force =     0.00000000    0.00000000    0.00000000
     atom   20 type  2   force =     0.00000826    0.00075945   -0.02128445
     atom   21 type  1   force =     0.00000000    0.00000000    0.00000000
     atom   22 type  2   force =     0.00015375   -0.00015020    0.02077065
     atom   23 type  2   force =    -0.00070417    0.00100582   -0.02089116
     atom   24 type  1   force =     0.00000000    0.00000000    0.00000000
     atom   25 type  2   force =     0.00006565    0.00048405    0.02118850
     atom   26 type  2   force =    -0.00004747    0.00038502   -0.02092061
     atom   27 type  1   force =     0.00000000    0.00000000    0.00000000
     atom   28 type  2   force =    -0.00004299   -0.00032361   -0.00979120
     atom   29 type  2   force =    -0.00000604    0.00024056   -0.02117132
     atom   30 type  1   force =     0.00000000    0.00000000    0.00000000
     atom   31 type  2   force =     0.00031822    0.00014235    0.02120199
     atom   32 type  2   force =    -0.00062566    0.00077658   -0.02091963
     atom   33 type  1   force =     0.00000000    0.00000000    0.00000000
     atom   34 type  2   force =     0.00005628    0.00034589    0.02130067
     atom   35 type  2   force =    -0.00003457    0.00085289   -0.02092390
     atom   36 type  3   force =     0.00011649    0.00055523    0.02464208
     The Hubbard contrib.    to forces
     atom    1 type  1   force =     0.00000000    0.00000000    0.00000000
     atom    2 type  2   force =     0.00000000    0.00000000    0.00000000
     atom    3 type  2   force =     0.00000000    0.00000000    0.00000000
     atom    4 type  1   force =     0.00000000    0.00000000    0.00000000
     atom    5 type  2   force =     0.00000000    0.00000000    0.00000000
     atom    6 type  2   force =     0.00000000    0.00000000    0.00000000
     atom    7 type  1   force =     0.00000000    0.00000000    0.00000000
     atom    8 type  2   force =     0.00000000    0.00000000    0.00000000
     atom    9 type  2   force =     0.00000000    0.00000000    0.00000000
     atom   10 type  1   force =     0.00000000    0.00000000    0.00000000
     atom   11 type  2   force =     0.00000000    0.00000000    0.00000000
     atom   12 type  2   force =     0.00000000    0.00000000    0.00000000
     atom   13 type  1   force =     0.00000000    0.00000000    0.00000000
     atom   14 type  2   force =     0.00000000    0.00000000    0.00000000
     atom   15 type  2   force =     0.00000000    0.00000000    0.00000000
     atom   16 type  1   force =     0.00000000    0.00000000    0.00000000
     atom   17 type  2   force =     0.00000000    0.00000000    0.00000000
     atom   18 type  2   force =     0.00000000    0.00000000    0.00000000
     atom   19 type  1   force =     0.00000000    0.00000000    0.00000000
     atom   20 type  2   force =     0.00000000    0.00000000    0.00000000
     atom   21 type  1   force =     0.00000000    0.00000000    0.00000000
     atom   22 type  2   force =     0.00000000    0.00000000    0.00000000
     atom   23 type  2   force =     0.00000000    0.00000000    0.00000000
     atom   24 type  1   force =     0.00000000    0.00000000    0.00000000
     atom   25 type  2   force =     0.00000000    0.00000000    0.00000000
     atom   26 type  2   force =     0.00000000    0.00000000    0.00000000
     atom   27 type  1   force =     0.00000000    0.00000000    0.00000000
     atom   28 type  2   force =     0.00000000    0.00000000    0.00000000
     atom   29 type  2   force =     0.00000000    0.00000000    0.00000000
     atom   30 type  1   force =     0.00000000    0.00000000    0.00000000
     atom   31 type  2   force =     0.00000000    0.00000000    0.00000000
     atom   32 type  2   force =     0.00000000    0.00000000    0.00000000
     atom   33 type  1   force =     0.00000000    0.00000000    0.00000000
     atom   34 type  2   force =     0.00000000    0.00000000    0.00000000
     atom   35 type  2   force =     0.00000000    0.00000000    0.00000000
     atom   36 type  3   force =     0.00000000    0.00000000    0.00000000
     The SCF correction term to forces
     atom    1 type  1   force =    -0.00001004   -0.00003668   -0.00002686
     atom    2 type  2   force =     0.00000956   -0.00001231   -0.00000964
     atom    3 type  2   force =     0.00000122   -0.00001743   -0.00000070
     atom    4 type  1   force =    -0.00001483    0.00000314   -0.00002764
     atom    5 type  2   force =    -0.00002021   -0.00000396   -0.00000278
     atom    6 type  2   force =    -0.00001092   -0.00001000   -0.00000496
     atom    7 type  1   force =    -0.00002543    0.00003440   -0.00001794
     atom    8 type  2   force =    -0.00000578    0.00001681   -0.00000271
     atom    9 type  2   force =    -0.00000620    0.00001748   -0.00000663
     atom   10 type  1   force =     0.00000409    0.00000301   -0.00003331
     atom   11 type  2   force =    -0.00000045    0.00000052   -0.00001244
     atom   12 type  2   force =    -0.00000235    0.00001017   -0.00000553
     atom   13 type  1   force =    -0.00001529   -0.00000983   -0.00000733
     atom   14 type  2   force =    -0.00000428   -0.00000336   -0.00000506
     atom   15 type  2   force =    -0.00000030   -0.00001671   -0.00001239
     atom   16 type  1   force =    -0.00004278    0.00001778   -0.00000110
     atom   17 type  2   force =    -0.00001277    0.00000576    0.00000729
     atom   18 type  2   force =    -0.00000550    0.00000074    0.00000394
     atom   19 type  1   force =    -0.00000138    0.00001015   -0.00001133
     atom   20 type  2   force =    -0.00001063    0.00001437    0.00000533
     atom   21 type  1   force =     0.00000361   -0.00000584   -0.00004032
     atom   22 type  2   force =    -0.00000557   -0.00000405   -0.00001153
     atom   23 type  2   force =    -0.00000388    0.00000676   -0.00000808
     atom   24 type  1   force =     0.00003561   -0.00005973   -0.00001938
     atom   25 type  2   force =    -0.00000712    0.00000433    0.00000722
     atom   26 type  2   force =    -0.00000560   -0.00001001   -0.00000861
     atom   27 type  1   force =     0.00004802    0.00000771    0.00000467
     atom   28 type  2   force =     0.00004512   -0.00001732    0.00000555
     atom   29 type  2   force =     0.00001505   -0.00000514   -0.00000841
     atom   30 type  1   force =     0.00002425    0.00003569   -0.00001750
     atom   31 type  2   force =     0.00002070   -0.00000708   -0.00000130
     atom   32 type  2   force =     0.00001647    0.00000758    0.00000099
     atom   33 type  1   force =     0.00001660    0.00000458   -0.00002962
     atom   34 type  2   force =     0.00000072    0.00001125   -0.00000712
     atom   35 type  2   force =     0.00000065    0.00001383   -0.00001061
     atom   36 type  3   force =     0.00010710   -0.00005291    0.00005616

     Total force =     0.005741     Total SCF correction =     0.000218
     Energy error            =      8.0E-05 Ry
     Gradient error          =      2.5E-03 Ry/Bohr

     bfgs converged in  25 scf cycles and  24 bfgs steps
     (criteria: energy <  1.0E-04 Ry, force <  1.0E-02 Ry/Bohr)

     End of BFGS Geometry Optimization

     Final energy             =   -2246.4528302371 Ry

     File ./MoS2-V-O.bfgs deleted, as requested
Begin final coordinates

ATOMIC_POSITIONS (angstrom)
Mo            6.5870484719        1.7210825038        2.7544158041
S             8.1599743234        0.8216078437        4.3712898192
S             8.1518199292        0.7920592534        1.1634842093
Mo            8.1179910551        4.4850279917        2.6982841449
S             6.5453432717        3.6301974358        4.3030734723
S             6.5692030797        3.5173169162        1.0983405593
Mo            6.5414459943        7.1566559725        2.6748495727
S             8.1048656890        6.2761433720        4.3097256939
S             8.1577986324        6.3142986856        1.1043186886
Mo            8.1561213059        9.9057126727        2.7784213970
S             6.5426873856        8.9174111755        4.3364646831
S             6.6141931743        9.0007119383        1.1367897495
Mo            3.4464306968        1.7217798240        2.7526723214
S             5.0152458137        0.7847066330        4.3418189044
S             5.0175922690        0.8015900119        1.1658531990
Mo            5.0157677989        4.4867196379        2.6518311074
S             3.4835238781        3.6281591368        4.3022788191
S             3.4628160594        3.5195750556        1.0972434862
Mo            3.4925065863        7.1573278418        2.6732385065
S             5.0173197339        6.2819076319        1.0531975240
Mo            5.0173312709        9.8722581592        2.7355602825
S             3.4885528374        8.9209951899        4.3314390951
S             3.4217403057        9.0021271242        1.1329738623
Mo            0.2894909927        1.6770580546        2.7506212887
S             1.8753478413        0.8209714330        4.3695591692
S             1.8842039358        0.7977445228        1.1587726245
Mo            1.9155406965        4.4841319731        2.6968407210
S             0.2904669723        3.5785078420        4.2205332987
S             0.2878323896        3.5317762116        1.1601392717
Mo            0.2895231135        7.1801642301        2.7418741832
S             1.9312356770        6.2731726379        4.3091229814
S             1.8765254342        6.3116688634        1.1050928328
Mo            1.8787516204        9.9083465190        2.7723929484
S             0.2922978061        8.9912605800        4.3677985173
S             0.2876505501        9.0225273328        1.1824929279
O             0.2969115313        3.6168886473        5.7175342051
End final coordinates



     Writing all to output data dir ./MoS2-V-O.save/
 
     init_run     :      6.97s CPU      7.80s WALL (       1 calls)
     electrons    :   3311.10s CPU   3684.95s WALL (      25 calls)
     update_pot   :     84.81s CPU     91.40s WALL (      24 calls)
     forces       :     85.68s CPU    100.14s WALL (      25 calls)

     Called by init_run:
     wfcinit      :      1.14s CPU      1.23s WALL (       1 calls)
     potinit      :      2.89s CPU      3.26s WALL (       1 calls)
     hinit0       :      0.49s CPU      0.56s WALL (       1 calls)

     Called by electrons:
     c_bands      :    536.79s CPU    551.04s WALL (     236 calls)
     sum_band     :    247.63s CPU    304.17s WALL (     236 calls)
     v_of_rho     :    338.13s CPU    405.11s WALL (     253 calls)
     newd         :    104.62s CPU    163.58s WALL (     253 calls)
     PAW_pot      :     10.78s CPU     10.83s WALL (     277 calls)
     mix_rho      :   2111.03s CPU   2294.32s WALL (     236 calls)

     Called by c_bands:
     init_us_2    :      5.11s CPU      5.69s WALL (     497 calls)
     init_us_2:cp :      5.10s CPU      5.68s WALL (     497 calls)
     regterg      :    518.23s CPU    531.88s WALL (     236 calls)

     Called by *egterg:
     rdiaghg      :     22.20s CPU     22.47s WALL (    1248 calls)
     h_psi        :    347.48s CPU    350.21s WALL (    1281 calls)
     s_psi        :     21.92s CPU     22.04s WALL (    1281 calls)
     g_psi        :      2.21s CPU      2.23s WALL (    1044 calls)

     Called by h_psi:
     h_psi:calbec :     28.64s CPU     28.86s WALL (    1281 calls)
     vloc_psi     :    293.33s CPU    295.64s WALL (    1281 calls)
     add_vuspsi   :     20.82s CPU     20.96s WALL (    1281 calls)

     General routines
     calbec       :     40.57s CPU     40.90s WALL (    1641 calls)
     fft          :    275.71s CPU    303.49s WALL (   16890 calls)
     ffts         :    986.53s CPU   1162.13s WALL (  397006 calls)
     fftw         :    277.58s CPU    279.31s WALL (  145266 calls)
     interpolate  :      4.07s CPU      4.50s WALL (     253 calls)
 
     Parallel routines
 
     PWSCF        :  58m22.33s CPU      1h 5m WALL

 
   This run was terminated on:  14:32:32   1Nov2023            

=------------------------------------------------------------------------------=
   JOB DONE.
=------------------------------------------------------------------------------=
