
     Program PWSCF v.7.2 starts on  1Nov2023 at 21:26:20 

     This program is part of the open-source Quantum ESPRESSO suite
     for quantum simulation of materials; please cite
         "P. Giannozzi et al., J. Phys.:Condens. Matter 21 395502 (2009);
         "P. Giannozzi et al., J. Phys.:Condens. Matter 29 465901 (2017);
         "P. Giannozzi et al., J. Chem. Phys. 152 154105 (2020);
          URL http://www.quantum-espresso.org", 
     in publications or presentations arising from this work. More details at
     http://www.quantum-espresso.org/quote

     Parallel version (MPI & OpenMP), running on      48 processor cores
     Number of MPI processes:                48
     Threads/MPI process:                     1

     MPI processes distributed on     1 nodes
     57183 MiB available memory on the printing compute node when the environment starts
 
     Waiting for input...
     Reading input from standard input
Warning: card &CELL ignored
Warning: card CELL_DYNAMICS = 'BFGS', ignored
Warning: card CELL_DOFREE = '2DXY' ignored
Warning: card / ignored

     Current dimensions of program PWSCF are:
     Max number of different atomic species (ntypx) = 10
     Max number of k-points (npk) =  40000
     Max angular momentum in pseudopotentials (lmaxx) =  4
     file O.pbe-n-kjpaw_psl.0.1.UPF: wavefunction(s)  2P renormalized

     IMPORTANT: XC functional enforced from input :
     Exchange-correlation= RVV10
                           (   1   4  13   4  26   0   0)
     Any further DFT definition will be discarded
     Please, verify this is what you really want


     gamma-point specific algorithms are used
     signal trapping enabled: kill the code with -SIGUSR1 to stop cleanly the simulation 
 
     R & G space division:  proc/nbgrp/npool/nimage =      48
     Subspace diagonalization in iterative solution of the eigenvalue problem:
     one sub-group per band group will be used
     scalapack distributed-memory algorithm (size of sub-group:  2*  2 procs)

 
     Parallelization info
     --------------------
     sticks:   dense  smooth     PW     G-vecs:    dense   smooth      PW
     Min         396     194     47               101632    35090    4376
     Max         398     196     50               101674    35128    4410
     Sum       19091    9389   2349              4879585  1685513  210763
 
     Using Slab Decomposition
 


     bravais-lattice index     =            0
     lattice parameter (alat)  =      17.8707  a.u.
     unit-cell volume          =   17436.2743 (a.u.)^3
     number of atoms/cell      =           36
     number of atomic types    =            3
     number of electrons       =       312.00
     number of Kohn-Sham states=          187
     kinetic-energy cutoff     =      80.0000  Ry
     charge density cutoff     =     650.0000  Ry
     scf convergence threshold =      1.0E-06
     mixing beta               =       0.7000
     number of iterations used =            8  local-TF  mixing
     energy convergence thresh.=      1.0E-04
     force convergence thresh. =      1.0E-02
     Exchange-correlation= RVV10
                           (   1   4  13   4  26   0   0)
     nstep                     =          200


     celldm(1)=  17.870686  celldm(2)=   0.000000  celldm(3)=   0.000000
     celldm(4)=   0.000000  celldm(5)=   0.000000  celldm(6)=   0.000000

     crystal axes: (cart. coord. in units of alat)
               a(1) = (   1.000000   0.000000   0.000000 )  
               a(2) = (   0.000000   1.155671   0.000000 )  
               a(3) = (   0.000000   0.000000   2.643601 )  

     reciprocal axes: (cart. coord. in units 2 pi/alat)
               b(1) = (  1.000000  0.000000  0.000000 )  
               b(2) = (  0.000000  0.865298  0.000000 )  
               b(3) = (  0.000000  0.000000  0.378272 )  


     PseudoPot. # 1 for Mo read from file:
     ../pseudo/Mo_ONCV_PBE-1.0.oncvpsp.upf
     MD5 check sum: 1b5d28e075c9ccadda658a603575cd1f
     Pseudo is Norm-conserving, Zval = 14.0
     Generated using ONCVPSP code by D. R. Hamann
     Using radial grid of 1526 points,  6 beta functions with: 
                l(1) =   0
                l(2) =   0
                l(3) =   1
                l(4) =   1
                l(5) =   2
                l(6) =   2

     PseudoPot. # 2 for S  read from file:
     ../pseudo/s_pbe_v1.4.uspp.F.UPF
     MD5 check sum: 88d86576ff6df21479756cfb9bdac1df
     Pseudo is Ultrasoft + core correction, Zval =  6.0
     Generated by new atomic code, or converted to UPF format
     Using radial grid of  907 points,  6 beta functions with: 
                l(1) =   0
                l(2) =   0
                l(3) =   1
                l(4) =   1
                l(5) =   2
                l(6) =   2
     Q(r) pseudized with  8 coefficients,  rinner =    1.300   1.300   1.300
                                                       1.300   1.300

     PseudoPot. # 3 for O  read from file:
     ../pseudo/O.pbe-n-kjpaw_psl.0.1.UPF
     MD5 check sum: 0234752ac141de4415c5fc33072bef88
     Pseudo is Projector augmented-wave + core cor, Zval =  6.0
     Generated using "atomic" code by A. Dal Corso  v.5.0.99 svn rev. 10869
     Shape of augmentation charge: BESSEL
     Using radial grid of 1095 points,  4 beta functions with: 
                l(1) =   0
                l(2) =   0
                l(3) =   1
                l(4) =   1
     Q(r) pseudized with 0 coefficients 


     atomic species   valence    mass     pseudopotential
        Mo            14.00    95.94000     Mo( 1.00)
        S              6.00    32.06500     S ( 1.00)
        O              6.00    15.99940     O ( 1.00)

     No symmetry found



   Cartesian axes

     site n.     atom                  positions (alat units)
         1           Mo  tau(   1) = (   0.6952221   0.1890506   0.2985846  )
         2           S   tau(   2) = (   0.8646417   0.0856217   0.4689279  )
         3           S   tau(   3) = (   0.8663890   0.0857843   0.1351291  )
         4           Mo  tau(   4) = (   0.8560186   0.4753274   0.2873942  )
         5           S   tau(   5) = (   0.6873294   0.3936244   0.4596353  )
         6           S   tau(   6) = (   0.6929804   0.3713468   0.1185692  )
         7           Mo  tau(   7) = (   0.6862796   0.7633098   0.2825370  )
         8           S   tau(   8) = (   0.8545980   0.6708292   0.4486168  )
         9           S   tau(   9) = (   0.8545123   0.6666874   0.1146125  )
        10           Mo  tau(  10) = (   0.8629403   1.0471007   0.3006803  )
        11           S   tau(  11) = (   0.6868280   0.9456650   0.4634891  )
        12           S   tau(  12) = (   0.6998113   0.9568511   0.1205389  )
        13           Mo  tau(  13) = (   0.3618216   0.1847309   0.2935964  )
        14           S   tau(  14) = (   0.5260962   0.0863870   0.4600448  )
        15           S   tau(  15) = (   0.5348379   0.0894875   0.1297123  )
        16           Mo  tau(  16) = (   0.5265817   0.4772436   0.2784130  )
        17           S   tau(  17) = (   0.3624753   0.3882513   0.4525556  )
        18           S   tau(  18) = (   0.3635411   0.3752055   0.1119148  )
        19           Mo  tau(  19) = (   0.3652268   0.7630864   0.2781795  )
        20           S   tau(  20) = (   0.5269494   0.6690381   0.1096838  )
        21           Mo  tau(  21) = (   0.5300192   1.0470394   0.2900995  )
        22           S   tau(  22) = (   0.3670346   0.9457522   0.4574073  )
        23           S   tau(  23) = (   0.3604225   0.9585725   0.1159032  )
        24           Mo  tau(  24) = (   0.0313099   0.1847895   0.3013130  )
        25           S   tau(  25) = (   0.1956761   0.0838230   0.4650863  )
        26           S   tau(  26) = (   0.1967693   0.0903508   0.1278874  )
        27           Mo  tau(  27) = (   0.1967578   0.4753919   0.2813011  )
        28           S   tau(  28) = (   0.0287851   0.3864324   0.4586755  )
        29           S   tau(  29) = (   0.0244514   0.3729871   0.1239344  )
        30           Mo  tau(  30) = (   0.0286728   0.7631204   0.2856894  )
        31           S   tau(  31) = (   0.2011512   0.6675435   0.4465001  )
        32           S   tau(  32) = (   0.1969214   0.6672839   0.1104564  )
        33           Mo  tau(  33) = (   0.1950294   1.0511147   0.2932237  )
        34           S   tau(  34) = (   0.0312912   0.9612169   0.4667423  )
        35           S   tau(  35) = (   0.0292670   0.9563028   0.1216485  )
        36           O   tau(  36) = (   0.7777778   0.0000000   0.5407634  )

     number of k points=     1  Gaussian smearing, width (Ry)=  0.0100
                       cart. coord. in units 2pi/alat
        k(    1) = (   0.0000000   0.0000000   0.0000000), wk =   2.0000000

     Dense  grid:  2439793 G-vectors     FFT dimensions: ( 150, 180, 384)

     Smooth grid:   842757 G-vectors     FFT dimensions: ( 108, 120, 270)

     Estimated max dynamical RAM per process >     269.22 MB

     Estimated total dynamical RAM >      12.62 GB

     Initial potential from superposition of free atoms

     starting charge     311.9873, renormalised to     312.0000

     negative rho (up, down):  2.744E-04 0.000E+00


---------------------------------------------------------------------------------
Carrying out rVV10 run using the following parameters:
Nqs =      20    Nr_points =    1024   r_max =   100.000
b_value =  6.30000    beta =  0.00901
     q_mesh =  0.00010000  0.00030000  0.00058939  0.00100810
               0.00161396  0.00249058  0.00375900  0.00559430
               0.00824984  0.01209221  0.01765183  0.02569619
               0.03733578  0.05417739  0.07854596  0.11380545
               0.16482331  0.23864234  0.34545298  0.50000000

Gradients computed in Reciprocal space

---------------------------------------------------------------------------------


     Starting wfcs are  216 randomized atomic wfcs
     Checking if some PAW data can be deallocated... 

     total cpu time spent up to now is        5.2 secs

     Self-consistent Calculation

     iteration #  1     ecut=    80.00 Ry     beta= 0.70
     Davidson diagonalization with overlap
     ethr =  1.00E-02,  avg # of iterations =  2.0

     Threshold (ethr) on eigenvalues was too large:
     Diagonalizing with lowered threshold

     Davidson diagonalization with overlap
     ethr =  4.86E-04,  avg # of iterations =  3.0

     negative rho (up, down):  3.478E-08 0.000E+00

     total cpu time spent up to now is       19.7 secs

     total energy              =   -2246.08265933 Ry
     estimated scf accuracy    <       1.76297347 Ry

     iteration #  2     ecut=    80.00 Ry     beta= 0.70
     Davidson diagonalization with overlap
     ethr =  5.65E-04,  avg # of iterations =  3.0

     total cpu time spent up to now is       24.3 secs

     total energy              =   -2246.08407433 Ry
     estimated scf accuracy    <       0.60207636 Ry

     iteration #  3     ecut=    80.00 Ry     beta= 0.70
     Davidson diagonalization with overlap
     ethr =  1.93E-04,  avg # of iterations =  5.0

     total cpu time spent up to now is       28.3 secs

     total energy              =   -2246.08920692 Ry
     estimated scf accuracy    <       0.14474582 Ry

     iteration #  4     ecut=    80.00 Ry     beta= 0.70
     Davidson diagonalization with overlap
     ethr =  4.64E-05,  avg # of iterations = 20.0

     total cpu time spent up to now is       33.3 secs

     total energy              =   -2246.11332976 Ry
     estimated scf accuracy    <       0.02926139 Ry

     iteration #  5     ecut=    80.00 Ry     beta= 0.70
     Davidson diagonalization with overlap
     ethr =  9.38E-06,  avg # of iterations =  2.0

     total cpu time spent up to now is       37.1 secs

     total energy              =   -2246.11328588 Ry
     estimated scf accuracy    <       0.01744392 Ry

     iteration #  6     ecut=    80.00 Ry     beta= 0.70
     Davidson diagonalization with overlap
     ethr =  5.59E-06,  avg # of iterations =  2.0

     total cpu time spent up to now is       40.7 secs

     total energy              =   -2246.11182186 Ry
     estimated scf accuracy    <       0.01085611 Ry

     iteration #  7     ecut=    80.00 Ry     beta= 0.70
     Davidson diagonalization with overlap
     ethr =  3.48E-06,  avg # of iterations =  2.0

     negative rho (up, down):  3.135E-07 0.000E+00

     total cpu time spent up to now is       46.0 secs

     total energy              =   -2246.11070360 Ry
     estimated scf accuracy    <       0.00642575 Ry

     iteration #  8     ecut=    80.00 Ry     beta= 0.70
     Davidson diagonalization with overlap
     ethr =  2.06E-06,  avg # of iterations =  8.0

     negative rho (up, down):  1.286E-02 0.000E+00

     total cpu time spent up to now is       52.3 secs

     total energy              =   -2246.11008434 Ry
     estimated scf accuracy    <       0.00374071 Ry

     iteration #  9     ecut=    80.00 Ry     beta= 0.70
     Davidson diagonalization with overlap
     ethr =  1.20E-06,  avg # of iterations =  2.0

     negative rho (up, down):  2.955E-02 0.000E+00

     total cpu time spent up to now is       58.1 secs

     total energy              =   -2246.10985042 Ry
     estimated scf accuracy    <       0.00205547 Ry

     iteration # 10     ecut=    80.00 Ry     beta= 0.70
     Davidson diagonalization with overlap
     ethr =  6.59E-07,  avg # of iterations =  2.0

     negative rho (up, down):  2.650E-02 0.000E+00

     total cpu time spent up to now is       64.2 secs

     total energy              =   -2246.10979170 Ry
     estimated scf accuracy    <       0.00096937 Ry

     iteration # 11     ecut=    80.00 Ry     beta= 0.70
     Davidson diagonalization with overlap
     ethr =  3.11E-07,  avg # of iterations =  2.0

     negative rho (up, down):  1.525E-02 0.000E+00

     total cpu time spent up to now is       71.3 secs

     total energy              =   -2246.10978462 Ry
     estimated scf accuracy    <       0.00015367 Ry

     iteration # 12     ecut=    80.00 Ry     beta= 0.70
     Davidson diagonalization with overlap
     ethr =  4.93E-08,  avg # of iterations =  6.0

     negative rho (up, down):  4.371E-03 0.000E+00

     total cpu time spent up to now is       79.4 secs

     total energy              =   -2246.10981686 Ry
     estimated scf accuracy    <       0.00002825 Ry

     iteration # 13     ecut=    80.00 Ry     beta= 0.70
     Davidson diagonalization with overlap
     ethr =  9.06E-09,  avg # of iterations =  5.0

     negative rho (up, down):  7.813E-04 0.000E+00

     total cpu time spent up to now is       87.7 secs

     total energy              =   -2246.10982575 Ry
     estimated scf accuracy    <       0.00000837 Ry

     iteration # 14     ecut=    80.00 Ry     beta= 0.70
     Davidson diagonalization with overlap
     ethr =  2.68E-09,  avg # of iterations =  2.0

     negative rho (up, down):  2.191E-04 0.000E+00

     total cpu time spent up to now is       91.2 secs

     End of self-consistent calculation

          k = 0.0000 0.0000 0.0000 (105382 PWs)   bands (ev):

   -63.0874 -62.8899 -62.8767 -62.8429 -62.8252 -62.7948 -62.7845 -62.7722
   -62.7458 -62.7310 -62.7075 -62.6652 -37.3772 -37.2991 -37.2162 -37.1770
   -37.1516 -37.1281 -37.1229 -37.0696 -37.0671 -37.0590 -37.0497 -37.0381
   -37.0352 -37.0182 -37.0106 -36.9951 -36.9835 -36.9664 -36.9570 -36.9497
   -36.9318 -36.9299 -36.9225 -36.9055 -36.8974 -36.8947 -36.8869 -36.8739
   -36.8616 -36.8522 -36.8326 -36.8150 -36.7768 -36.7549 -36.7201 -36.6864
   -25.3901 -15.9208 -15.1980 -15.0948 -14.9690 -14.8918 -14.7620 -14.5369
   -14.4843 -14.4580 -14.4054 -14.3893 -14.3370 -14.2716 -14.2131 -14.1687
   -14.1311 -14.0931 -13.9952 -13.9510 -13.8516 -13.8391 -13.8015 -13.2868
    -9.2443  -8.9312  -8.3676  -7.5789  -7.4179  -7.2730  -7.2585  -7.1810
    -7.1705  -7.0264  -6.9758  -6.8028  -6.7840  -6.7063  -6.6657  -6.6063
    -6.4453  -6.4394  -6.3787  -6.3098  -6.0756  -6.0379  -5.9052  -5.8886
    -5.8196  -5.7781  -5.7399  -5.6880  -5.6375  -5.6080  -5.5863  -5.5484
    -5.5044  -5.4510  -5.4038  -5.3504  -5.2294  -5.1691  -5.0996  -5.0409
    -4.9426  -4.9047  -4.8137  -4.7905  -4.6800  -4.5589  -4.4732  -4.3224
    -4.2612  -4.2318  -4.1863  -4.0980  -3.9998  -3.9562  -3.8572  -3.7779
    -3.7215  -3.6917  -3.6514  -3.5973  -3.5392  -3.5076  -3.4931  -3.4351
    -3.4002  -3.3732  -3.2874  -3.1612  -3.0516  -2.9754  -2.9520  -2.7788
    -2.7694  -2.7267  -2.7116  -2.6812  -2.6101  -2.5627  -2.3684  -2.2641
    -2.1042  -1.9786  -1.9129  -1.4567  -1.0949  -0.8029  -0.6739  -0.1633
    -0.1123  -0.0656  -0.0091   0.0214   0.1282   0.1798   0.2686   0.3102
     0.3273   0.3760   0.4452   0.4993   0.5337   0.5740   0.6031   0.6403
     0.7037   0.7345   0.7646   0.8080   0.8117   0.8476   0.9520   0.9886
     1.0111   1.1011   1.2762

     the Fermi energy is    -1.2758 ev

!    total energy              =   -2246.10982840 Ry
     estimated scf accuracy    <       0.00000080 Ry
     smearing contrib. (-TS)   =      -0.00192540 Ry
     internal energy E=F+TS    =   -2246.10790299 Ry

     The total energy is F=E-TS. E is the sum of the following terms:
     one-electron contribution =  -18508.32988417 Ry
     hartree contribution      =    9242.88610244 Ry
     xc contribution           =    -392.44713794 Ry
     ewald contribution        =    7421.62857735 Ry
     one-center paw contrib.   =      -9.84556067 Ry

     convergence has been achieved in  14 iterations

     negative rho (up, down):  2.191E-04 0.000E+00

     Forces acting on atoms (cartesian axes, Ry/au):

     atom    1 type  1   force =     0.02068478   -0.00033478   -0.02425048
     atom    2 type  2   force =     0.23364383    0.32497091   -0.32878935
     atom    3 type  2   force =    -0.01066313    0.00952403   -0.00425071
     atom    4 type  1   force =    -0.00067200    0.00319095   -0.00004256
     atom    5 type  2   force =    -0.00068303   -0.00446530   -0.00434215
     atom    6 type  2   force =     0.00157972    0.01443160   -0.00139624
     atom    7 type  1   force =    -0.00083717   -0.02023003   -0.01101602
     atom    8 type  2   force =     0.00208929   -0.00345195    0.01796769
     atom    9 type  2   force =     0.01278095    0.00424791    0.01064290
     atom   10 type  1   force =     0.04116502   -0.00687794   -0.11017700
     atom   11 type  2   force =    -0.02043130   -0.05884448   -0.03458115
     atom   12 type  2   force =    -0.00403034   -0.00050846    0.00808227
     atom   13 type  1   force =     0.00745113    0.00541671   -0.00122580
     atom   14 type  2   force =    -0.00830567    0.00478671    0.00461508
     atom   15 type  2   force =    -0.01340212    0.00204065   -0.00809228
     atom   16 type  1   force =    -0.00183747    0.01177855    0.00405306
     atom   17 type  2   force =     0.00540886    0.00056185    0.00253504
     atom   18 type  2   force =    -0.00337221   -0.00598910    0.01241757
     atom   19 type  1   force =     0.00163292   -0.01095095   -0.00593703
     atom   20 type  2   force =     0.00238656   -0.00315432    0.00069751
     atom   21 type  1   force =    -0.00205125    0.00595028    0.00718195
     atom   22 type  2   force =    -0.00317721   -0.00153034   -0.00281860
     atom   23 type  2   force =    -0.00235426    0.00054584    0.00802060
     atom   24 type  1   force =     0.02279458   -0.00425277   -0.00790043
     atom   25 type  2   force =     0.02322031    0.02061583    0.00299397
     atom   26 type  2   force =    -0.01633306   -0.00055703   -0.00829015
     atom   27 type  1   force =     0.00034207    0.00304118    0.00785149
     atom   28 type  2   force =     0.00449882    0.00574744   -0.00875012
     atom   29 type  2   force =     0.00388684   -0.00468075   -0.00499838
     atom   30 type  1   force =    -0.00076715    0.00859720   -0.00323371
     atom   31 type  2   force =     0.00132803    0.00089286    0.01758346
     atom   32 type  2   force =    -0.00970971    0.00667636    0.00741669
     atom   33 type  1   force =     0.00475372   -0.00576166   -0.01410862
     atom   34 type  2   force =     0.00221482   -0.03829117   -0.00230400
     atom   35 type  2   force =    -0.01510132    0.00800341    0.01750855
     atom   36 type  3   force =    -0.27813383   -0.27113926    0.45693699
     The non-local contrib.  to forces
     atom    1 type  1   force =     0.03532800    0.01867555    0.01282904
     atom    2 type  2   force =    -0.01286479   -0.02870896   -0.09738852
     atom    3 type  2   force =    -0.01768204    0.00154537    0.26808851
     atom    4 type  1   force =    -0.00045254    0.01080821    0.00439876
     atom    5 type  2   force =     0.00793252   -0.04208198   -0.25202573
     atom    6 type  2   force =     0.00219116    0.01460262    0.26028650
     atom    7 type  1   force =    -0.01951015    0.01604180   -0.01800115
     atom    8 type  2   force =     0.00428510   -0.00586329   -0.25145988
     atom    9 type  2   force =     0.00889248   -0.01023028    0.27838103
     atom   10 type  1   force =     0.00211538    0.03281149    0.01356114
     atom   11 type  2   force =    -0.02918710   -0.03553538   -0.25686619
     atom   12 type  2   force =    -0.01964055   -0.01629153    0.25730392
     atom   13 type  1   force =     0.00511966    0.02189950   -0.01014961
     atom   14 type  2   force =    -0.02676124    0.00440306   -0.25901553
     atom   15 type  2   force =    -0.01724607   -0.00604979    0.25268348
     atom   16 type  1   force =    -0.00153664    0.02538276   -0.02746926
     atom   17 type  2   force =     0.00481750   -0.02986134   -0.25144592
     atom   18 type  2   force =    -0.00468198   -0.00378699    0.27378434
     atom   19 type  1   force =     0.01640882    0.00380397   -0.01597037
     atom   20 type  2   force =     0.00100672   -0.02351736    0.26848075
     atom   21 type  1   force =     0.00069476    0.01748705    0.00571956
     atom   22 type  2   force =    -0.01233507    0.00313885   -0.25425688
     atom   23 type  2   force =     0.00548123   -0.01455867    0.26825187
     atom   24 type  1   force =     0.01253344    0.00862504   -0.01854446
     atom   25 type  2   force =     0.01159579    0.00808252   -0.26026682
     atom   26 type  2   force =    -0.00585073   -0.00618619    0.26463341
     atom   27 type  1   force =    -0.00085135    0.01297531    0.00938355
     atom   28 type  2   force =    -0.00233802   -0.01782032   -0.26747098
     atom   29 type  2   force =     0.00715876    0.00021196    0.26518838
     atom   30 type  1   force =    -0.00443424    0.02031742    0.01255727
     atom   31 type  2   force =    -0.00603052   -0.00044887   -0.25216854
     atom   32 type  2   force =    -0.00141434   -0.00795117    0.27399449
     atom   33 type  1   force =    -0.00700418    0.00611974    0.00367619
     atom   34 type  2   force =    -0.00649493   -0.03539008   -0.26842369
     atom   35 type  2   force =    -0.00681785   -0.00765831    0.27447172
     atom   36 type  3   force =     1.50459989    1.44910494   -0.89150775
     The ionic contribution  to forces
     atom    1 type  1   force =    -0.80115528    3.06727485    1.53775037
     atom    2 type  2   force =     6.15132304    7.16046159   33.55777333
     atom    3 type  2   force =     0.03566130    0.23091758  -37.40835084
     atom    4 type  1   force =     0.28248593    1.29063169   -0.54759446
     atom    5 type  2   force =    -1.20564911    2.45505384   38.45002864
     atom    6 type  2   force =     0.28140802   -0.23630582  -38.71703615
     atom    7 type  1   force =    -2.94087524   -4.04055468    1.01535534
     atom    8 type  2   force =    -0.87091716   -0.40125345   37.15981444
     atom    9 type  2   force =     0.38012582   -0.15584069  -38.57513107
     atom   10 type  1   force =     0.83257051   -2.86899230   -0.46835044
     atom   11 type  2   force =    -1.93403022   -4.83265524   37.88466952
     atom   12 type  2   force =     0.32403379    0.35711044  -38.89230692
     atom   13 type  1   force =    -0.10156050    1.66348075    1.44756168
     atom   14 type  2   force =    -2.29100097    0.86549482   37.64047699
     atom   15 type  2   force =    -0.14297847    0.08094900  -37.77223512
     atom   16 type  1   force =    -0.38322932    4.42386397   -0.57256772
     atom   17 type  2   force =     0.65312813    1.83742525   37.76281136
     atom   18 type  2   force =    -0.21510180   -0.50708635  -39.08912863
     atom   19 type  1   force =     2.47611344   -2.98524858   -0.36029870
     atom   20 type  2   force =     0.15075205   -0.28993398  -39.00006033
     atom   21 type  1   force =    -2.00685441   -0.99147284   -1.73404890
     atom   22 type  2   force =     0.05161851   -2.17161968   38.18175351
     atom   23 type  2   force =    -0.18007467    0.51553824  -38.92857186
     atom   24 type  1   force =     1.08278195    2.54349791    3.51958960
     atom   25 type  2   force =     1.22134032    0.52987831   38.99008954
     atom   26 type  2   force =    -0.16719776    0.15296445  -38.03340236
     atom   27 type  1   force =     0.19118155    0.73128202   -3.15319392
     atom   28 type  2   force =     0.43128384    1.61605274   37.98483294
     atom   29 type  2   force =    -0.14512224   -0.22272879  -37.87021022
     atom   30 type  1   force =     0.19287255   -1.76977524   -1.27345890
     atom   31 type  2   force =     1.31863610   -0.22030360   37.17450645
     atom   32 type  2   force =    -0.44402026   -0.07396005  -39.11014371
     atom   33 type  1   force =     1.49998289   -1.31140295    0.51025421
     atom   34 type  2   force =     1.59571049   -2.59916774   38.85333065
     atom   35 type  2   force =    -0.08101833    0.24494456  -38.62523596
     atom   36 type  3   force =    -5.24222448   -4.08852005   48.46072761
     The local contribution  to forces
     atom    1 type  1   force =     0.78621692   -3.08650848   -1.57463291
     atom    2 type  2   force =    -5.90328976   -6.80623710  -33.80301479
     atom    3 type  2   force =    -0.02947104   -0.22269117   37.15733024
     atom    4 type  1   force =    -0.28276688   -1.29813367    0.54316585
     atom    5 type  2   force =     1.19779366   -2.41989777  -38.22299884
     atom    6 type  2   force =    -0.28215318    0.23744776   38.47650764
     atom    7 type  1   force =     2.95969094    4.00469701   -1.00837030
     atom    8 type  2   force =     0.86886940    0.40319699  -36.91113759
     atom    9 type  2   force =    -0.37608568    0.16983577   38.32896592
     atom   10 type  1   force =    -0.79374084    2.82900492    0.34498508
     atom   11 type  2   force =     1.94104157    4.80722973  -37.68361856
     atom   12 type  2   force =    -0.31003672   -0.34284772   38.66426366
     atom   13 type  1   force =     0.10414312   -1.68017389   -1.43847453
     atom   14 type  2   force =     2.30815841   -0.86445187  -37.39784481
     atom   15 type  2   force =     0.14590965   -0.07325601   37.53226609
     atom   16 type  1   force =     0.38299287   -4.43763631    0.60406993
     atom   17 type  2   force =    -0.65240197   -1.80863524  -37.52953998
     atom   18 type  2   force =     0.21630995    0.50541387   38.84923767
     atom   19 type  1   force =    -2.49088481    2.97081900    0.37038107
     atom   20 type  2   force =    -0.14942256    0.30944592   38.75391555
     atom   21 type  1   force =     2.00431189    0.97986750    1.73597205
     atom   22 type  2   force =    -0.04281908    2.16747865  -37.95105139
     atom   23 type  2   force =     0.17272752   -0.50176426   38.68977839
     atom   24 type  1   force =    -1.07251140   -2.55645722   -3.50887360
     atom   25 type  2   force =    -1.20975082   -0.51680838  -38.74796715
     atom   26 type  2   force =     0.15665977   -0.14765356   37.78198571
     atom   27 type  1   force =    -0.19004235   -0.74107737    3.15166595
     atom   28 type  2   force =    -0.42472245   -1.59422552  -37.74719663
     atom   29 type  2   force =     0.14247664    0.21829682   37.62120835
     atom   30 type  1   force =    -0.18930128    1.75820215    1.25779587
     atom   31 type  2   force =    -1.31172141    0.22158310  -36.92567549
     atom   32 type  2   force =     0.43592971    0.08810584   38.86510214
     atom   33 type  1   force =    -1.48817814    1.29936506   -0.52775613
     atom   34 type  2   force =    -1.58780071    2.59545479  -38.60842898
     atom   35 type  2   force =     0.07261584   -0.23022987   38.39008540
     atom   36 type  3   force =     3.47312333    2.38152600  -47.11911661
     The core correction contribution to forces
     atom    1 type  1   force =     0.00000000    0.00000000    0.00000000
     atom    2 type  2   force =    -0.00167553   -0.00066103    0.01356302
     atom    3 type  2   force =     0.00074882   -0.00021059   -0.02078371
     atom    4 type  1   force =     0.00000000    0.00000000    0.00000000
     atom    5 type  2   force =    -0.00076240    0.00230885    0.02024259
     atom    6 type  2   force =     0.00008724   -0.00132684   -0.02071433
     atom    7 type  1   force =     0.00000000    0.00000000    0.00000000
     atom    8 type  2   force =    -0.00015505    0.00066566    0.02026243
     atom    9 type  2   force =    -0.00023262    0.00061103   -0.02106129
     atom   10 type  1   force =     0.00000000    0.00000000    0.00000000
     atom   11 type  2   force =     0.00170637    0.00218688    0.02083991
     atom   12 type  2   force =     0.00156419    0.00136375   -0.02056515
     atom   13 type  1   force =     0.00000000    0.00000000    0.00000000
     atom   14 type  2   force =     0.00143636   -0.00077057    0.02058505
     atom   15 type  2   force =     0.00096883    0.00039145   -0.02017835
     atom   16 type  1   force =     0.00000000    0.00000000    0.00000000
     atom   17 type  2   force =    -0.00011626    0.00156967    0.02030540
     atom   18 type  2   force =     0.00013682   -0.00047076   -0.02105088
     atom   19 type  1   force =     0.00000000    0.00000000    0.00000000
     atom   20 type  2   force =     0.00012510    0.00096122   -0.02129808
     atom   21 type  1   force =     0.00000000    0.00000000    0.00000000
     atom   22 type  2   force =     0.00045709   -0.00045208    0.02034454
     atom   23 type  2   force =    -0.00043557    0.00124396   -0.02089106
     atom   24 type  1   force =     0.00000000    0.00000000    0.00000000
     atom   25 type  2   force =     0.00004728   -0.00064507    0.02065982
     atom   26 type  2   force =     0.00006725    0.00031194   -0.02090766
     atom   27 type  1   force =     0.00000000    0.00000000    0.00000000
     atom   28 type  2   force =     0.00025418    0.00169415    0.02060484
     atom   29 type  2   force =    -0.00060903   -0.00043481   -0.02067424
     atom   30 type  1   force =     0.00000000    0.00000000    0.00000000
     atom   31 type  2   force =     0.00037209    0.00018450    0.02044640
     atom   32 type  2   force =    -0.00020457    0.00052831   -0.02103520
     atom   33 type  1   force =     0.00000000    0.00000000    0.00000000
     atom   34 type  2   force =     0.00072293    0.00080443    0.02077781
     atom   35 type  2   force =     0.00010867    0.00079849   -0.02120968
     atom   36 type  3   force =    -0.01372394   -0.01330252    0.00648513
     The Hubbard contrib.    to forces
     atom    1 type  1   force =     0.00000000    0.00000000    0.00000000
     atom    2 type  2   force =     0.00000000    0.00000000    0.00000000
     atom    3 type  2   force =     0.00000000    0.00000000    0.00000000
     atom    4 type  1   force =     0.00000000    0.00000000    0.00000000
     atom    5 type  2   force =     0.00000000    0.00000000    0.00000000
     atom    6 type  2   force =     0.00000000    0.00000000    0.00000000
     atom    7 type  1   force =     0.00000000    0.00000000    0.00000000
     atom    8 type  2   force =     0.00000000    0.00000000    0.00000000
     atom    9 type  2   force =     0.00000000    0.00000000    0.00000000
     atom   10 type  1   force =     0.00000000    0.00000000    0.00000000
     atom   11 type  2   force =     0.00000000    0.00000000    0.00000000
     atom   12 type  2   force =     0.00000000    0.00000000    0.00000000
     atom   13 type  1   force =     0.00000000    0.00000000    0.00000000
     atom   14 type  2   force =     0.00000000    0.00000000    0.00000000
     atom   15 type  2   force =     0.00000000    0.00000000    0.00000000
     atom   16 type  1   force =     0.00000000    0.00000000    0.00000000
     atom   17 type  2   force =     0.00000000    0.00000000    0.00000000
     atom   18 type  2   force =     0.00000000    0.00000000    0.00000000
     atom   19 type  1   force =     0.00000000    0.00000000    0.00000000
     atom   20 type  2   force =     0.00000000    0.00000000    0.00000000
     atom   21 type  1   force =     0.00000000    0.00000000    0.00000000
     atom   22 type  2   force =     0.00000000    0.00000000    0.00000000
     atom   23 type  2   force =     0.00000000    0.00000000    0.00000000
     atom   24 type  1   force =     0.00000000    0.00000000    0.00000000
     atom   25 type  2   force =     0.00000000    0.00000000    0.00000000
     atom   26 type  2   force =     0.00000000    0.00000000    0.00000000
     atom   27 type  1   force =     0.00000000    0.00000000    0.00000000
     atom   28 type  2   force =     0.00000000    0.00000000    0.00000000
     atom   29 type  2   force =     0.00000000    0.00000000    0.00000000
     atom   30 type  1   force =     0.00000000    0.00000000    0.00000000
     atom   31 type  2   force =     0.00000000    0.00000000    0.00000000
     atom   32 type  2   force =     0.00000000    0.00000000    0.00000000
     atom   33 type  1   force =     0.00000000    0.00000000    0.00000000
     atom   34 type  2   force =     0.00000000    0.00000000    0.00000000
     atom   35 type  2   force =     0.00000000    0.00000000    0.00000000
     atom   36 type  3   force =     0.00000000    0.00000000    0.00000000
     The SCF correction term to forces
     atom    1 type  1   force =     0.00029371    0.00022116   -0.00018792
     atom    2 type  2   force =     0.00014943    0.00011426    0.00028667
     atom    3 type  2   force =     0.00007840   -0.00003930   -0.00052585
     atom    4 type  1   force =     0.00006005   -0.00011742   -0.00000364
     atom    5 type  2   force =     0.00000086    0.00014961    0.00042024
     atom    6 type  2   force =     0.00004505    0.00001174   -0.00043083
     atom    7 type  1   force =    -0.00014416   -0.00041631    0.00000915
     atom    8 type  2   force =     0.00000557   -0.00020001    0.00049735
     atom    9 type  2   force =     0.00007953   -0.00013005   -0.00050263
     atom   10 type  1   force =     0.00021854    0.00029581   -0.00036372
     atom   11 type  2   force =     0.00003664   -0.00007262    0.00040323
     atom   12 type  2   force =     0.00004753    0.00015446   -0.00060418
     atom   13 type  1   force =    -0.00025259    0.00020820   -0.00015427
     atom   14 type  2   force =    -0.00013966    0.00010914    0.00042244
     atom   15 type  2   force =    -0.00005748    0.00000385   -0.00061933
     atom   16 type  1   force =    -0.00006580    0.00016600    0.00002918
     atom   17 type  2   force =    -0.00001997    0.00006137    0.00041323
     atom   18 type  2   force =    -0.00003662   -0.00006100   -0.00041587
     atom   19 type  1   force =    -0.00000596   -0.00032749   -0.00003998
     atom   20 type  2   force =    -0.00007618   -0.00011227   -0.00033132
     atom   21 type  1   force =    -0.00020491    0.00006643   -0.00045170
     atom   22 type  2   force =    -0.00010008   -0.00007822    0.00040069
     atom   23 type  2   force =    -0.00005419    0.00008443   -0.00053767
     atom   24 type  1   force =    -0.00001084    0.00007936   -0.00006290
     atom   25 type  2   force =    -0.00001371    0.00010631    0.00048764
     atom   26 type  2   force =    -0.00001302    0.00000420   -0.00059020
     atom   27 type  1   force =     0.00005278   -0.00014092    0.00000498
     atom   28 type  2   force =     0.00001983    0.00004425    0.00048878
     atom   29 type  2   force =    -0.00001872   -0.00002806   -0.00050159
     atom   30 type  1   force =     0.00009439   -0.00014927   -0.00011888
     atom   31 type  2   force =     0.00007034   -0.00012441    0.00048371
     atom   32 type  2   force =    -0.00000167   -0.00004871   -0.00049197
     atom   33 type  1   force =    -0.00004829    0.00015436   -0.00027382
     atom   34 type  2   force =     0.00007561    0.00000529    0.00044926
     atom   35 type  2   force =     0.00000893    0.00014640   -0.00059387
     atom   36 type  3   force =     0.00008993    0.00005024    0.00035768

     Total force =     0.809915     Total SCF correction =     0.002670

     BFGS Geometry Optimization
     Energy error            =      0.0E+00 Ry
     Gradient error          =      4.6E-01 Ry/Bohr

     number of scf cycles    =   1
     number of bfgs steps    =   0

     energy             new  =   -2246.1098283957 Ry

     new trust radius        =       0.5000000000 bohr
     new conv_thr            =       0.0000010000 Ry


ATOMIC_POSITIONS (angstrom)
Mo            6.5836742314        1.7876585297        2.8129440706
S             8.2797896098        0.9530764794        4.2894812558
S             8.1885286670        0.8154436110        1.2760080727
Mo            8.0948660868        4.4964647468        2.7177996175
S             6.4996079131        3.7204414621        4.3447449536
S             6.5540467486        3.5181045676        1.1206642277
Mo            6.4896123490        7.2095120868        2.6670243747
S             8.0826494922        6.3423480427        4.2503886459
S             8.0865564189        6.3065764339        1.0885584937
Mo            8.1787804572        9.8991459638        2.7948532634
S             6.4861536010        8.9169654823        4.3678488330
S             6.6161690726        9.0484868885        1.1434730833
Mo            3.4249469917        1.7493456254        2.7759303593
S             4.9715011515        0.8190530351        4.3525692008
S             5.0519209337        0.8471624129        1.2230882632
Mo            4.9789460172        4.5183745283        2.6346727012
S             3.4302279732        3.6718475651        4.2808280006
S             3.4364328126        3.5455863954        1.0638301321
Mo            3.4545821611        7.2114931371        2.6280575282
S             4.9842871082        6.3255406461        1.0375614602
Mo            5.0113589393        9.9042252278        2.7465695311
S             3.4695563802        8.9430761057        4.3243477862
S             3.4073905010        9.0652308003        1.0996068705
Mo            0.3061471239        1.7456332717        2.8459591550
S             1.8607066749        0.8017894141        4.3995303337
S             1.8535941246        0.8541801663        1.2057433583
Mo            1.8608422236        4.4970084874        2.6636613433
S             0.2741986625        3.6569345146        4.3337236713
S             0.2329460246        3.5251841490        1.1698126712
Mo            0.2708136940        7.2204390560        2.7002697624
S             1.9028241565        6.3131927514        4.2302016869
S             1.8579544306        6.3132893257        1.0478314201
Mo            1.8464439336        9.9375971931        2.7667217338
S             0.2968900443        9.0731043164        4.4128529736
S             0.2701089179        9.0470567038        1.1581252978
O             7.2325491612       -0.1196227130        5.3154634441



     Writing config-only to output data dir ./MoS2-V-O.save/
     NEW-OLD atomic charge density approx. for the potential

     negative rho (up, down):  1.864E-04 0.000E+00

     total cpu time spent up to now is       98.5 secs

     Self-consistent Calculation

     iteration #  1     ecut=    80.00 Ry     beta= 0.70
     Davidson diagonalization with overlap
     ethr =  1.00E-06,  avg # of iterations = 19.0

     negative rho (up, down):  4.294E-03 0.000E+00

     total cpu time spent up to now is      112.5 secs

     total energy              =   -2246.16115279 Ry
     estimated scf accuracy    <       0.15385694 Ry

     iteration #  2     ecut=    80.00 Ry     beta= 0.70
     Davidson diagonalization with overlap
     ethr =  4.93E-05,  avg # of iterations =  5.0

     negative rho (up, down):  6.159E-03 0.000E+00

     total cpu time spent up to now is      128.2 secs

     total energy              =   -2246.17901801 Ry
     estimated scf accuracy    <       0.13676778 Ry

     iteration #  3     ecut=    80.00 Ry     beta= 0.70
     Davidson diagonalization with overlap
     ethr =  4.38E-05,  avg # of iterations =  4.0

     negative rho (up, down):  1.037E-02 0.000E+00

     total cpu time spent up to now is      141.6 secs

     total energy              =   -2246.18387740 Ry
     estimated scf accuracy    <       0.01362848 Ry

     iteration #  4     ecut=    80.00 Ry     beta= 0.70
     Davidson diagonalization with overlap
     ethr =  4.37E-06,  avg # of iterations =  5.0

     negative rho (up, down):  1.217E-02 0.000E+00

     total cpu time spent up to now is      155.8 secs

     total energy              =   -2246.18496358 Ry
     estimated scf accuracy    <       0.00358376 Ry

     iteration #  5     ecut=    80.00 Ry     beta= 0.70
     Davidson diagonalization with overlap
     ethr =  1.15E-06,  avg # of iterations =  2.0

     negative rho (up, down):  1.236E-02 0.000E+00

     total cpu time spent up to now is      165.7 secs

     total energy              =   -2246.18486288 Ry
     estimated scf accuracy    <       0.00236468 Ry

     iteration #  6     ecut=    80.00 Ry     beta= 0.70
     Davidson diagonalization with overlap
     ethr =  7.58E-07,  avg # of iterations =  2.0

     negative rho (up, down):  1.119E-02 0.000E+00

     total cpu time spent up to now is      177.5 secs

     total energy              =   -2246.18491802 Ry
     estimated scf accuracy    <       0.00039391 Ry

     iteration #  7     ecut=    80.00 Ry     beta= 0.70
     Davidson diagonalization with overlap
     ethr =  1.26E-07,  avg # of iterations =  6.0

     negative rho (up, down):  9.265E-03 0.000E+00

     total cpu time spent up to now is      187.1 secs

     total energy              =   -2246.18493497 Ry
     estimated scf accuracy    <       0.00011330 Ry

     iteration #  8     ecut=    80.00 Ry     beta= 0.70
     Davidson diagonalization with overlap
     ethr =  3.63E-08,  avg # of iterations =  4.0

     negative rho (up, down):  6.741E-03 0.000E+00

     total cpu time spent up to now is      196.2 secs

     total energy              =   -2246.18491244 Ry
     estimated scf accuracy    <       0.00003696 Ry

     iteration #  9     ecut=    80.00 Ry     beta= 0.70
     Davidson diagonalization with overlap
     ethr =  1.18E-08,  avg # of iterations =  4.0

     negative rho (up, down):  4.387E-03 0.000E+00

     total cpu time spent up to now is      205.6 secs

     total energy              =   -2246.18488732 Ry
     estimated scf accuracy    <       0.00001856 Ry

     iteration # 10     ecut=    80.00 Ry     beta= 0.70
     Davidson diagonalization with overlap
     ethr =  5.95E-09,  avg # of iterations =  2.0

     negative rho (up, down):  2.127E-03 0.000E+00

     total cpu time spent up to now is      213.3 secs

     total energy              =   -2246.18486892 Ry
     estimated scf accuracy    <       0.00000653 Ry

     iteration # 11     ecut=    80.00 Ry     beta= 0.70
     Davidson diagonalization with overlap
     ethr =  2.09E-09,  avg # of iterations =  5.0

     negative rho (up, down):  1.265E-03 0.000E+00

     total cpu time spent up to now is      220.7 secs

     total energy              =   -2246.18486299 Ry
     estimated scf accuracy    <       0.00000253 Ry

     iteration # 12     ecut=    80.00 Ry     beta= 0.70
     Davidson diagonalization with overlap
     ethr =  8.12E-10,  avg # of iterations =  5.0

     negative rho (up, down):  4.928E-04 0.000E+00

     total cpu time spent up to now is      230.9 secs

     total energy              =   -2246.18485879 Ry
     estimated scf accuracy    <       0.00000111 Ry

     iteration # 13     ecut=    80.00 Ry     beta= 0.70
     Davidson diagonalization with overlap
     ethr =  3.55E-10,  avg # of iterations =  5.0

     negative rho (up, down):  2.043E-04 0.000E+00

     total cpu time spent up to now is      234.4 secs

     End of self-consistent calculation

          k = 0.0000 0.0000 0.0000 (105382 PWs)   bands (ev):

   -63.0678 -63.0047 -62.9910 -62.9427 -62.9127 -62.9034 -62.9019 -62.8942
   -62.8881 -62.8826 -62.8619 -62.8435 -37.4239 -37.3437 -37.2888 -37.2696
   -37.2635 -37.2380 -37.2329 -37.1863 -37.1802 -37.1671 -37.1631 -37.1539
   -37.1439 -37.1272 -37.1197 -37.1061 -37.0956 -37.0858 -37.0787 -37.0748
   -37.0716 -37.0573 -37.0508 -37.0404 -37.0289 -37.0188 -37.0127 -37.0085
   -36.9975 -36.9802 -36.9662 -36.9475 -36.9368 -36.9010 -36.8685 -36.8102
   -19.7451 -16.0481 -15.3821 -15.2433 -15.1033 -15.0648 -14.8385 -14.7285
   -14.5992 -14.5817 -14.5285 -14.5219 -14.4436 -14.4033 -14.3413 -14.2901
   -14.2363 -14.2208 -14.1139 -14.0379 -14.0014 -13.9698 -13.9381 -13.9087
    -7.8632  -7.7672  -7.6538  -7.5290  -7.4696  -7.3956  -7.3375  -7.2964
    -7.2478  -6.9829  -6.9220  -6.9072  -6.8621  -6.8038  -6.6823  -6.6177
    -6.5518  -6.5424  -6.4337  -6.3581  -6.1062  -6.0948  -6.0549  -5.9670
    -5.9240  -5.8740  -5.8470  -5.8184  -5.7525  -5.7173  -5.6814  -5.6176
    -5.5999  -5.5961  -5.4560  -5.4299  -5.2633  -5.2306  -5.1709  -5.1416
    -5.0608  -5.0378  -4.9404  -4.8340  -4.7596  -4.5842  -4.4817  -4.3937
    -4.3743  -4.3262  -4.2195  -4.1765  -4.0677  -3.9628  -3.8815  -3.8617
    -3.8167  -3.8145  -3.7357  -3.6979  -3.6293  -3.6257  -3.6029  -3.5611
    -3.5175  -3.4610  -3.2996  -3.2588  -3.1138  -3.0495  -2.9599  -2.8914
    -2.8718  -2.8451  -2.7909  -2.7752  -2.7382  -2.6838  -2.4041  -2.3680
    -2.1527  -2.1023  -2.0170  -1.5399  -1.2540  -0.8872  -0.8218  -0.2939
    -0.2587  -0.1907  -0.1246  -0.0656   0.0201   0.0823   0.1707   0.1848
     0.2129   0.2528   0.3178   0.3889   0.4395   0.4671   0.4924   0.5137
     0.5567   0.6319   0.6572   0.6852   0.7028   0.7547   0.8508   0.8957
     0.9133   0.9740   1.1256

     the Fermi energy is    -1.3970 ev

!    total energy              =   -2246.18485868 Ry
     estimated scf accuracy    <       0.00000028 Ry
     smearing contrib. (-TS)   =      -0.00374185 Ry
     internal energy E=F+TS    =   -2246.18111683 Ry

     The total energy is F=E-TS. E is the sum of the following terms:
     one-electron contribution =  -18485.69768077 Ry
     hartree contribution      =    9230.78521553 Ry
     xc contribution           =    -392.05119830 Ry
     ewald contribution        =    7410.65469083 Ry
     one-center paw contrib.   =      -9.87214412 Ry

     convergence has been achieved in  13 iterations

     negative rho (up, down):  2.043E-04 0.000E+00

     Forces acting on atoms (cartesian axes, Ry/au):

     atom    1 type  1   force =    -0.00485464   -0.00461158   -0.01458478
     atom    2 type  2   force =    -0.18446499   -0.10449418    0.11474699
     atom    3 type  2   force =    -0.00606290    0.01175778   -0.02307073
     atom    4 type  1   force =     0.00315016    0.00271963   -0.00204042
     atom    5 type  2   force =    -0.00098759   -0.00445108   -0.00454567
     atom    6 type  2   force =     0.00034876    0.01357179   -0.00166577
     atom    7 type  1   force =    -0.00279574   -0.02427360   -0.00864725
     atom    8 type  2   force =     0.00168479   -0.00417287    0.01324617
     atom    9 type  2   force =     0.01261398    0.00310304    0.00596338
     atom   10 type  1   force =     0.00015133   -0.00336855   -0.01680161
     atom   11 type  2   force =     0.00894768    0.00542585   -0.02184031
     atom   12 type  2   force =    -0.00485312   -0.00218160    0.00016053
     atom   13 type  1   force =     0.00137509    0.00437301   -0.00858710
     atom   14 type  2   force =     0.00779369    0.00344748    0.00070261
     atom   15 type  2   force =    -0.01060596    0.00295334   -0.00567656
     atom   16 type  1   force =     0.00114462    0.00766264    0.00525523
     atom   17 type  2   force =     0.00630956   -0.00015514    0.00324997
     atom   18 type  2   force =    -0.00263762   -0.00359603    0.01002389
     atom   19 type  1   force =     0.00239236   -0.00813673   -0.00107738
     atom   20 type  2   force =     0.00150381   -0.00329232   -0.00403533
     atom   21 type  1   force =    -0.00338843    0.00409577    0.00259499
     atom   22 type  2   force =    -0.00322282   -0.00186413   -0.00313048
     atom   23 type  2   force =    -0.00148090    0.00021855    0.00455409
     atom   24 type  1   force =     0.06541302    0.03858738   -0.06619030
     atom   25 type  2   force =     0.02422683    0.01277866    0.00530179
     atom   26 type  2   force =    -0.00655151   -0.00532446   -0.01047969
     atom   27 type  1   force =    -0.00109648    0.00343127    0.00430688
     atom   28 type  2   force =     0.00508739    0.00883907   -0.00450989
     atom   29 type  2   force =     0.00388275    0.00077205   -0.00445857
     atom   30 type  1   force =     0.00070182    0.00645893    0.00394772
     atom   31 type  2   force =     0.00115410    0.00089655    0.01270481
     atom   32 type  2   force =    -0.00792866    0.00559342    0.00595895
     atom   33 type  1   force =     0.00760311   -0.00579228   -0.00466846
     atom   34 type  2   force =    -0.00381544   -0.03000099   -0.01350781
     atom   35 type  2   force =    -0.00368866    0.00499836    0.00159949
     atom   36 type  3   force =     0.09295062    0.06403097    0.02520061
     The non-local contrib.  to forces
     atom    1 type  1   force =     0.01078522    0.03048424    0.00320541
     atom    2 type  2   force =    -0.25466815   -0.30491323    0.15629866
     atom    3 type  2   force =    -0.01287355    0.00036016    0.25866407
     atom    4 type  1   force =     0.00118633    0.01057221    0.00307747
     atom    5 type  2   force =     0.00683259   -0.03669776   -0.25702208
     atom    6 type  2   force =    -0.00024186    0.01033231    0.26287336
     atom    7 type  1   force =    -0.02329776    0.01818583   -0.01297261
     atom    8 type  2   force =     0.00538796   -0.01016317   -0.25318148
     atom    9 type  2   force =     0.00814865   -0.01021704    0.27678829
     atom   10 type  1   force =     0.00390012    0.00278026    0.00211112
     atom   11 type  2   force =     0.00896943    0.06282135   -0.20396796
     atom   12 type  2   force =    -0.01442637   -0.01668048    0.25750823
     atom   13 type  1   force =     0.01112044    0.01718747   -0.00442696
     atom   14 type  2   force =    -0.00517728   -0.00138719   -0.26636201
     atom   15 type  2   force =    -0.01135021   -0.00555937    0.25241772
     atom   16 type  1   force =    -0.00356035    0.02449880   -0.03000409
     atom   17 type  2   force =     0.00384908   -0.02814277   -0.25226965
     atom   18 type  2   force =    -0.00305959   -0.00039744    0.27250799
     atom   19 type  1   force =     0.01270817    0.00388373   -0.01572219
     atom   20 type  2   force =     0.00058231   -0.02272914    0.26608253
     atom   21 type  1   force =     0.00049097    0.01831426    0.00806815
     atom   22 type  2   force =    -0.00999948    0.00275219   -0.25983900
     atom   23 type  2   force =     0.00712588   -0.01515654    0.26765230
     atom   24 type  1   force =     0.00201862   -0.00233254   -0.00693444
     atom   25 type  2   force =     0.01184125    0.00507851   -0.26300762
     atom   26 type  2   force =     0.00358571   -0.01553607    0.26121705
     atom   27 type  1   force =    -0.00087396    0.01272872    0.00921235
     atom   28 type  2   force =    -0.00026090   -0.01700370   -0.27284993
     atom   29 type  2   force =     0.00502483    0.00561475    0.26435762
     atom   30 type  1   force =    -0.00133174    0.02144968    0.00829578
     atom   31 type  2   force =    -0.00677177    0.00151896   -0.25576390
     atom   32 type  2   force =     0.00071865   -0.00852401    0.27403114
     atom   33 type  1   force =    -0.00747024    0.00675098    0.00384190
     atom   34 type  2   force =     0.00364685   -0.03407183   -0.27953531
     atom   35 type  2   force =    -0.00270063   -0.01018612    0.26551644
     atom   36 type  3   force =     0.65603110    0.67777431   -0.64217363
     The ionic contribution  to forces
     atom    1 type  1   force =    -1.32107095    2.34244336    1.73329556
     atom    2 type  2   force =     1.91058307    2.85676776   34.91311833
     atom    3 type  2   force =    -0.05282902    0.30562841  -37.47363181
     atom    4 type  1   force =     0.26751376    1.32794423   -0.44651094
     atom    5 type  2   force =    -1.23815887    2.28038082   38.48096715
     atom    6 type  2   force =     0.21133472   -0.23704176  -38.70098849
     atom    7 type  1   force =    -2.86020160   -3.71797738    0.91323895
     atom    8 type  2   force =    -0.86002294   -0.32113265   37.27195213
     atom    9 type  2   force =     0.38651733   -0.17664307  -38.54524891
     atom   10 type  1   force =    -0.10706015   -2.08325676   -0.61503766
     atom   11 type  2   force =    -1.48728397   -4.42984377   37.30112269
     atom   12 type  2   force =     0.12463118    0.34989917  -38.74783528
     atom   13 type  1   force =     0.14011536    1.53392364    1.50308132
     atom   14 type  2   force =    -1.86137813    0.89891880   37.52469416
     atom   15 type  2   force =    -0.10935360    0.03983418  -37.68722785
     atom   16 type  1   force =    -0.35604364    4.19444905   -0.36868992
     atom   17 type  2   force =     0.70329212    1.79847708   37.81396439
     atom   18 type  2   force =    -0.18670627   -0.48846429  -39.02624328
     atom   19 type  1   force =     2.46561108   -2.81769030   -0.39634835
     atom   20 type  2   force =     0.11987011   -0.27012923  -39.06288140
     atom   21 type  1   force =    -1.54119288   -0.75935396   -1.27188605
     atom   22 type  2   force =     0.02668706   -2.13435374   38.15373595
     atom   23 type  2   force =    -0.09720666    0.51077438  -38.86497104
     atom   24 type  1   force =     1.82692138    2.69787495    2.87904015
     atom   25 type  2   force =     1.15961832    0.32601498   39.10730499
     atom   26 type  2   force =    -0.02618933    0.14333344  -38.07689497
     atom   27 type  1   force =     0.21724223    0.80776310   -2.95506422
     atom   28 type  2   force =     0.42069474    1.66588250   38.03763055
     atom   29 type  2   force =    -0.13725875   -0.14912741  -37.90033738
     atom   30 type  1   force =     0.19044059   -1.84996260   -1.06787042
     atom   31 type  2   force =     1.30169341   -0.16824440   37.27554495
     atom   32 type  2   force =    -0.42888632   -0.10328504  -39.08306766
     atom   33 type  1   force =     1.53591004   -1.23065334    0.65685126
     atom   34 type  2   force =     1.20830077   -2.16200056   38.90004175
     atom   35 type  2   force =     0.11909905    0.11556921  -38.68719130
     atom   36 type  3   force =    -1.66523321   -1.09671880   46.51234265
     The local contribution  to forces
     atom    1 type  1   force =     1.30548743   -2.37746245   -1.75158025
     atom    2 type  2   force =    -1.85340040   -2.67194072  -34.95446622
     atom    3 type  2   force =     0.05908264   -0.29421819   37.21209312
     atom    4 type  1   force =    -0.26552496   -1.33599984    0.44099509
     atom    5 type  2   force =     1.23108092   -2.25011017  -38.24912090
     atom    6 type  2   force =    -0.21090532    0.24127567   38.45706729
     atom    7 type  1   force =     2.88067520    3.67562421   -0.90922298
     atom    8 type  2   force =     0.85649842    0.32625325  -37.02593115
     atom    9 type  2   force =    -0.38184838    0.18937363   38.29517296
     atom   10 type  1   force =     0.10335098    2.07718989    0.59576537
     atom   11 type  2   force =     1.48698096    4.37459737  -37.13750069
     atom   12 type  2   force =    -0.11611688   -0.33667203   38.51085140
     atom   13 type  1   force =    -0.14991570   -1.54678773   -1.50759213
     atom   14 type  2   force =     1.87331446   -0.89347815  -37.27890902
     atom   15 type  2   force =     0.10948556   -0.03161299   37.44906049
     atom   16 type  1   force =     0.36081512   -4.21136226    0.40356727
     atom   17 type  2   force =    -0.70074387   -1.77200068  -37.57888930
     atom   18 type  2   force =     0.18710032    0.48586762   38.78448217
     atom   19 type  1   force =    -2.47588402    2.80571483    0.41060306
     atom   20 type  2   force =    -0.11908408    0.28864765   38.81372960
     atom   21 type  1   force =     1.53735236    0.74514671    1.26601918
     atom   22 type  2   force =    -0.02020700    2.13018982  -37.91772042
     atom   23 type  2   force =     0.08907743   -0.49667393   38.62246897
     atom   24 type  1   force =    -1.76359134   -2.65699380   -2.93857908
     atom   25 type  2   force =    -1.14730327   -0.31770008  -38.85989577
     atom   26 type  2   force =     0.01633846   -0.13387734   37.82570874
     atom   27 type  1   force =    -0.21754720   -0.81716747    2.94972852
     atom   28 type  2   force =    -0.41549517   -1.64173775  -37.79025675
     atom   29 type  2   force =     0.13659871    0.14491786   37.65187328
     atom   30 type  1   force =    -0.18839158    1.83503063    1.06315685
     atom   31 type  2   force =    -1.29416638    0.16753351  -37.02775465
     atom   32 type  2   force =     0.42055856    0.11690833   38.83576665
     atom   33 type  1   force =    -1.52089260    1.21824413   -0.66567496
     atom   34 type  2   force =    -1.21563674    2.16496675  -38.65558069
     atom   35 type  2   force =    -0.12025121   -0.10115173   38.44403677
     atom   36 type  3   force =     1.10957954    0.49084062  -45.85145397
     The core correction contribution to forces
     atom    1 type  1   force =     0.00000000    0.00000000    0.00000000
     atom    2 type  2   force =     0.01321822    0.01573406   -0.00039240
     atom    3 type  2   force =     0.00059922    0.00004514   -0.02042317
     atom    4 type  1   force =     0.00000000    0.00000000    0.00000000
     atom    5 type  2   force =    -0.00072450    0.00193900    0.02058310
     atom    6 type  2   force =     0.00018119   -0.00103387   -0.02087500
     atom    7 type  1   force =     0.00000000    0.00000000    0.00000000
     atom    8 type  2   force =    -0.00016409    0.00089324    0.02034768
     atom    9 type  2   force =    -0.00017456    0.00058212   -0.02104807
     atom   10 type  1   force =     0.00000000    0.00000000    0.00000000
     atom   11 type  2   force =     0.00026538   -0.00220871    0.01839653
     atom   12 type  2   force =     0.00104923    0.00130210   -0.02063356
     atom   13 type  1   force =     0.00000000    0.00000000    0.00000000
     atom   14 type  2   force =     0.00098490   -0.00057013    0.02122209
     atom   15 type  2   force =     0.00062145    0.00031383   -0.02017892
     atom   16 type  1   force =     0.00000000    0.00000000    0.00000000
     atom   17 type  2   force =    -0.00007285    0.00146131    0.02039202
     atom   18 type  2   force =     0.00002782   -0.00063696   -0.02102118
     atom   19 type  1   force =     0.00000000    0.00000000    0.00000000
     atom   20 type  2   force =     0.00011797    0.00091938   -0.02126258
     atom   21 type  1   force =     0.00000000    0.00000000    0.00000000
     atom   22 type  2   force =     0.00029285   -0.00043895    0.02062563
     atom   23 type  2   force =    -0.00047667    0.00127704   -0.02088018
     atom   24 type  1   force =     0.00000000    0.00000000    0.00000000
     atom   25 type  2   force =    -0.00000192   -0.00058963    0.02083312
     atom   26 type  2   force =    -0.00033147    0.00079360   -0.02074753
     atom   27 type  1   force =     0.00000000    0.00000000    0.00000000
     atom   28 type  2   force =     0.00011261    0.00158376    0.02089129
     atom   29 type  2   force =    -0.00050155   -0.00070897   -0.02060261
     atom   30 type  1   force =     0.00000000    0.00000000    0.00000000
     atom   31 type  2   force =     0.00038817    0.00012716    0.02060507
     atom   32 type  2   force =    -0.00032949    0.00051822   -0.02107308
     atom   33 type  1   force =     0.00000000    0.00000000    0.00000000
     atom   34 type  2   force =    -0.00011730    0.00112149    0.02155924
     atom   35 type  2   force =     0.00017876    0.00077242   -0.02106670
     atom   36 type  3   force =    -0.00743697   -0.00788707    0.00657707
     The Hubbard contrib.    to forces
     atom    1 type  1   force =     0.00000000    0.00000000    0.00000000
     atom    2 type  2   force =     0.00000000    0.00000000    0.00000000
     atom    3 type  2   force =     0.00000000    0.00000000    0.00000000
     atom    4 type  1   force =     0.00000000    0.00000000    0.00000000
     atom    5 type  2   force =     0.00000000    0.00000000    0.00000000
     atom    6 type  2   force =     0.00000000    0.00000000    0.00000000
     atom    7 type  1   force =     0.00000000    0.00000000    0.00000000
     atom    8 type  2   force =     0.00000000    0.00000000    0.00000000
     atom    9 type  2   force =     0.00000000    0.00000000    0.00000000
     atom   10 type  1   force =     0.00000000    0.00000000    0.00000000
     atom   11 type  2   force =     0.00000000    0.00000000    0.00000000
     atom   12 type  2   force =     0.00000000    0.00000000    0.00000000
     atom   13 type  1   force =     0.00000000    0.00000000    0.00000000
     atom   14 type  2   force =     0.00000000    0.00000000    0.00000000
     atom   15 type  2   force =     0.00000000    0.00000000    0.00000000
     atom   16 type  1   force =     0.00000000    0.00000000    0.00000000
     atom   17 type  2   force =     0.00000000    0.00000000    0.00000000
     atom   18 type  2   force =     0.00000000    0.00000000    0.00000000
     atom   19 type  1   force =     0.00000000    0.00000000    0.00000000
     atom   20 type  2   force =     0.00000000    0.00000000    0.00000000
     atom   21 type  1   force =     0.00000000    0.00000000    0.00000000
     atom   22 type  2   force =     0.00000000    0.00000000    0.00000000
     atom   23 type  2   force =     0.00000000    0.00000000    0.00000000
     atom   24 type  1   force =     0.00000000    0.00000000    0.00000000
     atom   25 type  2   force =     0.00000000    0.00000000    0.00000000
     atom   26 type  2   force =     0.00000000    0.00000000    0.00000000
     atom   27 type  1   force =     0.00000000    0.00000000    0.00000000
     atom   28 type  2   force =     0.00000000    0.00000000    0.00000000
     atom   29 type  2   force =     0.00000000    0.00000000    0.00000000
     atom   30 type  1   force =     0.00000000    0.00000000    0.00000000
     atom   31 type  2   force =     0.00000000    0.00000000    0.00000000
     atom   32 type  2   force =     0.00000000    0.00000000    0.00000000
     atom   33 type  1   force =     0.00000000    0.00000000    0.00000000
     atom   34 type  2   force =     0.00000000    0.00000000    0.00000000
     atom   35 type  2   force =     0.00000000    0.00000000    0.00000000
     atom   36 type  3   force =     0.00000000    0.00000000    0.00000000
     The SCF correction term to forces
     atom    1 type  1   force =    -0.00005531   -0.00007498    0.00048066
     atom    2 type  2   force =    -0.00019670   -0.00014030    0.00017477
     atom    3 type  2   force =    -0.00004116   -0.00005598    0.00021322
     atom    4 type  1   force =    -0.00002394    0.00020479    0.00038412
     atom    5 type  2   force =    -0.00001670    0.00003880    0.00003323
     atom    6 type  2   force =    -0.00001894    0.00004120    0.00024322
     atom    7 type  1   force =     0.00002944   -0.00010450    0.00029555
     atom    8 type  2   force =    -0.00001353   -0.00002178    0.00004515
     atom    9 type  2   force =    -0.00002805    0.00000916    0.00028527
     atom   10 type  1   force =    -0.00003858   -0.00008017    0.00034572
     atom   11 type  2   force =     0.00001691    0.00006137    0.00009527
     atom   12 type  2   force =     0.00001075   -0.00002860    0.00025590
     atom   13 type  1   force =     0.00005602    0.00005139    0.00033682
     atom   14 type  2   force =     0.00005077   -0.00003409    0.00004355
     atom   15 type  2   force =    -0.00000813   -0.00002056    0.00023815
     atom   16 type  1   force =    -0.00006549    0.00007882    0.00036812
     atom   17 type  2   force =    -0.00001389    0.00005168    0.00003867
     atom   18 type  2   force =     0.00000113    0.00003679    0.00028435
     atom   19 type  1   force =    -0.00004184   -0.00004323    0.00037626
     atom   20 type  2   force =     0.00001853    0.00000078    0.00028268
     atom   21 type  1   force =    -0.00003786   -0.00000948    0.00037987
     atom   22 type  2   force =     0.00000476   -0.00001169    0.00005352
     atom   23 type  2   force =     0.00000015   -0.00000065    0.00027020
     atom   24 type  1   force =     0.00006539    0.00004052    0.00026924
     atom   25 type  2   force =     0.00007348   -0.00002337    0.00005323
     atom   26 type  2   force =     0.00004614   -0.00003634    0.00022318
     atom   27 type  1   force =     0.00008348    0.00010868    0.00041638
     atom   28 type  2   force =     0.00003713    0.00011601    0.00006110
     atom   29 type  2   force =     0.00002053    0.00007758    0.00023668
     atom   30 type  1   force =    -0.00001443   -0.00005702    0.00035166
     atom   31 type  2   force =     0.00001170   -0.00003692    0.00005950
     atom   32 type  2   force =     0.00001096   -0.00002232    0.00028805
     atom   33 type  1   force =     0.00005694   -0.00013230    0.00029950
     atom   34 type  2   force =    -0.00000799   -0.00001509   -0.00000664
     atom   35 type  2   force =    -0.00001360   -0.00000365    0.00029045
     atom   36 type  3   force =     0.00001118    0.00002367   -0.00010535

     Total force =     0.297236     Total SCF correction =     0.001650
     Energy error            =      7.5E-02 Ry
     Gradient error          =      1.8E-01 Ry/Bohr

     number of scf cycles    =   2
     number of bfgs steps    =   1

     energy             old  =   -2246.1098283957 Ry
     energy             new  =   -2246.1848586819 Ry

     CASE: energy            _new < energy            _old

     new trust radius        =       0.1571780434 bohr
     new conv_thr            =       0.0000001845 Ry


ATOMIC_POSITIONS (angstrom)
Mo            6.5825460501        1.7856231782        2.8053886449
S             8.2102872031        0.9229936911        4.3238691658
S             8.1853597980        0.8210510875        1.2657014447
Mo            8.0962129991        4.4978094252        2.7169041563
S             6.4991425553        3.7182772061        4.3425452222
S             6.5542756323        3.5247429687        1.1198675312
Mo            6.4883478482        7.1979082264        2.6627069141
S             8.0834879375        6.3403544671        4.2570549905
S             8.0926958421        6.3081399568        1.0916828124
Mo            8.1808317591        9.8973393608        2.7821836748
S             6.4890861650        8.9165036512        4.3566183672
S             6.6138497585        9.0475071453        1.1439331119
Mo            3.4259083895        1.7515215757        2.7721113378
S             4.9745131511        0.8207933581        4.3530993902
S             5.0466307790        0.8485539539        1.2202125238
Mo            4.9793585886        4.5222976399        2.6371691779
S             3.4332514744        3.6718067315        4.2823732610
S             3.4351153033        3.5437230494        1.0688179461
Mo            3.4557084130        7.2074023518        2.6272994960
S             4.9850606418        6.3239469802        1.0358282041
Mo            5.0097763797        9.9063055152        2.7480520881
S             3.4679920383        8.9421860881        4.3228411707
S             3.4066285534        9.0653528168        1.1019876721
Mo            0.3358877856        1.7623239049        2.8165963746
S             1.8724342544        0.8083787516        4.4019961286
S             1.8499379005        0.8518219577        1.2007550019
Mo            1.8603786193        4.4986575384        2.6659257455
S             0.2766431451        3.6610819038        4.3313270432
S             0.2348335378        3.5252964848        1.1676194324
Mo            0.2710839948        7.2236817085        2.7018423601
S             1.9033935248        6.3136283664        4.2366124638
S             1.8540146018        6.3160603830        1.0507982241
Mo            1.8500022335        9.9347831712        2.7639972812
S             0.2953262339        9.0581217471        4.4068273987
S             0.2677656095        9.0496312017        1.1596699315
O             7.2598360881       -0.1046611336        5.3485318871



     Writing config-only to output data dir ./MoS2-V-O.save/
     NEW-OLD atomic charge density approx. for the potential

     negative rho (up, down):  1.736E-04 0.000E+00

     total cpu time spent up to now is      241.6 secs

     Self-consistent Calculation

     iteration #  1     ecut=    80.00 Ry     beta= 0.70
     Davidson diagonalization with overlap
     ethr =  1.00E-06,  avg # of iterations = 11.0

     negative rho (up, down):  1.768E-04 0.000E+00

     total cpu time spent up to now is      253.9 secs

     total energy              =   -2246.23450965 Ry
     estimated scf accuracy    <       0.01671402 Ry

     iteration #  2     ecut=    80.00 Ry     beta= 0.70
     Davidson diagonalization with overlap
     ethr =  5.36E-06,  avg # of iterations =  4.0

     negative rho (up, down):  2.287E-04 0.000E+00

     total cpu time spent up to now is      265.5 secs

     total energy              =   -2246.23634934 Ry
     estimated scf accuracy    <       0.00459387 Ry

     iteration #  3     ecut=    80.00 Ry     beta= 0.70
     Davidson diagonalization with overlap
     ethr =  1.47E-06,  avg # of iterations =  4.0

     negative rho (up, down):  2.399E-04 0.000E+00

     total cpu time spent up to now is      275.1 secs

     total energy              =   -2246.23680373 Ry
     estimated scf accuracy    <       0.00046433 Ry

     iteration #  4     ecut=    80.00 Ry     beta= 0.70
     Davidson diagonalization with overlap
     ethr =  1.49E-07,  avg # of iterations =  4.0

     negative rho (up, down):  2.457E-04 0.000E+00

     total cpu time spent up to now is      288.5 secs

     total energy              =   -2246.23686738 Ry
     estimated scf accuracy    <       0.00005011 Ry

     iteration #  5     ecut=    80.00 Ry     beta= 0.70
     Davidson diagonalization with overlap
     ethr =  1.61E-08,  avg # of iterations =  6.0

     negative rho (up, down):  2.455E-04 0.000E+00

     total cpu time spent up to now is      301.5 secs

     total energy              =   -2246.23687636 Ry
     estimated scf accuracy    <       0.00000898 Ry

     iteration #  6     ecut=    80.00 Ry     beta= 0.70
     Davidson diagonalization with overlap
     ethr =  2.88E-09,  avg # of iterations =  4.0

     negative rho (up, down):  2.430E-04 0.000E+00

     total cpu time spent up to now is      315.8 secs

     total energy              =   -2246.23687791 Ry
     estimated scf accuracy    <       0.00000154 Ry

     iteration #  7     ecut=    80.00 Ry     beta= 0.70
     Davidson diagonalization with overlap
     ethr =  4.95E-10,  avg # of iterations =  5.0

     negative rho (up, down):  2.388E-04 0.000E+00

     total cpu time spent up to now is      330.1 secs

     total energy              =   -2246.23687819 Ry
     estimated scf accuracy    <       0.00000037 Ry

     iteration #  8     ecut=    80.00 Ry     beta= 0.70
     Davidson diagonalization with overlap
     ethr =  1.18E-10,  avg # of iterations =  5.0

     negative rho (up, down):  2.073E-04 0.000E+00

     total cpu time spent up to now is      333.7 secs

     End of self-consistent calculation

          k = 0.0000 0.0000 0.0000 (105382 PWs)   bands (ev):

   -63.1190 -63.0050 -62.9963 -62.9453 -62.9150 -62.9083 -62.9009 -62.8929
   -62.8867 -62.8739 -62.8468 -62.8338 -37.4244 -37.3720 -37.3064 -37.2739
   -37.2707 -37.2403 -37.2354 -37.1851 -37.1804 -37.1719 -37.1633 -37.1584
   -37.1430 -37.1291 -37.1158 -37.1066 -37.0968 -37.0921 -37.0793 -37.0749
   -37.0691 -37.0499 -37.0478 -37.0361 -37.0310 -37.0147 -37.0099 -37.0054
   -36.9976 -36.9779 -36.9605 -36.9456 -36.9348 -36.9000 -36.8629 -36.8018
   -20.2323 -16.0430 -15.3356 -15.2262 -15.0731 -15.0539 -14.8381 -14.6940
   -14.5859 -14.5772 -14.5287 -14.5216 -14.4470 -14.4038 -14.3409 -14.2846
   -14.2412 -14.2229 -14.1027 -14.0151 -13.9849 -13.9762 -13.9424 -13.8753
    -7.8632  -7.7739  -7.6081  -7.5106  -7.4602  -7.3890  -7.3547  -7.3076
    -7.2590  -6.9621  -6.9267  -6.9089  -6.8620  -6.8042  -6.7003  -6.6325
    -6.5580  -6.5398  -6.4287  -6.3803  -6.1120  -6.1019  -6.0357  -5.9734
    -5.9332  -5.8692  -5.8490  -5.8129  -5.7689  -5.7154  -5.6882  -5.6222
    -5.5956  -5.5711  -5.4542  -5.4137  -5.2652  -5.2383  -5.1629  -5.1427
    -5.0645  -5.0385  -4.9473  -4.8321  -4.7696  -4.5759  -4.4926  -4.4019
    -4.3695  -4.3449  -4.2297  -4.1890  -4.0545  -3.9820  -3.8922  -3.8678
    -3.8326  -3.8045  -3.7361  -3.7067  -3.6273  -3.6177  -3.6098  -3.5534
    -3.5168  -3.4623  -3.3094  -3.2564  -3.0864  -3.0472  -2.9871  -2.9096
    -2.8748  -2.8423  -2.8007  -2.7900  -2.7366  -2.6768  -2.4694  -2.3770
    -2.1672  -2.0925  -2.0447  -1.5878  -1.1732  -0.8714  -0.8275  -0.2770
    -0.2584  -0.1892  -0.1252  -0.0701   0.0292   0.0782   0.1771   0.1931
     0.2098   0.2548   0.3355   0.3883   0.4342   0.4741   0.4947   0.5260
     0.5571   0.6336   0.6604   0.6877   0.7101   0.7610   0.8508   0.8979
     0.9129   0.9528   1.1380

     the Fermi energy is    -1.3805 ev

!    total energy              =   -2246.23687829 Ry
     estimated scf accuracy    <       0.00000008 Ry
     smearing contrib. (-TS)   =      -0.00110792 Ry
     internal energy E=F+TS    =   -2246.23577037 Ry

     The total energy is F=E-TS. E is the sum of the following terms:
     one-electron contribution =  -18476.12152292 Ry
     hartree contribution      =    9225.97535473 Ry
     xc contribution           =    -392.05069873 Ry
     ewald contribution        =    7405.83006801 Ry
     one-center paw contrib.   =      -9.86897147 Ry

     convergence has been achieved in   8 iterations

     negative rho (up, down):  2.073E-04 0.000E+00

     Forces acting on atoms (cartesian axes, Ry/au):

     atom    1 type  1   force =    -0.01002763   -0.00226171   -0.01048227
     atom    2 type  2   force =    -0.13939918   -0.09824885    0.07095950
     atom    3 type  2   force =    -0.00014323    0.01181049   -0.01730585
     atom    4 type  1   force =     0.00622518   -0.00198939    0.00163334
     atom    5 type  2   force =     0.00014902   -0.00365986   -0.00571024
     atom    6 type  2   force =    -0.00060223    0.01310912   -0.00263910
     atom    7 type  1   force =    -0.00144445   -0.01654186   -0.00382142
     atom    8 type  2   force =     0.00052673   -0.00407965    0.01009663
     atom    9 type  2   force =     0.01110835    0.00308140    0.00396939
     atom   10 type  1   force =    -0.00045375    0.00034401   -0.01606612
     atom   11 type  2   force =     0.00910362   -0.00129999   -0.02477334
     atom   12 type  2   force =    -0.00609736   -0.00340476   -0.00190042
     atom   13 type  1   force =     0.00336272    0.00115598   -0.00343421
     atom   14 type  2   force =     0.00703929    0.00406151   -0.00189917
     atom   15 type  2   force =    -0.00859940    0.00077251   -0.00782842
     atom   16 type  1   force =     0.00102811    0.00689854    0.00233202
     atom   17 type  2   force =     0.00478738    0.00078369    0.00305343
     atom   18 type  2   force =    -0.00146643   -0.00070335    0.00801134
     atom   19 type  1   force =     0.00100032   -0.00661156    0.00059556
     atom   20 type  2   force =    -0.00028936   -0.00430839   -0.00572528
     atom   21 type  1   force =    -0.00173201    0.00414892    0.00035003
     atom   22 type  2   force =    -0.00152354   -0.00224716   -0.00281600
     atom   23 type  2   force =    -0.00006239   -0.00107896    0.00278662
     atom   24 type  1   force =     0.00857940    0.00623918   -0.00671823
     atom   25 type  2   force =     0.01663159    0.01227460   -0.00243099
     atom   26 type  2   force =     0.00065248   -0.00507067   -0.01449157
     atom   27 type  1   force =     0.00010090    0.00404363    0.00481286
     atom   28 type  2   force =     0.00491264    0.00412283   -0.00660950
     atom   29 type  2   force =     0.00603075    0.00646534   -0.01004370
     atom   30 type  1   force =     0.00258364    0.00290197    0.00484953
     atom   31 type  2   force =     0.00130097    0.00085515    0.00979470
     atom   32 type  2   force =    -0.00635484    0.00479992    0.00519707
     atom   33 type  1   force =     0.00126961    0.00043541    0.00085896
     atom   34 type  2   force =    -0.00332165   -0.02180561   -0.01322034
     atom   35 type  2   force =    -0.00055096    0.00262500   -0.00272870
     atom   36 type  3   force =     0.09567573    0.08238257    0.03134386
     The non-local contrib.  to forces
     atom    1 type  1   force =     0.01158760    0.02765565    0.00296596
     atom    2 type  2   force =    -0.21998841   -0.30486099    0.17307589
     atom    3 type  2   force =    -0.00530798    0.00108994    0.26449111
     atom    4 type  1   force =     0.00113389    0.01292498    0.00249628
     atom    5 type  2   force =     0.00714420   -0.03643012   -0.25750960
     atom    6 type  2   force =     0.00012678    0.01026918    0.26180820
     atom    7 type  1   force =    -0.02366207    0.01831301   -0.01515042
     atom    8 type  2   force =     0.00513938   -0.00948110   -0.25606486
     atom    9 type  2   force =     0.00670774   -0.01073217    0.27480926
     atom   10 type  1   force =     0.00434321    0.00182469    0.00695668
     atom   11 type  2   force =     0.00184959    0.03828321   -0.21927661
     atom   12 type  2   force =    -0.01514070   -0.01772016    0.25784072
     atom   13 type  1   force =     0.00933079    0.02037506   -0.00423378
     atom   14 type  2   force =    -0.00737852    0.00074703   -0.27016112
     atom   15 type  2   force =    -0.00982964   -0.00562987    0.25142798
     atom   16 type  1   force =    -0.00375334    0.02593750   -0.02963259
     atom   17 type  2   force =     0.00332523   -0.02749086   -0.25327445
     atom   18 type  2   force =    -0.00209788    0.00073081    0.27118696
     atom   19 type  1   force =     0.01336406    0.00459097   -0.01676330
     atom   20 type  2   force =    -0.00154519   -0.02297850    0.26382455
     atom   21 type  1   force =    -0.00126539    0.01851023    0.00662775
     atom   22 type  2   force =    -0.00843823    0.00306153   -0.25971759
[...]
     atom   28 type  2   force =     0.00007804   -0.01293123   -0.27782267
     atom   29 type  2   force =    -0.00071765   -0.00873958    0.26661252
     atom   30 type  1   force =     0.00488563    0.01771986    0.00406671
     atom   31 type  2   force =    -0.01002538    0.00002930   -0.26795280
     atom   32 type  2   force =     0.00757277   -0.01250622    0.26921180
     atom   33 type  1   force =    -0.00292185    0.00629282    0.00252770
     atom   34 type  2   force =    -0.00149801   -0.00611886   -0.27876774
     atom   35 type  2   force =    -0.00130738   -0.01290442    0.26563548
     atom   36 type  3   force =    -0.02037394   -0.01973857   -2.32281676
     The ionic contribution  to forces
     atom    1 type  1   force =    -1.11543681    1.23875887   -1.41277325
     atom    2 type  2   force =    -0.22661865   -0.10821015   28.63773351
     atom    3 type  2   force =     0.05963174   -0.09496958  -38.15472954
     atom    4 type  1   force =    -0.15073064    1.24577755   -0.73829063
     atom    5 type  2   force =    -1.32743807    2.14649814   37.78555735
     atom    6 type  2   force =     0.17421305   -0.17472699  -38.76322858
     atom    7 type  1   force =    -2.76386181   -2.34318512    1.45451907
     atom    8 type  2   force =    -1.18850791    0.18594226   37.91391617
     atom    9 type  2   force =     0.35386575   -0.00805144  -38.28414161
     atom   10 type  1   force =    -0.42890248   -1.56173533   -1.18461534
     atom   11 type  2   force =    -0.99767269   -2.30632634   37.88744614
     atom   12 type  2   force =     0.14755252    0.22883525  -38.76969505
     atom   13 type  1   force =     0.14101170    1.02176512    1.39602470
     atom   14 type  2   force =    -0.99687860   -0.16136504   37.87957329
     atom   15 type  2   force =    -0.06673249   -0.11000749  -38.31599249
     atom   16 type  1   force =    -0.37147137    3.84446600    1.04790424
     atom   17 type  2   force =     0.82194842    1.43478586   38.06793183
     atom   18 type  2   force =    -0.20100479   -0.24242972  -38.35844417
     atom   19 type  1   force =     2.60939545   -1.98823897    1.88150390
     atom   20 type  2   force =    -0.05874804   -0.04916207  -39.14960836
     atom   21 type  1   force =    -0.57479548   -0.80621269   -0.69984523
     atom   22 type  2   force =     0.44906073   -1.68190108   38.20154771
     atom   23 type  2   force =    -0.22691746    0.20099037  -38.36832698
     atom   24 type  1   force =     0.98222602    0.91023144   -1.86258697
     atom   25 type  2   force =     1.15836312   -0.02134847   38.14256804
     atom   26 type  2   force =     0.00409881   -0.09854443  -38.29144352
     atom   27 type  1   force =     0.54500893    0.85989785   -0.12355373
     atom   28 type  2   force =     0.50410351    1.51809904   37.62631901
     atom   29 type  2   force =     0.01664051    0.08450807  -38.42685126
     atom   30 type  1   force =     0.18624411   -1.14063083    1.22123656
     atom   31 type  2   force =     1.28974222    0.18172073   38.13756906
     atom   32 type  2   force =    -0.29444290   -0.01316204  -38.29776457
     atom   33 type  1   force =     0.99982657   -0.96648176    1.43847041
     atom   34 type  2   force =     0.57250638   -1.41991805   38.26173323
     atom   35 type  2   force =     0.08472980    0.06143666  -38.28706547
     atom   36 type  3   force =    -0.11000913    0.13289438   50.50740252
     The local contribution  to forces
     atom    1 type  1   force =     1.10738738   -1.25028175    1.40087741
     atom    2 type  2   force =     0.22063012    0.10299259  -28.92586446
     atom    3 type  2   force =    -0.05754777    0.10529036   37.89758113
     atom    4 type  1   force =     0.14598783   -1.24885901    0.73566158
     atom    5 type  2   force =     1.32316767   -2.12578918  -37.54782553
     atom    6 type  2   force =    -0.17373181    0.17661431   38.51852753
     atom    7 type  1   force =     2.78302971    2.34303379   -1.42744777
     atom    8 type  2   force =     1.18154146   -0.18640700  -37.66671754
     atom    9 type  2   force =    -0.34727457    0.02084766   38.03357041
     atom   10 type  1   force =     0.42825591    1.54506692    1.16697256
     atom   11 type  2   force =     0.99100529    2.30528270  -37.64541142
     atom   12 type  2   force =    -0.14004912   -0.21577984   38.52676428
     atom   13 type  1   force =    -0.14283604   -1.04679525   -1.39835476
     atom   14 type  2   force =     0.99667872    0.16512921  -37.62660002
     atom   15 type  2   force =     0.06704257    0.12014670   38.07635713
     atom   16 type  1   force =     0.37223844   -3.87906321   -1.01287157
     atom   17 type  2   force =    -0.81760239   -1.41137841  -37.83012105
     atom   18 type  2   force =     0.20104656    0.24806811   38.11101384
     atom   19 type  1   force =    -2.62451680    1.98449881   -1.85550794
     atom   20 type  2   force =     0.05876145    0.06133471   38.90861079
     atom   21 type  1   force =     0.57445813    0.77715579    0.69708742
     atom   22 type  2   force =    -0.44397863    1.68108279  -37.95991281
     atom   23 type  2   force =     0.21882779   -0.18803392   38.12323177
     atom   24 type  1   force =    -0.97470402   -0.91881668    1.84431532
     atom   25 type  2   force =    -1.15949795    0.02796260  -37.89129191
     atom   26 type  2   force =    -0.00715967    0.10818192   38.04819954
     atom   27 type  1   force =    -0.54142004   -0.86669527    0.11765476
     atom   28 type  2   force =    -0.50420257   -1.50615503  -37.37042796
     atom   29 type  2   force =    -0.01668997   -0.07686212   38.18090362
     atom   30 type  1   force =    -0.19106417    1.12320422   -1.22510606
     atom   31 type  2   force =    -1.28082732   -0.18248418  -37.89082213
     atom   32 type  2   force =     0.28794025    0.02489440   38.04977810
     atom   33 type  1   force =    -0.99663491    0.96054696   -1.44075299
     atom   34 type  2   force =    -0.57053722    1.42631119  -38.00437380
     atom   35 type  2   force =    -0.08396631   -0.04867681   38.04296331
     atom   36 type  3   force =     0.13008563   -0.11341360  -48.20700624
     The core correction contribution to forces
     atom    1 type  1   force =     0.00000000    0.00000000    0.00000000
     atom    2 type  2   force =    -0.00035590   -0.00028644   -0.00967623
     atom    3 type  2   force =     0.00013331    0.00047926   -0.02134380
     atom    4 type  1   force =     0.00000000    0.00000000    0.00000000
     atom    5 type  2   force =    -0.00038956    0.00095419    0.02068238
     atom    6 type  2   force =     0.00016579   -0.00027721   -0.02083008
     atom    7 type  1   force =     0.00000000    0.00000000    0.00000000
     atom    8 type  2   force =    -0.00040689    0.00026582    0.02095609
     atom    9 type  2   force =     0.00069507    0.00072660   -0.02101910
     atom   10 type  1   force =     0.00000000    0.00000000    0.00000000
     atom   11 type  2   force =    -0.00019436   -0.00023989    0.02091765
     atom   12 type  2   force =     0.00058970    0.00099053   -0.02088740
     atom   13 type  1   force =     0.00000000    0.00000000    0.00000000
     atom   14 type  2   force =     0.00009147   -0.00020217    0.02138750
     atom   15 type  2   force =     0.00008389    0.00047317   -0.02058167
     atom   16 type  1   force =     0.00000000    0.00000000    0.00000000
     atom   17 type  2   force =     0.00041531    0.00105529    0.02058155
     atom   18 type  2   force =    -0.00017853   -0.00022218   -0.02089791
     atom   19 type  1   force =     0.00000000    0.00000000    0.00000000
     atom   20 type  2   force =     0.00004225    0.00055665   -0.02122967
     atom   21 type  1   force =     0.00000000    0.00000000    0.00000000
     atom   22 type  2   force =     0.00010137   -0.00029992    0.02073526
     atom   23 type  2   force =    -0.00071113    0.00093124   -0.02089509
     atom   24 type  1   force =     0.00000000    0.00000000    0.00000000
     atom   25 type  2   force =    -0.00010676    0.00021301    0.02132176
     atom   26 type  2   force =    -0.00019431    0.00036936   -0.02077030
     atom   27 type  1   force =     0.00000000    0.00000000    0.00000000
     atom   28 type  2   force =    -0.00005089    0.00082799    0.02147804
     atom   29 type  2   force =    -0.00000615    0.00033164   -0.02080796
     atom   30 type  1   force =     0.00000000    0.00000000    0.00000000
     atom   31 type  2   force =     0.00050408    0.00028300    0.02100273
     atom   32 type  2   force =    -0.00069243    0.00065576   -0.02100270
     atom   33 type  1   force =     0.00000000    0.00000000    0.00000000
     atom   34 type  2   force =     0.00008807    0.00027255    0.02160582
     atom   35 type  2   force =     0.00009925    0.00075700   -0.02091775
     atom   36 type  3   force =     0.00021618    0.00019303    0.02461957
     The Hubbard contrib.    to forces
     atom    1 type  1   force =     0.00000000    0.00000000    0.00000000
     atom    2 type  2   force =     0.00000000    0.00000000    0.00000000
     atom    3 type  2   force =     0.00000000    0.00000000    0.00000000
     atom    4 type  1   force =     0.00000000    0.00000000    0.00000000
     atom    5 type  2   force =     0.00000000    0.00000000    0.00000000
     atom    6 type  2   force =     0.00000000    0.00000000    0.00000000
     atom    7 type  1   force =     0.00000000    0.00000000    0.00000000
     atom    8 type  2   force =     0.00000000    0.00000000    0.00000000
     atom    9 type  2   force =     0.00000000    0.00000000    0.00000000
     atom   10 type  1   force =     0.00000000    0.00000000    0.00000000
     atom   11 type  2   force =     0.00000000    0.00000000    0.00000000
     atom   12 type  2   force =     0.00000000    0.00000000    0.00000000
     atom   13 type  1   force =     0.00000000    0.00000000    0.00000000
     atom   14 type  2   force =     0.00000000    0.00000000    0.00000000
     atom   15 type  2   force =     0.00000000    0.00000000    0.00000000
     atom   16 type  1   force =     0.00000000    0.00000000    0.00000000
     atom   17 type  2   force =     0.00000000    0.00000000    0.00000000
     atom   18 type  2   force =     0.00000000    0.00000000    0.00000000
     atom   19 type  1   force =     0.00000000    0.00000000    0.00000000
     atom   20 type  2   force =     0.00000000    0.00000000    0.00000000
     atom   21 type  1   force =     0.00000000    0.00000000    0.00000000
     atom   22 type  2   force =     0.00000000    0.00000000    0.00000000
     atom   23 type  2   force =     0.00000000    0.00000000    0.00000000
     atom   24 type  1   force =     0.00000000    0.00000000    0.00000000
     atom   25 type  2   force =     0.00000000    0.00000000    0.00000000
     atom   26 type  2   force =     0.00000000    0.00000000    0.00000000
     atom   27 type  1   force =     0.00000000    0.00000000    0.00000000
     atom   28 type  2   force =     0.00000000    0.00000000    0.00000000
     atom   29 type  2   force =     0.00000000    0.00000000    0.00000000
     atom   30 type  1   force =     0.00000000    0.00000000    0.00000000
     atom   31 type  2   force =     0.00000000    0.00000000    0.00000000
     atom   32 type  2   force =     0.00000000    0.00000000    0.00000000
     atom   33 type  1   force =     0.00000000    0.00000000    0.00000000
     atom   34 type  2   force =     0.00000000    0.00000000    0.00000000
     atom   35 type  2   force =     0.00000000    0.00000000    0.00000000
     atom   36 type  3   force =     0.00000000    0.00000000    0.00000000
     The SCF correction term to forces
     atom    1 type  1   force =    -0.00002702    0.00003897   -0.00005148
     atom    2 type  2   force =    -0.00000408    0.00001178   -0.00002380
     atom    3 type  2   force =    -0.00000098    0.00000432   -0.00001947
     atom    4 type  1   force =     0.00000482    0.00001196   -0.00005229
     atom    5 type  2   force =    -0.00001006    0.00000884   -0.00001955
     atom    6 type  2   force =    -0.00000432    0.00001475   -0.00001064
     atom    7 type  1   force =    -0.00002285   -0.00002564   -0.00008951
     atom    8 type  2   force =     0.00001039   -0.00001728   -0.00002151
     atom    9 type  2   force =     0.00000171   -0.00000571   -0.00002210
     atom   10 type  1   force =    -0.00000459   -0.00002454   -0.00008791
     atom   11 type  2   force =    -0.00001033   -0.00000294   -0.00001861
     atom   12 type  2   force =    -0.00000717   -0.00000853   -0.00003089
     atom   13 type  1   force =     0.00000732    0.00002461   -0.00003271
     atom   14 type  2   force =    -0.00001614    0.00001225   -0.00001689
     atom   15 type  2   force =    -0.00001119   -0.00000313   -0.00001239
     atom   16 type  1   force =    -0.00001611    0.00001031   -0.00004006
     atom   17 type  2   force =    -0.00000399    0.00000264   -0.00001749
     atom   18 type  2   force =     0.00000221    0.00000992    0.00000047
     atom   19 type  1   force =    -0.00001960   -0.00002668   -0.00006212
     atom   20 type  2   force =    -0.00000606    0.00000072   -0.00002223
     atom   21 type  1   force =    -0.00002227   -0.00000713   -0.00006594
     atom   22 type  2   force =    -0.00000446   -0.00000503   -0.00002624
     atom   23 type  2   force =     0.00000317   -0.00001233   -0.00001626
     atom   24 type  1   force =     0.00003617    0.00003254   -0.00004737
     atom   25 type  2   force =     0.00000675    0.00001721   -0.00002823
     atom   26 type  2   force =     0.00000469    0.00000374   -0.00000229
     atom   27 type  1   force =     0.00001150    0.00000824   -0.00003173
     atom   28 type  2   force =     0.00001300    0.00000658   -0.00002505
     atom   29 type  2   force =     0.00000355    0.00000885   -0.00000014
     atom   30 type  1   force =     0.00001189   -0.00003199   -0.00006303
     atom   31 type  2   force =     0.00000867   -0.00001350   -0.00002484
     atom   32 type  2   force =     0.00001080   -0.00000017   -0.00000839
     atom   33 type  1   force =     0.00002572   -0.00000828   -0.00006358
     atom   34 type  2   force =     0.00001411   -0.00001077   -0.00002484
     atom   35 type  2   force =     0.00000459   -0.00001093   -0.00001791
     atom   36 type  3   force =    -0.00002485    0.00000560    0.00000758

     Total force =     0.007362     Total SCF correction =     0.000261
     Energy error            =      9.7E-05 Ry
     Gradient error          =      3.8E-03 Ry/Bohr

     bfgs converged in  26 scf cycles and  25 bfgs steps
     (criteria: energy <  1.0E-04 Ry, force <  1.0E-02 Ry/Bohr)

     End of BFGS Geometry Optimization

     Final energy             =   -2246.4498130960 Ry

     File ./MoS2-V-O.bfgs deleted, as requested
Begin final coordinates

ATOMIC_POSITIONS (angstrom)
Mo            6.5201012745        1.7548377449        2.7399385617
S             8.1133088464        0.8275382496        4.2641984948
S             8.1222210177        0.8259862348        1.1773509586
Mo            8.1002357060        4.4708187821        2.7092393952
S             6.4945890734        3.6463481319        4.3086607968
S             6.5269519680        3.5591802475        1.0983900385
Mo            6.4893162664        7.1625845505        2.6580732882
S             8.0578906294        6.2819206264        4.2948476181
S             8.1206317859        6.3048964180        1.1111312153
Mo            8.1158070279        9.8843682104        2.7455222232
S             6.4980746550        8.9226959960        4.3126686765
S             6.5558311855        8.9981357566        1.1017489501
Mo            3.4073267279        1.7210505455        2.7546992671
S             4.9832398673        0.7901777064        4.3366927458
S             4.9683849538        0.8124198094        1.1520646719
Mo            4.9710257744        4.5209181282        2.6531658799
S             3.4443677794        3.6366136235        4.3066571580
S             3.4114296283        3.5353852018        1.1139796119
Mo            3.4540907219        7.1570418588        2.6623429915
S             4.9720531828        6.2901355768        1.0337458971
Mo            4.9748445643        9.8838989897        2.7154290846
S             3.4484529536        8.9257885681        4.3129800735
S             3.3753224291        9.0030029666        1.1187140651
Mo            0.2704301424        1.7458606000        2.7436344106
S             1.8300143945        0.8265327040        4.3593043554
S             1.8382879387        0.8112797782        1.1596899954
Mo            1.8438500849        4.4753399512        2.7123152479
S             0.2453535846        3.5893298478        4.3194393716
S             0.2501884226        3.5607864012        1.1311322223
Mo            0.2505480347        7.1950832980        2.7348734004
S             1.8916488172        6.2840786744        4.3023095545
S             1.8304439448        6.3019686162        1.1115297683
Mo            1.8271200122        9.9121276752        2.7605138591
S             0.2400944147        9.0018413858        4.3583756211
S             0.2577749510        9.0147037879        1.1536514673
O             8.1263520287        0.8462697671        5.7617366395
End final coordinates



     Writing all to output data dir ./MoS2-V-O.save/
 
     init_run     :      4.59s CPU      5.07s WALL (       1 calls)
     electrons    :   2436.35s CPU   2754.16s WALL (      26 calls)
     update_pot   :     76.42s CPU     81.43s WALL (      25 calls)
     forces       :     70.98s CPU     80.90s WALL (      26 calls)

     Called by init_run:
     wfcinit      :      0.48s CPU      0.53s WALL (       1 calls)
     potinit      :      2.36s CPU      2.59s WALL (       1 calls)
     hinit0       :      0.43s CPU      0.46s WALL (       1 calls)

     Called by electrons:
     c_bands      :    350.32s CPU    358.60s WALL (     246 calls)
     sum_band     :    137.94s CPU    177.45s WALL (     246 calls)
     v_of_rho     :    231.37s CPU    280.97s WALL (     264 calls)
     newd         :     81.92s CPU    119.17s WALL (     264 calls)
     PAW_pot      :     10.50s CPU     10.54s WALL (     289 calls)
     mix_rho      :   1650.32s CPU   1835.76s WALL (     246 calls)

     Called by c_bands:
     init_us_2    :      5.66s CPU      6.07s WALL (     518 calls)
     init_us_2:cp :      5.66s CPU      6.07s WALL (     518 calls)
     regterg      :    331.87s CPU    339.71s WALL (     246 calls)

     Called by *egterg:
     rdiaghg      :     22.78s CPU     23.00s WALL (    1302 calls)
     h_psi        :    215.40s CPU    217.30s WALL (    1336 calls)
     s_psi        :     20.50s CPU     20.57s WALL (    1336 calls)
     g_psi        :      1.04s CPU      1.06s WALL (    1089 calls)

     Called by h_psi:
     h_psi:calbec :     23.20s CPU     23.32s WALL (    1336 calls)
     vloc_psi     :    169.25s CPU    170.91s WALL (    1336 calls)
     add_vuspsi   :     20.26s CPU     20.36s WALL (    1336 calls)

     General routines
     calbec       :     33.54s CPU     33.72s WALL (    1711 calls)
     fft          :    157.77s CPU    182.96s WALL (   17619 calls)
     ffts         :    740.72s CPU    919.50s WALL (  405158 calls)
     fftw         :    108.45s CPU    109.41s WALL (  150022 calls)
     interpolate  :      3.31s CPU      3.80s WALL (     264 calls)
 
     Parallel routines
 
     PWSCF        :  43m19.65s CPU  48m58.05s WALL

 
   This run was terminated on:  22:15:18   1Nov2023            

=------------------------------------------------------------------------------=
   JOB DONE.
=------------------------------------------------------------------------------=
