
     Program PWSCF v.7.2 starts on  1Nov2023 at 23:26:22 

     This program is part of the open-source Quantum ESPRESSO suite
     for quantum simulation of materials; please cite
         "P. Giannozzi et al., J. Phys.:Condens. Matter 21 395502 (2009);
         "P. Giannozzi et al., J. Phys.:Condens. Matter 29 465901 (2017);
         "P. Giannozzi et al., J. Chem. Phys. 152 154105 (2020);
          URL http://www.quantum-espresso.org", 
     in publications or presentations arising from this work. More details at
     http://www.quantum-espresso.org/quote

     Parallel version (MPI & OpenMP), running on      48 processor cores
     Number of MPI processes:                48
     Threads/MPI process:                     1

     MPI processes distributed on     1 nodes
     149110 MiB available memory on the printing compute node when the environment starts
 
     Waiting for input...
     Reading input from standard input
Warning: card &CELL ignored
Warning: card CELL_DYNAMICS = 'BFGS', ignored
Warning: card CELL_DOFREE = '2DXY' ignored
Warning: card / ignored

     Current dimensions of program PWSCF are:
     Max number of different atomic species (ntypx) = 10
     Max number of k-points (npk) =  40000
     Max angular momentum in pseudopotentials (lmaxx) =  4
     file O.pbe-n-kjpaw_psl.0.1.UPF: wavefunction(s)  2P renormalized

     IMPORTANT: XC functional enforced from input :
     Exchange-correlation= RVV10
                           (   1   4  13   4  26   0   0)
     Any further DFT definition will be discarded
     Please, verify this is what you really want


     gamma-point specific algorithms are used
     signal trapping enabled: kill the code with -SIGUSR1 to stop cleanly the simulation 
 
     R & G space division:  proc/nbgrp/npool/nimage =      48
     Subspace diagonalization in iterative solution of the eigenvalue problem:
     one sub-group per band group will be used
     scalapack distributed-memory algorithm (size of sub-group:  2*  2 procs)

 
     Parallelization info
     --------------------
     sticks:   dense  smooth     PW     G-vecs:    dense   smooth      PW
     Min         396     194     47               101632    35090    4376
     Max         398     196     50               101674    35128    4410
     Sum       19091    9389   2349              4879585  1685513  210763
 
     Using Slab Decomposition
 


     bravais-lattice index     =            0
     lattice parameter (alat)  =      17.8707  a.u.
     unit-cell volume          =   17436.2743 (a.u.)^3
     number of atoms/cell      =           36
     number of atomic types    =            3
     number of electrons       =       312.00
     number of Kohn-Sham states=          187
     kinetic-energy cutoff     =      80.0000  Ry
     charge density cutoff     =     650.0000  Ry
     scf convergence threshold =      1.0E-06
     mixing beta               =       0.7000
     number of iterations used =            8  local-TF  mixing
     energy convergence thresh.=      1.0E-04
     force convergence thresh. =      1.0E-02
     Exchange-correlation= RVV10
                           (   1   4  13   4  26   0   0)
     nstep                     =          200


     celldm(1)=  17.870686  celldm(2)=   0.000000  celldm(3)=   0.000000
     celldm(4)=   0.000000  celldm(5)=   0.000000  celldm(6)=   0.000000

     crystal axes: (cart. coord. in units of alat)
               a(1) = (   1.000000   0.000000   0.000000 )  
               a(2) = (   0.000000   1.155671   0.000000 )  
               a(3) = (   0.000000   0.000000   2.643601 )  

     reciprocal axes: (cart. coord. in units 2 pi/alat)
               b(1) = (  1.000000  0.000000  0.000000 )  
               b(2) = (  0.000000  0.865298  0.000000 )  
               b(3) = (  0.000000  0.000000  0.378272 )  


     PseudoPot. # 1 for Mo read from file:
     ../pseudo/Mo_ONCV_PBE-1.0.oncvpsp.upf
     MD5 check sum: 1b5d28e075c9ccadda658a603575cd1f
     Pseudo is Norm-conserving, Zval = 14.0
     Generated using ONCVPSP code by D. R. Hamann
     Using radial grid of 1526 points,  6 beta functions with: 
                l(1) =   0
                l(2) =   0
                l(3) =   1
                l(4) =   1
                l(5) =   2
                l(6) =   2

     PseudoPot. # 2 for S  read from file:
     ../pseudo/s_pbe_v1.4.uspp.F.UPF
     MD5 check sum: 88d86576ff6df21479756cfb9bdac1df
     Pseudo is Ultrasoft + core correction, Zval =  6.0
     Generated by new atomic code, or converted to UPF format
     Using radial grid of  907 points,  6 beta functions with: 
                l(1) =   0
                l(2) =   0
                l(3) =   1
                l(4) =   1
                l(5) =   2
                l(6) =   2
     Q(r) pseudized with  8 coefficients,  rinner =    1.300   1.300   1.300
                                                       1.300   1.300

     PseudoPot. # 3 for O  read from file:
     ../pseudo/O.pbe-n-kjpaw_psl.0.1.UPF
     MD5 check sum: 0234752ac141de4415c5fc33072bef88
     Pseudo is Projector augmented-wave + core cor, Zval =  6.0
     Generated using "atomic" code by A. Dal Corso  v.5.0.99 svn rev. 10869
     Shape of augmentation charge: BESSEL
     Using radial grid of 1095 points,  4 beta functions with: 
                l(1) =   0
                l(2) =   0
                l(3) =   1
                l(4) =   1
     Q(r) pseudized with 0 coefficients 


     atomic species   valence    mass     pseudopotential
        Mo            14.00    95.94000     Mo( 1.00)
        S              6.00    32.06500     S ( 1.00)
        O              6.00    15.99940     O ( 1.00)

     No symmetry found



   Cartesian axes

     site n.     atom                  positions (alat units)
         1           Mo  tau(   1) = (   0.6952221   0.1890506   0.2985846  )
         2           S   tau(   2) = (   0.8646417   0.0856217   0.4689279  )
         3           S   tau(   3) = (   0.8663890   0.0857843   0.1351291  )
         4           Mo  tau(   4) = (   0.8560186   0.4753274   0.2873942  )
         5           S   tau(   5) = (   0.6873294   0.3936244   0.4596353  )
         6           S   tau(   6) = (   0.6929804   0.3713468   0.1185692  )
         7           Mo  tau(   7) = (   0.6862796   0.7633098   0.2825370  )
         8           S   tau(   8) = (   0.8545980   0.6708292   0.4486168  )
         9           S   tau(   9) = (   0.8545123   0.6666874   0.1146125  )
        10           Mo  tau(  10) = (   0.8629403   1.0471007   0.3006803  )
        11           S   tau(  11) = (   0.6868280   0.9456650   0.4634891  )
        12           S   tau(  12) = (   0.6998113   0.9568511   0.1205389  )
        13           Mo  tau(  13) = (   0.3618216   0.1847309   0.2935964  )
        14           S   tau(  14) = (   0.5260962   0.0863870   0.4600448  )
        15           S   tau(  15) = (   0.5348379   0.0894875   0.1297123  )
        16           Mo  tau(  16) = (   0.5265817   0.4772436   0.2784130  )
        17           S   tau(  17) = (   0.3624753   0.3882513   0.4525556  )
        18           S   tau(  18) = (   0.3635411   0.3752055   0.1119148  )
        19           Mo  tau(  19) = (   0.3652268   0.7630864   0.2781795  )
        20           S   tau(  20) = (   0.5269494   0.6690381   0.1096838  )
        21           Mo  tau(  21) = (   0.5300192   1.0470394   0.2900995  )
        22           S   tau(  22) = (   0.3670346   0.9457522   0.4574073  )
        23           S   tau(  23) = (   0.3604225   0.9585725   0.1159032  )
        24           Mo  tau(  24) = (   0.0313099   0.1847895   0.3013130  )
        25           S   tau(  25) = (   0.1956761   0.0838230   0.4650863  )
        26           S   tau(  26) = (   0.1967693   0.0903508   0.1278874  )
        27           Mo  tau(  27) = (   0.1967578   0.4753919   0.2813011  )
        28           S   tau(  28) = (   0.0287851   0.3864324   0.4586755  )
        29           S   tau(  29) = (   0.0244514   0.3729871   0.1239344  )
        30           Mo  tau(  30) = (   0.0286728   0.7631204   0.2856894  )
        31           S   tau(  31) = (   0.2011512   0.6675435   0.4465001  )
        32           S   tau(  32) = (   0.1969214   0.6672839   0.1104564  )
        33           Mo  tau(  33) = (   0.1950294   1.0511147   0.2932237  )
        34           S   tau(  34) = (   0.0312912   0.9612169   0.4667423  )
        35           S   tau(  35) = (   0.0292670   0.9563028   0.1216485  )
        36           O   tau(  36) = (   0.6666667   1.1556707   0.5391074  )

     number of k points=     1  Gaussian smearing, width (Ry)=  0.0100
                       cart. coord. in units 2pi/alat
        k(    1) = (   0.0000000   0.0000000   0.0000000), wk =   2.0000000

     Dense  grid:  2439793 G-vectors     FFT dimensions: ( 150, 180, 384)

     Smooth grid:   842757 G-vectors     FFT dimensions: ( 108, 120, 270)

     Estimated max dynamical RAM per process >     269.22 MB

     Estimated total dynamical RAM >      12.62 GB

     Initial potential from superposition of free atoms

     starting charge     311.9873, renormalised to     312.0000

     negative rho (up, down):  2.740E-04 0.000E+00


---------------------------------------------------------------------------------
Carrying out rVV10 run using the following parameters:
Nqs =      20    Nr_points =    1024   r_max =   100.000
b_value =  6.30000    beta =  0.00901
     q_mesh =  0.00010000  0.00030000  0.00058939  0.00100810
               0.00161396  0.00249058  0.00375900  0.00559430
               0.00824984  0.01209221  0.01765183  0.02569619
               0.03733578  0.05417739  0.07854596  0.11380545
               0.16482331  0.23864234  0.34545298  0.50000000

Gradients computed in Reciprocal space

---------------------------------------------------------------------------------


     Starting wfcs are  216 randomized atomic wfcs
     Checking if some PAW data can be deallocated... 

     total cpu time spent up to now is        5.1 secs

     Self-consistent Calculation

     iteration #  1     ecut=    80.00 Ry     beta= 0.70
     Davidson diagonalization with overlap
     ethr =  1.00E-02,  avg # of iterations =  2.0

     Threshold (ethr) on eigenvalues was too large:
     Diagonalizing with lowered threshold

     Davidson diagonalization with overlap
     ethr =  4.39E-04,  avg # of iterations =  4.0

     negative rho (up, down):  3.443E-08 0.000E+00

     total cpu time spent up to now is       17.9 secs

     total energy              =   -2246.11892814 Ry
     estimated scf accuracy    <       1.62756592 Ry

     iteration #  2     ecut=    80.00 Ry     beta= 0.70
     Davidson diagonalization with overlap
     ethr =  5.22E-04,  avg # of iterations =  4.0

     total cpu time spent up to now is       22.7 secs

     total energy              =   -2246.11379211 Ry
     estimated scf accuracy    <       0.73744628 Ry

     iteration #  3     ecut=    80.00 Ry     beta= 0.70
     Davidson diagonalization with overlap
     ethr =  2.36E-04,  avg # of iterations =  4.0

     total cpu time spent up to now is       26.4 secs

     total energy              =   -2246.09404923 Ry
     estimated scf accuracy    <       0.26475161 Ry

     iteration #  4     ecut=    80.00 Ry     beta= 0.70
     Davidson diagonalization with overlap
     ethr =  8.49E-05,  avg # of iterations =  9.0

     total cpu time spent up to now is       30.5 secs

     total energy              =   -2246.13903590 Ry
     estimated scf accuracy    <       0.04036723 Ry

     iteration #  5     ecut=    80.00 Ry     beta= 0.70
     Davidson diagonalization with overlap
     ethr =  1.29E-05,  avg # of iterations = 18.0

     total cpu time spent up to now is       35.0 secs

     total energy              =   -2246.14042151 Ry
     estimated scf accuracy    <       0.01981224 Ry

     iteration #  6     ecut=    80.00 Ry     beta= 0.70
     Davidson diagonalization with overlap
     ethr =  6.35E-06,  avg # of iterations =  2.0

     total cpu time spent up to now is       38.5 secs

     total energy              =   -2246.13988223 Ry
     estimated scf accuracy    <       0.01424832 Ry

     iteration #  7     ecut=    80.00 Ry     beta= 0.70
     Davidson diagonalization with overlap
     ethr =  4.57E-06,  avg # of iterations =  1.0

     total cpu time spent up to now is       41.8 secs

     total energy              =   -2246.13877279 Ry
     estimated scf accuracy    <       0.00892802 Ry

     iteration #  8     ecut=    80.00 Ry     beta= 0.70
     Davidson diagonalization with overlap
     ethr =  2.86E-06,  avg # of iterations =  2.0

     negative rho (up, down):  1.707E-03 0.000E+00

     total cpu time spent up to now is       48.0 secs

     total energy              =   -2246.13733924 Ry
     estimated scf accuracy    <       0.00509565 Ry

     iteration #  9     ecut=    80.00 Ry     beta= 0.70
     Davidson diagonalization with overlap
     ethr =  1.63E-06,  avg # of iterations =  2.0

     negative rho (up, down):  1.511E-02 0.000E+00

     total cpu time spent up to now is       54.4 secs

     total energy              =   -2246.13721729 Ry
     estimated scf accuracy    <       0.00271539 Ry

     iteration # 10     ecut=    80.00 Ry     beta= 0.70
     Davidson diagonalization with overlap
     ethr =  8.70E-07,  avg # of iterations =  2.0

     negative rho (up, down):  2.447E-02 0.000E+00

     total cpu time spent up to now is       60.7 secs

     total energy              =   -2246.13712929 Ry
     estimated scf accuracy    <       0.00142139 Ry

     iteration # 11     ecut=    80.00 Ry     beta= 0.70
     Davidson diagonalization with overlap
     ethr =  4.56E-07,  avg # of iterations =  2.0

     negative rho (up, down):  2.221E-02 0.000E+00

     total cpu time spent up to now is       68.3 secs

     total energy              =   -2246.13718551 Ry
     estimated scf accuracy    <       0.00050662 Ry

     iteration # 12     ecut=    80.00 Ry     beta= 0.70
     Davidson diagonalization with overlap
     ethr =  1.62E-07,  avg # of iterations =  2.0

     negative rho (up, down):  6.245E-03 0.000E+00

     total cpu time spent up to now is       74.6 secs

     total energy              =   -2246.13716879 Ry
     estimated scf accuracy    <       0.00008493 Ry

     iteration # 13     ecut=    80.00 Ry     beta= 0.70
     Davidson diagonalization with overlap
     ethr =  2.72E-08,  avg # of iterations =  9.0

     negative rho (up, down):  2.800E-03 0.000E+00

     total cpu time spent up to now is       82.6 secs

     total energy              =   -2246.13722226 Ry
     estimated scf accuracy    <       0.00001562 Ry

     iteration # 14     ecut=    80.00 Ry     beta= 0.70
     Davidson diagonalization with overlap
     ethr =  5.01E-09,  avg # of iterations =  2.0

     negative rho (up, down):  6.921E-04 0.000E+00

     total cpu time spent up to now is       92.4 secs

     total energy              =   -2246.13722916 Ry
     estimated scf accuracy    <       0.00000270 Ry

     iteration # 15     ecut=    80.00 Ry     beta= 0.70
     Davidson diagonalization with overlap
     ethr =  8.67E-10,  avg # of iterations =  5.0

     negative rho (up, down):  3.500E-04 0.000E+00

     total cpu time spent up to now is      101.6 secs

     total energy              =   -2246.13722948 Ry
     estimated scf accuracy    <       0.00000148 Ry

     iteration # 16     ecut=    80.00 Ry     beta= 0.70
     Davidson diagonalization with overlap
     ethr =  4.73E-10,  avg # of iterations =  2.0

     negative rho (up, down):  2.149E-04 0.000E+00

     total cpu time spent up to now is      104.8 secs

     End of self-consistent calculation

          k = 0.0000 0.0000 0.0000 (105382 PWs)   bands (ev):

   -62.9661 -62.9211 -62.8980 -62.8683 -62.8541 -62.8518 -62.8430 -62.8346
   -62.8299 -62.8217 -62.7752 -62.7440 -37.2899 -37.2331 -37.2148 -37.1827
   -37.1787 -37.1486 -37.1306 -37.1182 -37.1024 -37.0951 -37.0884 -37.0726
   -37.0708 -37.0562 -37.0546 -37.0346 -37.0247 -37.0202 -37.0112 -37.0058
   -36.9950 -36.9897 -36.9844 -36.9774 -36.9655 -36.9476 -36.9417 -36.9366
   -36.9173 -36.9028 -36.9006 -36.8695 -36.8580 -36.8105 -36.8045 -36.7439
   -21.1509 -15.9472 -15.3449 -15.1637 -15.0789 -14.9842 -14.7760 -14.7361
   -14.5496 -14.5308 -14.4997 -14.4536 -14.4112 -14.3454 -14.2680 -14.2407
   -14.1639 -14.1415 -14.1274 -13.9495 -13.9005 -13.8925 -13.8455 -13.6809
    -8.3801  -7.8956  -7.6641  -7.5127  -7.3461  -7.3176  -7.2807  -7.2590
    -7.1640  -7.1138  -6.8944  -6.8522  -6.7654  -6.7149  -6.6919  -6.5989
    -6.4921  -6.4471  -6.3965  -6.3227  -6.1895  -6.0788  -5.9770  -5.9240
    -5.8619  -5.8200  -5.7908  -5.7348  -5.6944  -5.6747  -5.6445  -5.5718
    -5.5199  -5.4609  -5.4355  -5.3627  -5.2751  -5.1674  -5.1094  -5.0298
    -4.9924  -4.9669  -4.8788  -4.8177  -4.6258  -4.5672  -4.4228  -4.3466
    -4.3333  -4.2551  -4.1409  -4.1171  -4.0435  -3.9756  -3.8813  -3.7704
    -3.7322  -3.7159  -3.6813  -3.6091  -3.5710  -3.5529  -3.5264  -3.5111
    -3.4806  -3.4169  -3.3136  -3.2515  -3.0185  -2.9531  -2.8560  -2.8397
    -2.7914  -2.7859  -2.7163  -2.7058  -2.6711  -2.6207  -2.3392  -2.2340
    -2.0509  -1.9908  -1.7632  -1.6658  -1.4381  -0.8322  -0.7682  -0.1779
    -0.1593  -0.1459  -0.0400   0.0126   0.0904   0.1440   0.1932   0.2209
     0.2304   0.3337   0.3965   0.4646   0.5052   0.5195   0.5427   0.6155
     0.6226   0.6883   0.7458   0.7590   0.7669   0.8438   0.8934   0.9302
     1.0005   1.0214   1.2232

     the Fermi energy is    -1.5488 ev

!    total energy              =   -2246.13723019 Ry
     estimated scf accuracy    <       0.00000036 Ry
     smearing contrib. (-TS)   =      -0.00607470 Ry
     internal energy E=F+TS    =   -2246.13115549 Ry

     The total energy is F=E-TS. E is the sum of the following terms:
     one-electron contribution =  -18502.89474864 Ry
     hartree contribution      =    9240.00370979 Ry
     xc contribution           =    -392.08982297 Ry
     ewald contribution        =    7418.72020551 Ry
     one-center paw contrib.   =      -9.87049917 Ry

     convergence has been achieved in  16 iterations

     negative rho (up, down):  2.149E-04 0.000E+00

     Forces acting on atoms (cartesian axes, Ry/au):

     atom    1 type  1   force =     0.01418886    0.00091896   -0.02354788
     atom    2 type  2   force =     0.03184358    0.03747486   -0.02208700
     atom    3 type  2   force =    -0.00984077    0.00877177   -0.00139908
     atom    4 type  1   force =     0.00364976    0.00297919    0.00179916
     atom    5 type  2   force =    -0.00008817   -0.00749168   -0.00326988
     atom    6 type  2   force =     0.00182908    0.01111883    0.00115541
     atom    7 type  1   force =     0.00936561   -0.03409282   -0.01348304
     atom    8 type  2   force =    -0.00152535    0.00049990    0.01645970
     atom    9 type  2   force =     0.01214515    0.00762272    0.01046302
     atom   10 type  1   force =    -0.00567815    0.01169991   -0.03116342
     atom   11 type  2   force =     0.01069208   -0.02715875   -0.02240414
     atom   12 type  2   force =    -0.00016151    0.00125598    0.00692360
     atom   13 type  1   force =    -0.00866880    0.02952354   -0.02699846
     atom   14 type  2   force =     0.07417360   -0.05037257    0.04710369
     atom   15 type  2   force =    -0.01363748    0.00351260   -0.01110621
     atom   16 type  1   force =    -0.00089824    0.00438270    0.00252165
     atom   17 type  2   force =     0.00446123    0.00327990    0.00259583
     atom   18 type  2   force =    -0.00417552   -0.01082356    0.01222904
     atom   19 type  1   force =     0.00004450   -0.01085898   -0.00449619
     atom   20 type  2   force =     0.00084661   -0.00372575   -0.00246279
     atom   21 type  1   force =    -0.03168807   -0.01154066   -0.04242226
     atom   22 type  2   force =    -0.00308593   -0.00181827    0.00010094
     atom   23 type  2   force =    -0.00113673    0.00164178    0.00981693
     atom   24 type  1   force =     0.00439035   -0.00079526   -0.03275051
     atom   25 type  2   force =     0.00661347    0.01973937    0.00701567
     atom   26 type  2   force =    -0.01024019   -0.00122570   -0.00487141
     atom   27 type  1   force =    -0.00065570    0.00303885    0.00725072
     atom   28 type  2   force =     0.00033566   -0.00270685   -0.00296947
     atom   29 type  2   force =     0.00307762    0.00091684   -0.00446531
     atom   30 type  1   force =    -0.00305316    0.01087622   -0.00247545
     atom   31 type  2   force =     0.00121700    0.00023552    0.01684454
     atom   32 type  2   force =    -0.00833490    0.00725779    0.00795847
     atom   33 type  1   force =     0.01932152   -0.00712244   -0.01039584
     atom   34 type  2   force =     0.00252520   -0.04365399   -0.00731583
     atom   35 type  2   force =    -0.00629563    0.00694403    0.01297239
     atom   36 type  3   force =    -0.09155657    0.03969600    0.10687343
     The non-local contrib.  to forces
     atom    1 type  1   force =    -0.00249371    0.02750549    0.00033478
     atom    2 type  2   force =    -0.05718653   -0.02387190   -0.26141943
     atom    3 type  2   force =    -0.01321487   -0.00478214    0.26432408
     atom    4 type  1   force =     0.00659651    0.00178357    0.00716441
     atom    5 type  2   force =     0.00543404   -0.04150578   -0.25362506
     atom    6 type  2   force =    -0.00136492    0.00901835    0.26363138
     atom    7 type  1   force =    -0.01001422    0.02605250   -0.01928615
     atom    8 type  2   force =     0.00164393   -0.00016696   -0.25098748
     atom    9 type  2   force =     0.00211646   -0.00814120    0.28025520
     atom   10 type  1   force =     0.00770881   -0.00075372   -0.00055363
     atom   11 type  2   force =     0.01307226    0.09418509   -0.21137643
     atom   12 type  2   force =    -0.01108999   -0.01664335    0.26018274
     atom   13 type  1   force =    -0.01214768    0.00824322   -0.01097762
     atom   14 type  2   force =     0.38048036   -0.20660189    0.01788359
     atom   15 type  2   force =    -0.01382312   -0.00435687    0.25896027
     atom   16 type  1   force =     0.00174326    0.03314172   -0.02541810
     atom   17 type  2   force =     0.00164545   -0.02742234   -0.24994391
     atom   18 type  2   force =    -0.00510754   -0.00588892    0.27622251
     atom   19 type  1   force =     0.01006274    0.00080343   -0.01637431
     atom   20 type  2   force =    -0.00187285   -0.02382822    0.26711906
     atom   21 type  1   force =     0.00288692    0.02661176    0.02282434
     atom   22 type  2   force =    -0.00041775    0.00490733   -0.26062059
     atom   23 type  2   force =     0.00736786   -0.01339610    0.26960330
     atom   24 type  1   force =    -0.01582703    0.00468694   -0.00132898
     atom   25 type  2   force =    -0.00187537    0.00355508   -0.25911569
     atom   26 type  2   force =    -0.00084470   -0.01393132    0.26347857
     atom   27 type  1   force =    -0.00786916    0.00961287    0.01059222
     atom   28 type  2   force =    -0.00454093   -0.02309940   -0.27501955
     atom   29 type  2   force =     0.00694386    0.00801196    0.25952271
     atom   30 type  1   force =     0.00136299    0.01904718    0.00883656
     atom   31 type  2   force =    -0.00757848    0.00210042   -0.25382407
     atom   32 type  2   force =    -0.00238968   -0.00721618    0.27361705
     atom   33 type  1   force =    -0.00971097    0.00939410    0.00711407
     atom   34 type  2   force =     0.00209723   -0.03815896   -0.27384896
     atom   35 type  2   force =    -0.00189825   -0.01013098    0.27128647
     atom   36 type  3   force =    -0.87950386    0.57770166   -0.41762363
     The ionic contribution  to forces
     atom    1 type  1   force =     0.85061738    3.39972434    1.14137866
     atom    2 type  2   force =     2.94326061    2.01786861   37.90689499
     atom    3 type  2   force =     0.15700351    0.18272537  -37.17264545
     atom    4 type  1   force =     0.45227787    1.16786672   -0.43655469
     atom    5 type  2   force =    -0.90707736    2.54108774   38.43819505
     atom    6 type  2   force =     0.36667022   -0.22349685  -38.73200227
     atom    7 type  1   force =    -2.53969806   -4.13631580    0.95482399
     atom    8 type  2   force =    -0.77016589   -0.31367119   37.18989934
     atom    9 type  2   force =     0.41721526   -0.14077041  -38.54563647
     atom   10 type  1   force =     1.41414023   -1.82939979    1.86535568
     atom   11 type  2   force =    -0.17724019   -5.67409734   37.60892308
     atom   12 type  2   force =     0.49613217    0.33995413  -38.92581768
     atom   13 type  1   force =    -0.83429726    2.04497135    0.94065987
     atom   14 type  2   force =    -4.96637838    3.12602022   35.58885873
     atom   15 type  2   force =    -0.09946995    0.13562138  -38.02340966
     atom   16 type  1   force =    -0.31721082    4.56649199   -0.69404057
     atom   17 type  2   force =     0.48358096    1.98747675   37.72869073
     atom   18 type  2   force =    -0.26536742   -0.47461651  -39.13408048
     atom   19 type  1   force =     2.24368393   -3.17238207   -0.50317849
     atom   20 type  2   force =     0.16676469   -0.31016655  -39.03640649
     atom   21 type  1   force =    -2.22879207   -1.85322923   -3.69966546
     atom   22 type  2   force =    -0.50815638   -2.53960146   38.04238152
     atom   23 type  2   force =    -0.27874591    0.47086545  -39.02720690
     atom   24 type  1   force =     0.41948278    1.97501200    4.27916907
     atom   25 type  2   force =     0.46389082    0.49244416   39.03038387
     atom   26 type  2   force =    -0.33531456    0.14803573  -38.00782647
     atom   27 type  1   force =    -0.03986752    0.71426134   -3.13094995
     atom   28 type  2   force =     0.30432261    1.40720586   38.03883157
     atom   29 type  2   force =    -0.17554683   -0.26553835  -37.80961326
     atom   30 type  1   force =     0.03417083   -1.52654693   -1.07903098
     atom   31 type  2   force =     1.18353436   -0.21111738   37.18110961
     atom   32 type  2   force =    -0.49521466   -0.07164676  -39.10423136
     atom   33 type  1   force =     0.54960693   -1.26349991    0.63551263
     atom   34 type  2   force =     0.92632166   -2.00361662   39.08897346
     atom   35 type  2   force =    -0.14723383    0.30363214  -38.49391267
     atom   36 type  3   force =     1.21310026   -1.01155214   45.89616748
     The local contribution  to forces
     atom    1 type  1   force =    -0.83397758   -3.42645580   -1.16586480
     atom    2 type  2   force =    -2.85607680   -1.95741266  -37.68822089
     atom    3 type  2   force =    -0.15425105   -0.16931294   36.92726355
     atom    4 type  1   force =    -0.45530262   -1.16670735    0.43040516
     atom    5 type  2   force =     0.90203786   -2.50941282  -38.20847514
     atom    6 type  2   force =    -0.36380527    0.22658802   38.49013820
     atom    7 type  1   force =     2.55908256    4.07634614   -0.94970780
     atom    8 type  2   force =     0.76695208    0.31405833  -36.94298026
     atom    9 type  2   force =    -0.40728772    0.15608208   38.29665889
     atom   10 type  1   force =    -1.42767657    1.84191437   -1.89650772
     atom   11 type  2   force =     0.17559533    5.55697603  -37.43860614
     atom   12 type  2   force =    -0.48628629   -0.32341994   38.69302551
     atom   13 type  1   force =     0.83788460   -2.02375809   -0.95743345
     atom   14 type  2   force =     4.68186191   -2.98136786  -35.56493086
     atom   15 type  2   force =     0.09888404   -0.12803416   37.77356871
     atom   16 type  1   force =     0.31461620   -4.59534917    0.72121042
     atom   17 type  2   force =    -0.48065576   -1.95836929  -37.49665131
     atom   18 type  2   force =     0.26622900    0.47002175   38.89093641
     atom   19 type  1   force =    -2.25364755    3.16085150    0.51430123
     atom   20 type  2   force =    -0.16430521    0.32927761   38.78771059
     atom   21 type  1   force =     2.19431535    1.81515016    3.63384870
     atom   22 type  2   force =     0.50570207    2.53351706  -37.80250981
     atom   23 type  2   force =     0.27078590   -0.45705234   38.78808671
     atom   24 type  1   force =    -0.39936060   -1.98062313   -4.31124044
     atom   25 type  2   force =    -0.45566312   -0.47593920  -38.78512841
     atom   26 type  2   force =     0.32623908   -0.13609092   37.76002723
     atom   27 type  1   force =     0.04711024   -0.72085229    3.12676234
     atom   28 type  2   force =    -0.29976226   -1.38858518  -37.78801030
     atom   29 type  2   force =     0.17225765    0.25941369   37.56564992
     atom   30 type  1   force =    -0.03864391    1.51846542    1.06690173
     atom   31 type  2   force =    -1.17516622    0.20926068  -36.93125558
     atom   32 type  2   force =     0.48944008    0.08565555   38.85926524
     atom   33 type  1   force =    -0.52052400    1.24700639   -0.65369369
     atom   34 type  2   force =    -0.92617696    1.99693993  -38.84382033
     atom   35 type  2   force =     0.14294026   -0.28747798   38.25639787
     atom   36 type  3   force =    -0.43510749    0.48013147  -45.37538927
     The core correction contribution to forces
     atom    1 type  1   force =     0.00000000    0.00000000    0.00000000
     atom    2 type  2   force =     0.00176985    0.00083303    0.02045181
     atom    3 type  2   force =     0.00059303    0.00012221   -0.02060803
     atom    4 type  1   force =     0.00000000    0.00000000    0.00000000
     atom    5 type  2   force =    -0.00050000    0.00225754    0.02038726
     atom    6 type  2   force =     0.00030355   -0.00099940   -0.02090749
     atom    7 type  1   force =     0.00000000    0.00000000    0.00000000
     atom    8 type  2   force =     0.00001065    0.00033184    0.02026471
     atom    9 type  2   force =     0.00008929    0.00046178   -0.02114870
     atom   10 type  1   force =     0.00000000    0.00000000    0.00000000
     atom   11 type  2   force =    -0.00074696   -0.00411196    0.01844653
     atom   12 type  2   force =     0.00107172    0.00137859   -0.02073170
     atom   13 type  1   force =     0.00000000    0.00000000    0.00000000
     atom   14 type  2   force =    -0.02169888    0.01150419    0.00514146
     atom   15 type  2   force =     0.00079300    0.00026112   -0.02050571
     atom   16 type  1   force =     0.00000000    0.00000000    0.00000000
     atom   17 type  2   force =    -0.00005886    0.00155314    0.02024629
     atom   18 type  2   force =     0.00009657   -0.00033823   -0.02116035
     atom   19 type  1   force =     0.00000000    0.00000000    0.00000000
     atom   20 type  2   force =     0.00027253    0.00099876   -0.02121870
     atom   21 type  1   force =     0.00000000    0.00000000    0.00000000
     atom   22 type  2   force =    -0.00015851   -0.00057385    0.02061226
     atom   23 type  2   force =    -0.00052957    0.00123075   -0.02095376
     atom   24 type  1   force =     0.00000000    0.00000000    0.00000000
     atom   25 type  2   force =     0.00024229   -0.00037239    0.02065943
     atom   26 type  2   force =    -0.00031449    0.00074954   -0.02084311
     atom   27 type  1   force =     0.00000000    0.00000000    0.00000000
     atom   28 type  2   force =     0.00027953    0.00171202    0.02098482
     atom   29 type  2   force =    -0.00058142   -0.00096703   -0.02034725
     atom   30 type  1   force =     0.00000000    0.00000000    0.00000000
     atom   31 type  2   force =     0.00043362    0.00002889    0.02054296
     atom   32 type  2   force =    -0.00017250    0.00047601   -0.02102835
     atom   33 type  1   force =     0.00000000    0.00000000    0.00000000
     atom   34 type  2   force =     0.00022548    0.00125321    0.02115923
     atom   35 type  2   force =    -0.00011964    0.00091413   -0.02109894
     atom   36 type  3   force =     0.00994941   -0.00660764    0.00355816
     The Hubbard contrib.    to forces
     atom    1 type  1   force =     0.00000000    0.00000000    0.00000000
     atom    2 type  2   force =     0.00000000    0.00000000    0.00000000
     atom    3 type  2   force =     0.00000000    0.00000000    0.00000000
     atom    4 type  1   force =     0.00000000    0.00000000    0.00000000
     atom    5 type  2   force =     0.00000000    0.00000000    0.00000000
     atom    6 type  2   force =     0.00000000    0.00000000    0.00000000
     atom    7 type  1   force =     0.00000000    0.00000000    0.00000000
     atom    8 type  2   force =     0.00000000    0.00000000    0.00000000
     atom    9 type  2   force =     0.00000000    0.00000000    0.00000000
     atom   10 type  1   force =     0.00000000    0.00000000    0.00000000
     atom   11 type  2   force =     0.00000000    0.00000000    0.00000000
     atom   12 type  2   force =     0.00000000    0.00000000    0.00000000
     atom   13 type  1   force =     0.00000000    0.00000000    0.00000000
     atom   14 type  2   force =     0.00000000    0.00000000    0.00000000
     atom   15 type  2   force =     0.00000000    0.00000000    0.00000000
     atom   16 type  1   force =     0.00000000    0.00000000    0.00000000
     atom   17 type  2   force =     0.00000000    0.00000000    0.00000000
     atom   18 type  2   force =     0.00000000    0.00000000    0.00000000
     atom   19 type  1   force =     0.00000000    0.00000000    0.00000000
     atom   20 type  2   force =     0.00000000    0.00000000    0.00000000
     atom   21 type  1   force =     0.00000000    0.00000000    0.00000000
     atom   22 type  2   force =     0.00000000    0.00000000    0.00000000
     atom   23 type  2   force =     0.00000000    0.00000000    0.00000000
     atom   24 type  1   force =     0.00000000    0.00000000    0.00000000
     atom   25 type  2   force =     0.00000000    0.00000000    0.00000000
     atom   26 type  2   force =     0.00000000    0.00000000    0.00000000
     atom   27 type  1   force =     0.00000000    0.00000000    0.00000000
     atom   28 type  2   force =     0.00000000    0.00000000    0.00000000
     atom   29 type  2   force =     0.00000000    0.00000000    0.00000000
     atom   30 type  1   force =     0.00000000    0.00000000    0.00000000
     atom   31 type  2   force =     0.00000000    0.00000000    0.00000000
     atom   32 type  2   force =     0.00000000    0.00000000    0.00000000
     atom   33 type  1   force =     0.00000000    0.00000000    0.00000000
     atom   34 type  2   force =     0.00000000    0.00000000    0.00000000
     atom   35 type  2   force =     0.00000000    0.00000000    0.00000000
     atom   36 type  3   force =     0.00000000    0.00000000    0.00000000
     The SCF correction term to forces
     atom    1 type  1   force =     0.00004188    0.00014471    0.00058966
     atom    2 type  2   force =     0.00007556    0.00005756    0.00019271
     atom    3 type  2   force =     0.00002774    0.00001906    0.00025296
     atom    4 type  1   force =     0.00007711    0.00003603    0.00077047
     atom    5 type  2   force =     0.00001641    0.00008144    0.00023420
     atom    6 type  2   force =     0.00002461    0.00000850    0.00028179
     atom    7 type  1   force =    -0.00000555   -0.00017586    0.00067311
     atom    8 type  2   force =     0.00003300   -0.00005233    0.00024958
     atom    9 type  2   force =     0.00001098   -0.00000975    0.00032029
     atom   10 type  1   force =     0.00014850   -0.00006117    0.00052844
     atom   11 type  2   force =     0.00001076   -0.00011078    0.00019501
     atom   12 type  2   force =     0.00001001   -0.00001367    0.00025093
     atom   13 type  1   force =    -0.00010933    0.00006684    0.00073893
     atom   14 type  2   force =    -0.00009229    0.00007255    0.00013695
     atom   15 type  2   force =    -0.00002232    0.00002092    0.00026636
     atom   16 type  1   force =    -0.00004777    0.00009796    0.00075608
     atom   17 type  2   force =    -0.00005144    0.00004142    0.00024022
     atom   18 type  2   force =    -0.00002701   -0.00000185    0.00029714
     atom   19 type  1   force =    -0.00005551   -0.00013205    0.00074156
     atom   20 type  2   force =    -0.00001344   -0.00000756    0.00031894
     atom   21 type  1   force =    -0.00009915   -0.00007356    0.00055635
     atom   22 type  2   force =    -0.00005625   -0.00006756    0.00022375
     atom   23 type  2   force =    -0.00001589   -0.00000620    0.00027376
     atom   24 type  1   force =     0.00009431    0.00012873    0.00063603
     atom   25 type  2   force =     0.00001797    0.00005150    0.00020265
     atom   26 type  2   force =    -0.00000640    0.00001106    0.00027855
     atom   27 type  1   force =    -0.00003015    0.00001672    0.00083229
     atom   28 type  2   force =     0.00003583    0.00005963    0.00023019
     atom   29 type  2   force =     0.00000348   -0.00000363    0.00030876
     atom   30 type  1   force =     0.00005605   -0.00008966    0.00080342
     atom   31 type  2   force =    -0.00000716   -0.00003730    0.00025782
     atom   32 type  2   force =     0.00000097   -0.00001104    0.00032208
     atom   33 type  1   force =    -0.00005133   -0.00002323    0.00065735
     atom   34 type  2   force =     0.00005691   -0.00007176    0.00020696
     atom   35 type  2   force =     0.00001495    0.00000653    0.00028585
     atom   36 type  3   force =     0.00000423    0.00002246    0.00014688

     Total force =     0.225805     Total SCF correction =     0.002765

     BFGS Geometry Optimization
     Energy error            =      0.0E+00 Ry
     Gradient error          =      1.1E-01 Ry/Bohr

     number of scf cycles    =   1
     number of bfgs steps    =   0

     energy             new  =   -2246.1372301892 Ry

     new trust radius        =       0.1462200665 bohr
     new conv_thr            =       0.0000010000 Ry


ATOMIC_POSITIONS (angstrom)
Mo            6.5820568292        1.7882925198        2.8111820293
S             8.1935602345        0.8295348670        4.4228504174
S             8.1880255752        0.8158835641        1.2771430676
Mo            8.0970939337        4.4966334619        2.7187704659
S             6.4998626005        3.7184470623        4.3449303046
S             6.5543177033        3.5176213848        1.1218916460
Mo            6.4949377661        7.2003961431        2.6647495645
S             8.0809205472        6.3441355286        4.2511716616
S             8.0873445815        6.3087360865        1.0893997896
Mo            8.1576143016        9.9083717414        2.8269707885
S             6.5008256020        8.9285550241        4.3712497708
S             6.6178617337        9.0493758504        1.1435711164
Mo            3.4170723339        1.7625790360        2.7621841909
S             5.0144164712        0.7902851921        4.3754592934
S             5.0506171112        0.8481208988        1.2207813057
Mo            4.9792813506        4.5154972291        2.6342189466
S             3.4302024412        3.6733353340        4.2810832334
S             3.4357109886        3.5425011171        1.0648230138
Mo            3.4538852872        7.2105782122        2.6282975786
S             4.9836821983        6.3249607061        1.0359504781
Mo            4.9954953157        9.8954929977        2.7209520675
S             3.4693251119        8.9427890828        4.3256447293
S             3.4078276362        9.0658587754        1.1012631928
Mo            0.2984137593        1.7470886976        2.8321138843
S             1.8539619081        0.8031396310        4.4019219701
S             1.8553811576        0.8537773063        1.2068230125
Mo            1.8603443277        4.4972748528        2.6640342948
S             0.2723914732        3.6529664204        4.3360127252
S             0.2328598137        3.5277343977        1.1696549433
Mo            0.2695364898        7.2224015426        2.7003864742
S             1.9028822564        6.3129234681        4.2313578682
S             1.8578275744        6.3141844688        1.0487707233
Mo            1.8545711711        9.9363701233        2.7674450106
S             0.2972491785        9.0668971285        4.4099980969
S             0.2734398971        9.0472003384        1.1572654715
O             6.2560570170       10.9499062198        5.1547644223



     Writing config-only to output data dir ./MoS2-V-O.save/
     NEW-OLD atomic charge density approx. for the potential

     negative rho (up, down):  1.439E-04 0.000E+00

     total cpu time spent up to now is      111.7 secs

     Self-consistent Calculation

     iteration #  1     ecut=    80.00 Ry     beta= 0.70
     Davidson diagonalization with overlap
     ethr =  1.00E-06,  avg # of iterations = 12.0

     negative rho (up, down):  2.200E-04 0.000E+00

     total cpu time spent up to now is      125.7 secs

     total energy              =   -2246.17928860 Ry
     estimated scf accuracy    <       0.03270677 Ry

     iteration #  2     ecut=    80.00 Ry     beta= 0.70
     Davidson diagonalization with overlap
     ethr =  1.05E-05,  avg # of iterations =  5.0

     negative rho (up, down):  3.403E-04 0.000E+00

     total cpu time spent up to now is      135.2 secs

     total energy              =   -2246.18398862 Ry
     estimated scf accuracy    <       0.01432463 Ry

     iteration #  3     ecut=    80.00 Ry     beta= 0.70
     Davidson diagonalization with overlap
     ethr =  4.59E-06,  avg # of iterations =  4.0

     negative rho (up, down):  4.724E-04 0.000E+00

     total cpu time spent up to now is      148.0 secs

     total energy              =   -2246.18547840 Ry
     estimated scf accuracy    <       0.00072085 Ry

     iteration #  4     ecut=    80.00 Ry     beta= 0.70
     Davidson diagonalization with overlap
     ethr =  2.31E-07,  avg # of iterations =  5.0

     negative rho (up, down):  5.113E-04 0.000E+00

     total cpu time spent up to now is      161.4 secs

     total energy              =   -2246.18556047 Ry
     estimated scf accuracy    <       0.00010517 Ry

     iteration #  5     ecut=    80.00 Ry     beta= 0.70
     Davidson diagonalization with overlap
     ethr =  3.37E-08,  avg # of iterations =  5.0

     negative rho (up, down):  5.256E-04 0.000E+00

     total cpu time spent up to now is      177.2 secs

     total energy              =   -2246.18557444 Ry
     estimated scf accuracy    <       0.00001997 Ry

     iteration #  6     ecut=    80.00 Ry     beta= 0.70
     Davidson diagonalization with overlap
     ethr =  6.40E-09,  avg # of iterations =  5.0

     negative rho (up, down):  5.115E-04 0.000E+00

     total cpu time spent up to now is      189.8 secs

     total energy              =   -2246.18557777 Ry
     estimated scf accuracy    <       0.00000503 Ry

     iteration #  7     ecut=    80.00 Ry     beta= 0.70
     Davidson diagonalization with overlap
     ethr =  1.61E-09,  avg # of iterations =  5.0

     negative rho (up, down):  4.749E-04 0.000E+00

     total cpu time spent up to now is      200.9 secs

     total energy              =   -2246.18557844 Ry
     estimated scf accuracy    <       0.00000112 Ry

     iteration #  8     ecut=    80.00 Ry     beta= 0.70
     Davidson diagonalization with overlap
     ethr =  3.60E-10,  avg # of iterations =  4.0

     negative rho (up, down):  2.156E-04 0.000E+00

     total cpu time spent up to now is      204.2 secs

     End of self-consistent calculation

          k = 0.0000 0.0000 0.0000 (105382 PWs)   bands (ev):

   -63.0588 -62.9366 -62.9015 -62.8730 -62.8622 -62.8508 -62.8425 -62.8328
   -62.8221 -62.8140 -62.7828 -62.7778 -37.3632 -37.2821 -37.2497 -37.1961
   -37.1837 -37.1804 -37.1456 -37.1295 -37.1146 -37.1057 -37.0973 -37.0787
   -37.0739 -37.0726 -37.0595 -37.0296 -37.0276 -37.0182 -37.0090 -37.0034
   -36.9991 -36.9919 -36.9840 -36.9802 -36.9710 -36.9662 -36.9515 -36.9472
   -36.9241 -36.9095 -36.9049 -36.8830 -36.8650 -36.8318 -36.8171 -36.7523
   -21.4324 -15.9626 -15.2892 -15.1455 -15.0602 -14.9736 -14.7386 -14.7143
   -14.5463 -14.5218 -14.4911 -14.4738 -14.4289 -14.3460 -14.2780 -14.2457
   -14.1723 -14.1560 -14.1414 -13.9403 -13.9279 -13.8769 -13.8596 -13.6292
    -8.3174  -7.8758  -7.6516  -7.5059  -7.3574  -7.3268  -7.2931  -7.2591
    -7.1860  -7.1121  -6.9009  -6.8611  -6.7731  -6.7305  -6.7031  -6.6130
    -6.5097  -6.4570  -6.3845  -6.3114  -6.1976  -6.0542  -5.9842  -5.9232
    -5.8628  -5.8366  -5.8023  -5.7400  -5.7166  -5.6886  -5.6578  -5.5756
    -5.5108  -5.4699  -5.4518  -5.3494  -5.2620  -5.1691  -5.1131  -5.0394
    -5.0127  -4.9725  -4.8972  -4.8168  -4.6116  -4.5873  -4.4166  -4.3591
    -4.3366  -4.2818  -4.1606  -4.1332  -4.0469  -3.9874  -3.8743  -3.7718
    -3.7410  -3.7353  -3.6749  -3.6092  -3.5784  -3.5639  -3.5318  -3.5247
    -3.4865  -3.4205  -3.3309  -3.2479  -3.0224  -2.9538  -2.8639  -2.8461
    -2.8186  -2.7945  -2.7342  -2.7127  -2.6926  -2.6211  -2.3397  -2.2475
    -2.0784  -2.0124  -1.8078  -1.7392  -1.3614  -0.8210  -0.7877  -0.1894
    -0.1688  -0.1486  -0.0363   0.0185   0.0766   0.1266   0.1890   0.2260
     0.2415   0.3263   0.3937   0.4696   0.5063   0.5156   0.5383   0.6124
     0.6190   0.6856   0.7276   0.7374   0.7702   0.8596   0.9020   0.9226
     0.9950   0.9975   1.2360

     the Fermi energy is    -1.5475 ev

!    total energy              =   -2246.18557854 Ry
     estimated scf accuracy    <       0.00000044 Ry
     smearing contrib. (-TS)   =      -0.00178758 Ry
     internal energy E=F+TS    =   -2246.18379097 Ry

     The total energy is F=E-TS. E is the sum of the following terms:
     one-electron contribution =  -18493.91650893 Ry
     hartree contribution      =    9235.38612691 Ry
     xc contribution           =    -392.10784908 Ry
     ewald contribution        =    7414.32047461 Ry
     one-center paw contrib.   =      -9.86603448 Ry

     convergence has been achieved in   8 iterations

     negative rho (up, down):  2.156E-04 0.000E+00

     Forces acting on atoms (cartesian axes, Ry/au):

     atom    1 type  1   force =     0.00616245    0.00074448   -0.01868025
     atom    2 type  2   force =     0.02230186    0.02752926   -0.02729026
     atom    3 type  2   force =    -0.00804100    0.00753935   -0.01165599
     atom    4 type  1   force =     0.00355805    0.00314156    0.00191380
     atom    5 type  2   force =     0.00046092   -0.00748313   -0.00355467
     atom    6 type  2   force =     0.00236893    0.01168356   -0.00118552
     atom    7 type  1   force =     0.00509755   -0.01960645   -0.00671720
     atom    8 type  2   force =     0.00077180   -0.00200467    0.01360720
     atom    9 type  2   force =     0.01259650    0.00503438    0.00518207
     atom   10 type  1   force =    -0.00156652    0.01047612   -0.00954449
     atom   11 type  2   force =     0.00585659   -0.02439762   -0.03122708
     atom   12 type  2   force =    -0.00046510   -0.00207307    0.00000141
     atom   13 type  1   force =     0.00309075    0.01593870    0.00044616
     atom   14 type  2   force =     0.07801307   -0.05199943    0.01832072
     atom   15 type  2   force =    -0.01296051    0.00527545   -0.01157949
     atom   16 type  1   force =    -0.00026665    0.00210391    0.00162058
     atom   17 type  2   force =     0.00338528    0.00384026    0.00230766
     atom   18 type  2   force =    -0.00476055   -0.00687305    0.00659756
     atom   19 type  1   force =    -0.00172709   -0.00906164    0.00172950
     atom   20 type  2   force =     0.00022636   -0.00508659   -0.00548316
     atom   21 type  1   force =    -0.01513979   -0.00772796   -0.01847914
     atom   22 type  2   force =    -0.00107203   -0.00208862   -0.00327233
     atom   23 type  2   force =    -0.00488559   -0.00308260   -0.00096025
     atom   24 type  1   force =     0.00380559    0.00129898   -0.01467558
     atom   25 type  2   force =     0.00614298    0.01690636   -0.00418121
     atom   26 type  2   force =    -0.00543247   -0.00212045   -0.01035544
     atom   27 type  1   force =    -0.00032597    0.00297212    0.00760329
     atom   28 type  2   force =     0.00043759   -0.00341431   -0.00464017
     atom   29 type  2   force =     0.00311786    0.00327082   -0.00642038
     atom   30 type  1   force =    -0.00113457    0.00286083    0.00341884
     atom   31 type  2   force =     0.00003015    0.00051558    0.01177444
     atom   32 type  2   force =    -0.00778315    0.00600517    0.00594019
     atom   33 type  1   force =     0.01038590   -0.00241313    0.00168305
     atom   34 type  2   force =     0.00003152   -0.03100026   -0.01319759
     atom   35 type  2   force =    -0.00409575    0.00714924    0.00612792
     atom   36 type  3   force =    -0.09818496    0.04614688    0.11482580
     The non-local contrib.  to forces
     atom    1 type  1   force =    -0.00596996    0.02765856    0.00374988
     atom    2 type  2   force =    -0.01934488   -0.01284486   -0.26066827
     atom    3 type  2   force =    -0.01056937   -0.00567015    0.25898623
     atom    4 type  1   force =     0.00696814    0.00140926    0.00702050
     atom    5 type  2   force =     0.00571664   -0.04039743   -0.25620573
     atom    6 type  2   force =    -0.00111520    0.00996342    0.26176764
     atom    7 type  1   force =    -0.00755173    0.02137681   -0.02552042
     atom    8 type  2   force =     0.00276919   -0.00162930   -0.25540312
     atom    9 type  2   force =     0.00340980   -0.01044535    0.27662059
     atom   10 type  1   force =     0.00848885   -0.00234468   -0.00201447
     atom   11 type  2   force =     0.01237032    0.05744280   -0.23633802
     atom   12 type  2   force =    -0.01288845   -0.01980389    0.25938006
     atom   13 type  1   force =    -0.02365353    0.01258593   -0.02222001
     atom   14 type  2   force =     0.37504793   -0.20502084    0.06236561
     atom   15 type  2   force =    -0.01376460   -0.00493034    0.26098831
     atom   16 type  1   force =     0.00228612    0.03426817   -0.02461780
     atom   17 type  2   force =     0.00180012   -0.02623224   -0.24990022
     atom   18 type  2   force =    -0.00618574   -0.00396654    0.27476624
     atom   19 type  1   force =     0.01256143    0.00362691   -0.01683111
     atom   20 type  2   force =    -0.00358811   -0.02440221    0.26455913
     atom   21 type  1   force =    -0.00084239    0.03095899    0.02639831
     atom   22 type  2   force =     0.00105790    0.00289658   -0.26220463
     atom   23 type  2   force =     0.00363824   -0.01724355    0.26244406
     atom   24 type  1   force =    -0.01591331    0.00556478   -0.00390356
     atom   25 type  2   force =    -0.00040507    0.00049074   -0.26450222
     atom   26 type  2   force =     0.00396570   -0.01267185    0.26260439
     atom   27 type  1   force =    -0.00869058    0.01164188    0.00957776
     atom   28 type  2   force =    -0.00431725   -0.02259691   -0.27729904
     atom   29 type  2   force =     0.00677137    0.00736962    0.26064794
     atom   30 type  1   force =    -0.00085339    0.02091200    0.00858716
     atom   31 type  2   force =    -0.00822358    0.00130661   -0.25748368
     atom   32 type  2   force =    -0.00116831   -0.00880697    0.27256154
     atom   33 type  1   force =    -0.00741241    0.00621150    0.00393190
     atom   34 type  2   force =     0.00216750   -0.02846546   -0.27946091
     atom   35 type  2   force =    -0.00038476   -0.00938975    0.26822141
     atom   36 type  3   force =    -1.15341808    0.73780762   -0.60769931
     The ionic contribution  to forces
     atom    1 type  1   force =     0.45512339    3.02363851    0.93055425
     atom    2 type  2   force =     2.64963662    1.67212147   37.84748568
     atom    3 type  2   force =     0.13358626    0.13711018  -37.19960103
     atom    4 type  1   force =     0.48945536    1.09374737   -0.21503570
     atom    5 type  2   force =    -0.92569121    2.43906053   38.42458182
     atom    6 type  2   force =     0.33486582   -0.20669768  -38.70418492
     atom    7 type  1   force =    -2.61646474   -3.61672022    0.84125636
     atom    8 type  2   force =    -0.75558227   -0.26603048   37.35362218
     atom    9 type  2   force =     0.46413399   -0.16024913  -38.54530494
     atom   10 type  1   force =     1.17995364   -1.70222378    1.81687469
     atom   11 type  2   force =    -0.16317990   -5.23563662   37.35660431
     atom   12 type  2   force =     0.48695577    0.29180089  -38.76955636
     atom   13 type  1   force =    -0.37892253    1.51683086    0.90115447
     atom   14 type  2   force =    -5.48936863    3.40594649   35.06188295
     atom   15 type  2   force =    -0.04849525    0.15580226  -37.91141058
     atom   16 type  1   force =    -0.29230341    4.40661811   -0.46610380
     atom   17 type  2   force =     0.52484924    1.87336683   37.82082846
     atom   18 type  2   force =    -0.23859992   -0.34950929  -39.12377061
     atom   19 type  1   force =     2.28253515   -3.11863084   -0.42775494
     atom   20 type  2   force =     0.12682517   -0.29471584  -39.09834365
     atom   21 type  1   force =    -1.67893101   -1.50705387   -4.15448273
     atom   22 type  2   force =    -0.41793188   -2.47554331   38.09503000
     atom   23 type  2   force =    -0.33985272    0.37143374  -39.07765850
     atom   24 type  1   force =     0.48604296    1.77833971    3.74134252
     atom   25 type  2   force =     0.47296745    0.41228569   39.00105195
     atom   26 type  2   force =    -0.29356071    0.05597575  -37.99587211
     atom   27 type  1   force =    -0.09519385    0.80496508   -2.80346532
     atom   28 type  2   force =     0.29450286    1.30911988   38.05678537
     atom   29 type  2   force =    -0.17975313   -0.17014469  -37.83852014
     atom   30 type  1   force =     0.05012296   -1.54691871   -0.96458864
     atom   31 type  2   force =     1.16577602   -0.17689906   37.29671071
     atom   32 type  2   force =    -0.49928840   -0.10083610  -39.06062669
     atom   33 type  1   force =     0.29073977   -0.97471030    0.86856090
     atom   34 type  2   force =     0.79540351   -1.72961891   39.02091812
     atom   35 type  2   force =    -0.11897047    0.31210239  -38.40135530
     atom   36 type  3   force =     1.84861408   -1.42812692   46.32239120
     The local contribution  to forces
     atom    1 type  1   force =    -0.44303405   -3.05080132   -0.95218927
     atom    2 type  2   force =    -2.60796694   -1.63203429  -37.63425214
     atom    3 type  2   force =    -0.13157325   -0.12411548   36.94953024
     atom    4 type  1   force =    -0.49287723   -1.09204819    0.21046316
     atom    5 type  2   force =     0.92093072   -2.40835041  -38.19201443
     atom    6 type  2   force =    -0.33168909    0.20939894   38.46213312
     atom    7 type  1   force =     2.62905694    3.57590811   -0.82177575
     atom    8 type  2   force =     0.75360510    0.26526354  -37.10465307
     atom    9 type  2   force =    -0.45502615    0.17519869   38.29495943
     atom   10 type  1   force =    -1.19013547    1.71514746   -1.82355122
     atom   11 type  2   force =     0.15743344    5.15605176  -37.17061296
     atom   12 type  2   force =    -0.47569873   -0.27542650   38.53090117
     atom   13 type  1   force =     0.40578670   -1.51358891   -0.87788290
     atom   14 type  2   force =     5.21438001   -3.26477688  -35.10765752
     atom   15 type  2   force =     0.04846771   -0.14594308   37.65952867
     atom   16 type  1   force =     0.28967476   -4.43880965    0.49286034
     atom   17 type  2   force =    -0.52318102   -1.84480021  -37.58859100
     atom   18 type  2   force =     0.23986193    0.34686620   38.87688378
     atom   19 type  1   force =    -2.29683813    3.10595846    0.44689768
     atom   20 type  2   force =    -0.12335836    0.31296543   38.84946625
     atom   21 type  1   force =     1.66481595    1.46846923    4.11042302
     atom   22 type  2   force =     0.41602027    2.47112293  -37.85639978
     atom   23 type  2   force =     0.33177989   -0.35852441   38.83510664
     atom   24 type  1   force =    -0.46637903   -1.78271713   -3.75148099
     atom   25 type  2   force =    -0.46653274   -0.39566713  -38.76116551
     atom   26 type  2   force =     0.28471425   -0.04602847   37.74381174
     atom   27 type  1   force =     0.10363231   -0.81360012    2.80195702
     atom   28 type  2   force =    -0.29000838   -1.29153172  -37.80483752
     atom   29 type  2   force =     0.17670452    0.16688944   37.59191218
     atom   30 type  1   force =    -0.05034001    1.52891893    0.96000852
     atom   31 type  2   force =    -1.15795294    0.17602536  -37.04777838
     atom   32 type  2   force =     0.49294161    0.11511004   38.81505086
     atom   33 type  1   force =    -0.27296710    0.96606211   -0.87018764
     atom   34 type  2   force =    -0.79773997    1.72619584  -38.77561786
     atom   35 type  2   force =     0.11541494   -0.29642712   38.16032409
     atom   36 type  3   force =    -0.80620276    0.74474095  -45.60513913
     The core correction contribution to forces
     atom    1 type  1   force =     0.00000000    0.00000000    0.00000000
     atom    2 type  2   force =    -0.00021174    0.00017555    0.02063232
     atom    3 type  2   force =     0.00046966    0.00017483   -0.02048085
     atom    4 type  1   force =     0.00000000    0.00000000    0.00000000
     atom    5 type  2   force =    -0.00051364    0.00214378    0.02048260
     atom    6 type  2   force =     0.00027969   -0.00099461   -0.02083692
     atom    7 type  1   force =     0.00000000    0.00000000    0.00000000
     atom    8 type  2   force =    -0.00002471    0.00043953    0.02046401
     atom    9 type  2   force =     0.00009899    0.00053343   -0.02109045
     atom   10 type  1   force =     0.00000000    0.00000000    0.00000000
     atom   11 type  2   force =    -0.00078226   -0.00208241    0.01966147
     atom   12 type  2   force =     0.00114839    0.00143589   -0.02067323
     atom   13 type  1   force =     0.00000000    0.00000000    0.00000000
     atom   14 type  2   force =    -0.02183938    0.01169182    0.00221922
     atom   15 type  2   force =     0.00083331    0.00031714   -0.02057871
     atom   16 type  1   force =     0.00000000    0.00000000    0.00000000
     atom   17 type  2   force =    -0.00005279    0.00149512    0.02028744
     atom   18 type  2   force =     0.00016705   -0.00025450   -0.02122900
     atom   19 type  1   force =     0.00000000    0.00000000    0.00000000
     atom   20 type  2   force =     0.00031684    0.00104270   -0.02115288
     atom   21 type  1   force =     0.00000000    0.00000000    0.00000000
     atom   22 type  2   force =    -0.00014547   -0.00050789    0.02072761
     atom   23 type  2   force =    -0.00044024    0.00128470   -0.02081192
     atom   24 type  1   force =     0.00000000    0.00000000    0.00000000
     atom   25 type  2   force =     0.00012805   -0.00025739    0.02081473
     atom   26 type  2   force =    -0.00052709    0.00057889   -0.02085215
     atom   27 type  1   force =     0.00000000    0.00000000    0.00000000
     atom   28 type  2   force =     0.00024697    0.00159361    0.02108744
     atom   29 type  2   force =    -0.00058733   -0.00082784   -0.02042157
     atom   30 type  1   force =     0.00000000    0.00000000    0.00000000
     atom   31 type  2   force =     0.00043786    0.00011818    0.02066106
     atom   32 type  2   force =    -0.00026001    0.00052896   -0.02100618
     atom   33 type  1   force =     0.00000000    0.00000000    0.00000000
     atom   34 type  2   force =     0.00014262    0.00091559    0.02135913
     atom   35 type  2   force =    -0.00015206    0.00087387   -0.02101091
     atom   36 type  3   force =     0.01294038   -0.00835493    0.00578645
     The Hubbard contrib.    to forces
     atom    1 type  1   force =     0.00000000    0.00000000    0.00000000
     atom    2 type  2   force =     0.00000000    0.00000000    0.00000000
     atom    3 type  2   force =     0.00000000    0.00000000    0.00000000
     atom    4 type  1   force =     0.00000000    0.00000000    0.00000000
     atom    5 type  2   force =     0.00000000    0.00000000    0.00000000
     atom    6 type  2   force =     0.00000000    0.00000000    0.00000000
     atom    7 type  1   force =     0.00000000    0.00000000    0.00000000
     atom    8 type  2   force =     0.00000000    0.00000000    0.00000000
     atom    9 type  2   force =     0.00000000    0.00000000    0.00000000
     atom   10 type  1   force =     0.00000000    0.00000000    0.00000000
     atom   11 type  2   force =     0.00000000    0.00000000    0.00000000
     atom   12 type  2   force =     0.00000000    0.00000000    0.00000000
     atom   13 type  1   force =     0.00000000    0.00000000    0.00000000
     atom   14 type  2   force =     0.00000000    0.00000000    0.00000000
     atom   15 type  2   force =     0.00000000    0.00000000    0.00000000
     atom   16 type  1   force =     0.00000000    0.00000000    0.00000000
     atom   17 type  2   force =     0.00000000    0.00000000    0.00000000
     atom   18 type  2   force =     0.00000000    0.00000000    0.00000000
     atom   19 type  1   force =     0.00000000    0.00000000    0.00000000
     atom   20 type  2   force =     0.00000000    0.00000000    0.00000000
     atom   21 type  1   force =     0.00000000    0.00000000    0.00000000
     atom   22 type  2   force =     0.00000000    0.00000000    0.00000000
     atom   23 type  2   force =     0.00000000    0.00000000    0.00000000
     atom   24 type  1   force =     0.00000000    0.00000000    0.00000000
     atom   25 type  2   force =     0.00000000    0.00000000    0.00000000
     atom   26 type  2   force =     0.00000000    0.00000000    0.00000000
     atom   27 type  1   force =     0.00000000    0.00000000    0.00000000
     atom   28 type  2   force =     0.00000000    0.00000000    0.00000000
     atom   29 type  2   force =     0.00000000    0.00000000    0.00000000
     atom   30 type  1   force =     0.00000000    0.00000000    0.00000000
     atom   31 type  2   force =     0.00000000    0.00000000    0.00000000
     atom   32 type  2   force =     0.00000000    0.00000000    0.00000000
     atom   33 type  1   force =     0.00000000    0.00000000    0.00000000
     atom   34 type  2   force =     0.00000000    0.00000000    0.00000000
     atom   35 type  2   force =     0.00000000    0.00000000    0.00000000
     atom   36 type  3   force =     0.00000000    0.00000000    0.00000000
     The SCF correction term to forces
     atom    1 type  1   force =     0.00004242    0.00024946   -0.00077826
     atom    2 type  2   force =     0.00018816    0.00011212   -0.00047100
     atom    3 type  2   force =     0.00004506    0.00004070   -0.00007373
     atom    4 type  1   force =     0.00001114    0.00003385   -0.00051730
     atom    5 type  2   force =     0.00001777    0.00006114   -0.00038208
     atom    6 type  2   force =     0.00002707    0.00001422   -0.00004758
     atom    7 type  1   force =     0.00005644   -0.00017041   -0.00066053
     atom    8 type  2   force =     0.00000385   -0.00004722   -0.00040594
     atom    9 type  2   force =    -0.00002077   -0.00000254    0.00001429
     atom   10 type  1   force =     0.00012582   -0.00010215   -0.00083663
     atom   11 type  2   force =     0.00001435   -0.00017242   -0.00052503
     atom   12 type  2   force =     0.00001728   -0.00007872   -0.00003337
     atom   13 type  1   force =    -0.00012052    0.00011155   -0.00058855
     atom   14 type  2   force =    -0.00020749    0.00016071   -0.00047268
     atom   15 type  2   force =    -0.00000233    0.00003019   -0.00009033
     atom   16 type  1   force =     0.00007524    0.00002801   -0.00050131
     atom   17 type  2   force =    -0.00003091    0.00001150   -0.00030016
     atom   18 type  2   force =    -0.00000449   -0.00000818   -0.00003601
     atom   19 type  1   force =     0.00001384   -0.00001544   -0.00056528
     atom   20 type  2   force =     0.00003018    0.00002407    0.00000484
     atom   21 type  1   force =    -0.00018297   -0.00010158   -0.00080089
     atom   22 type  2   force =    -0.00007350   -0.00005620   -0.00040869
     atom   23 type  2   force =    -0.00001140   -0.00003235   -0.00002369
     atom   24 type  1   force =     0.00005435    0.00011236   -0.00061670
     atom   25 type  2   force =    -0.00001535    0.00005519   -0.00036331
     atom   26 type  2   force =    -0.00002526    0.00002597   -0.00003046
     atom   27 type  1   force =    -0.00007449   -0.00003398   -0.00044932
     atom   28 type  2   force =     0.00001275    0.00000157   -0.00035956
     atom   29 type  2   force =    -0.00001820   -0.00001496   -0.00002194
     atom   30 type  1   force =    -0.00006476   -0.00005065   -0.00057135
     atom   31 type  2   force =    -0.00000785   -0.00003478   -0.00031842
     atom   32 type  2   force =    -0.00000867    0.00000998   -0.00002248
     atom   33 type  1   force =     0.00002500    0.00002430   -0.00060526
     atom   34 type  2   force =     0.00005723   -0.00002659   -0.00037921
     atom   35 type  2   force =    -0.00000404   -0.00000942   -0.00003452
     atom   36 type  3   force =    -0.00011923    0.00008090   -0.00049656

     Total force =     0.209112     Total SCF correction =     0.002711
     Energy error            =      4.8E-02 Ry
     Gradient error          =      1.1E-01 Ry/Bohr

     number of scf cycles    =   2
     number of bfgs steps    =   1

     energy             old  =   -2246.1372301892 Ry
     energy             new  =   -2246.1855785429 Ry

     CASE: energy            _new < energy            _old


     WARNING: bfgs curvature condition failed, Theta= 0.917
     new trust radius        =       0.1608420732 bohr
     new conv_thr            =       0.0000001148 Ry


ATOMIC_POSITIONS (angstrom)
Mo            6.5874822638        1.7887506892        2.7995643201
S             8.2083557606        0.8473437149        4.4089329524
S             8.1830979948        0.8203908367        1.2731919971
Mo            8.0990995161        4.4983439070        2.7198085480
S             6.4999832429        3.7142747450        4.3430200128
S             6.5555039294        3.5239922952        1.1218117272
Mo            6.4988373673        7.1858760247        2.6593277049
S             8.0807807677        6.3436397104        4.2594623409
S             8.0942523843        6.3121837701        1.0935977721
Mo            8.1557212821        9.9145134753        2.8162885202
S             6.5052889708        8.9142737291        4.3560363786
S             6.6176778597        9.0490464569        1.1452891893
Mo            3.4158773895        1.7748315375        2.7556242495
S             5.0569390732        0.7617105537        4.3928096649
S             5.0432265336        0.8506234651        1.2144457018
Mo            4.9789760637        4.5172350267        2.6353456019
S             3.4323559159        3.6753364160        4.2824407354
S             3.4332031665        3.5376908449        1.0698967832
Mo            3.4533623185        7.2050824495        2.6277168992
S             4.9839622174        6.3224636559        1.0336441306
Mo            4.9829528486        9.8902404904        2.7047141050
S             3.4682280727        8.9416922074        4.3246579803
S             3.4060350282        9.0653129470        1.1034017110
Mo            0.3006796087        1.7472930451        2.8194513729
S             1.8575019859        0.8132640296        4.4023696355
S             1.8511610300        0.8528175949        1.2024126331
Mo            1.8600808704        4.4989477115        2.6681839877
S             0.2726100453        3.6512392020        4.3338413285
S             0.2345873518        3.5289731758        1.1665620180
Mo            0.2684282454        7.2259843182        2.7008294424
S             1.9031934956        6.3131413139        4.2391773396
S             1.8533533015        6.3178417834        1.0525817746
Mo            1.8625758111        9.9338570301        2.7653863578
S             0.2978853882        9.0464821157        4.4041025185
S             0.2706116617        9.0511335569        1.1623784436
O             6.2029849158       10.9740225846        5.2167816711



     Writing config-only to output data dir ./MoS2-V-O.save/
     NEW-OLD atomic charge density approx. for the potential

     negative rho (up, down):  1.413E-04 0.000E+00

     total cpu time spent up to now is      211.2 secs

     Self-consistent Calculation

     iteration #  1     ecut=    80.00 Ry     beta= 0.70
     Davidson diagonalization with overlap
     ethr =  1.00E-06,  avg # of iterations = 11.0

     negative rho (up, down):  1.564E-04 0.000E+00

     total cpu time spent up to now is      228.4 secs

     total energy              =   -2246.22398757 Ry
     estimated scf accuracy    <       0.01699931 Ry

     iteration #  2     ecut=    80.00 Ry     beta= 0.70
     Davidson diagonalization with overlap
     ethr =  5.45E-06,  avg # of iterations =  5.0

     negative rho (up, down):  2.152E-04 0.000E+00

     total cpu time spent up to now is      239.7 secs

     total energy              =   -2246.22728340 Ry
     estimated scf accuracy    <       0.00862008 Ry

     iteration #  3     ecut=    80.00 Ry     beta= 0.70
     Davidson diagonalization with overlap
     ethr =  2.76E-06,  avg # of iterations =  3.0

     negative rho (up, down):  2.520E-04 0.000E+00

     total cpu time spent up to now is      254.7 secs

     total energy              =   -2246.22802020 Ry
     estimated scf accuracy    <       0.00043676 Ry

     iteration #  4     ecut=    80.00 Ry     beta= 0.70
     Davidson diagonalization with overlap
     ethr =  1.40E-07,  avg # of iterations =  5.0

     negative rho (up, down):  2.755E-04 0.000E+00

     total cpu time spent up to now is      267.8 secs

     total energy              =   -2246.22806971 Ry
     estimated scf accuracy    <       0.00005556 Ry

     iteration #  5     ecut=    80.00 Ry     beta= 0.70
     Davidson diagonalization with overlap
     ethr =  1.78E-08,  avg # of iterations =  4.0

     negative rho (up, down):  2.927E-04 0.000E+00

     total cpu time spent up to now is      281.2 secs

     total energy              =   -2246.22807654 Ry
     estimated scf accuracy    <       0.00001063 Ry

     iteration #  6     ecut=    80.00 Ry     beta= 0.70
     Davidson diagonalization with overlap
     ethr =  3.41E-09,  avg # of iterations =  5.0

     negative rho (up, down):  2.980E-04 0.000E+00

     total cpu time spent up to now is      296.6 secs

     total energy              =   -2246.22807910 Ry
     estimated scf accuracy    <       0.00000268 Ry

     iteration #  7     ecut=    80.00 Ry     beta= 0.70
     Davidson diagonalization with overlap
     ethr =  8.58E-10,  avg # of iterations =  2.0

     negative rho (up, down):  2.986E-04 0.000E+00

     total cpu time spent up to now is      314.1 secs

     total energy              =   -2246.22807933 Ry
     estimated scf accuracy    <       0.00000061 Ry

     iteration #  8     ecut=    80.00 Ry     beta= 0.70
     Davidson diagonalization with overlap
     ethr =  1.96E-10,  avg # of iterations =  4.0

     negative rho (up, down):  2.911E-04 0.000E+00

     total cpu time spent up to now is      325.6 secs

     total energy              =   -2246.22807948 Ry
     estimated scf accuracy    <       0.00000012 Ry

     iteration #  9     ecut=    80.00 Ry     beta= 0.70
     Davidson diagonalization with overlap
     ethr =  3.72E-11,  avg # of iterations =  5.0

     negative rho (up, down):  2.138E-04 0.000E+00

     total cpu time spent up to now is      329.0 secs

     End of self-consistent calculation

          k = 0.0000 0.0000 0.0000 (105382 PWs)   bands (ev):

   -63.0915 -62.9477 -62.9091 -62.8790 -62.8689 -62.8550 -62.8387 -62.8308
   -62.8259 -62.8201 -62.8008 -62.7875 -37.3923 -37.3062 -37.2592 -37.2093
   -37.1965 -37.1874 -37.1519 -37.1382 -37.1244 -37.1134 -37.1056 -37.0869
   -37.0807 -37.0721 -37.0647 -37.0389 -37.0352 -37.0264 -37.0174 -37.0080
   -37.0025 -36.9963 -36.9851 -36.9846 -36.9783 -36.9619 -36.9554 -36.9531
   -36.9350 -36.9213 -36.9127 -36.8943 -36.8706 -36.8443 -36.8218 -36.7673
   -21.9250 -15.9771 -15.2753 -15.1426 -15.0473 -14.9641 -14.7477 -14.6231
   -14.5426 -14.5278 -14.4842 -14.4728 -14.4421 -14.3485 -14.2734 -14.2480
   -14.1830 -14.1644 -14.1516 -13.9511 -13.9356 -13.8902 -13.8475 -13.5665
    -8.2704  -7.8958  -7.6557  -7.5130  -7.3904  -7.3371  -7.3042  -7.2632
    -7.2049  -7.1206  -6.9092  -6.8711  -6.7848  -6.7535  -6.7209  -6.6345
    -6.5231  -6.4660  -6.3865  -6.3123  -6.2144  -6.0418  -5.9850  -5.9208
    -5.8672  -5.8521  -5.8108  -5.7463  -5.7337  -5.7030  -5.6655  -5.5778
    -5.5074  -5.4896  -5.4619  -5.3471  -5.2525  -5.1762  -5.1252  -5.0469
    -5.0272  -4.9828  -4.9115  -4.8208  -4.6226  -4.5925  -4.4322  -4.3638
    -4.3412  -4.3011  -4.1833  -4.1458  -4.0584  -3.9989  -3.8660  -3.7705
    -3.7655  -3.7476  -3.6747  -3.6084  -3.5836  -3.5692  -3.5438  -3.5334
    -3.4851  -3.4272  -3.3477  -3.2437  -3.0281  -2.9573  -2.8769  -2.8547
    -2.8325  -2.8081  -2.7519  -2.7224  -2.7047  -2.6214  -2.3578  -2.2772
    -2.1294  -2.0323  -1.8867  -1.8178  -1.2734  -0.8213  -0.8012  -0.2032
    -0.1759  -0.1488  -0.0319   0.0186   0.0634   0.1114   0.1907   0.2366
     0.2548   0.3259   0.3904   0.4731   0.4988   0.5099   0.5348   0.6062
     0.6140   0.6667   0.7114   0.7298   0.7886   0.8627   0.9024   0.9219
     0.9755   0.9906   1.2448

     the Fermi energy is    -1.5444 ev

!    total energy              =   -2246.22807964 Ry
     estimated scf accuracy    <       0.00000005 Ry
     smearing contrib. (-TS)   =      -0.00021644 Ry
     internal energy E=F+TS    =   -2246.22786320 Ry

     The total energy is F=E-TS. E is the sum of the following terms:
     one-electron contribution =  -18485.03990232 Ry
     hartree contribution      =    9230.86663721 Ry
     xc contribution           =    -392.14580964 Ry
     ewald contribution        =    7409.95294936 Ry
     one-center paw contrib.   =      -9.86173782 Ry

     convergence has been achieved in   9 iterations

     negative rho (up, down):  2.138E-04 0.000E+00

     Forces acting on atoms (cartesian axes, Ry/au):

     atom    1 type  1   force =     0.00165552   -0.00201295   -0.01367842
     atom    2 type  2   force =     0.01111034    0.01717835   -0.02283140
     atom    3 type  2   force =    -0.00598835    0.00605603   -0.01816921
     atom    4 type  1   force =     0.00367332    0.00243508    0.00086220
     atom    5 type  2   force =     0.00068969   -0.00683757   -0.00391522
     atom    6 type  2   force =     0.00209771    0.01247026   -0.00318195
     atom    7 type  1   force =     0.00170168   -0.00824882   -0.00234267
     atom    8 type  2   force =     0.00245003   -0.00462293    0.01073422
     atom    9 type  2   force =     0.01254743    0.00288250    0.00147160
     atom   10 type  1   force =     0.00113521    0.00715138    0.00167397
     atom   11 type  2   force =     0.00286223   -0.02044131   -0.03357441
     atom   12 type  2   force =    -0.00054638   -0.00417699   -0.00431945
     atom   13 type  1   force =     0.00707573    0.00345111    0.01744052
     atom   14 type  2   force =     0.05826052   -0.03683423   -0.02034604
     atom   15 type  2   force =    -0.01217990    0.00598112   -0.00967512
     atom   16 type  1   force =     0.00021401    0.00106128    0.00156093
     atom   17 type  2   force =     0.00328129    0.00423697    0.00269091
     atom   18 type  2   force =    -0.00480161   -0.00227945    0.00255555
     atom   19 type  1   force =    -0.00208314   -0.00692295    0.00413948
     atom   20 type  2   force =    -0.00033627   -0.00581106   -0.00643724
     atom   21 type  1   force =     0.00088143   -0.00419965   -0.00154891
     atom   22 type  2   force =     0.00080952   -0.00168191   -0.00481073
     atom   23 type  2   force =    -0.00829264   -0.00686538   -0.00798042
     atom   24 type  1   force =     0.00081717    0.00352733   -0.00527975
     atom   25 type  2   force =     0.00739758    0.01395660   -0.01003585
     atom   26 type  2   force =    -0.00017747   -0.00262297   -0.01155154
     atom   27 type  1   force =    -0.00046858    0.00244129    0.00636033
     atom   28 type  2   force =     0.00070264   -0.00326715   -0.00501082
     atom   29 type  2   force =     0.00332759    0.00517814   -0.00670147
     atom   30 type  1   force =    -0.00023738   -0.00270902    0.00606064
     atom   31 type  2   force =    -0.00060356    0.00034750    0.00842266
     atom   32 type  2   force =    -0.00685243    0.00466337    0.00482269
     atom   33 type  1   force =     0.00160040    0.00098342    0.00746452
     atom   34 type  2   force =    -0.00133259   -0.01996969   -0.01494375
     atom   35 type  2   force =    -0.00221933    0.00709784    0.00210742
     atom   36 type  3   force =    -0.07817140    0.03840447    0.12796674
     The non-local contrib.  to forces
     atom    1 type  1   force =    -0.01338709    0.02564082    0.00855781
     atom    2 type  2   force =    -0.00088106   -0.00758047   -0.26174302
     atom    3 type  2   force =    -0.00769803   -0.00581172    0.25569431
     atom    4 type  1   force =     0.00630500    0.00181845    0.00669770
     atom    5 type  2   force =     0.00529075   -0.03848390   -0.25766213
     atom    6 type  2   force =    -0.00152807    0.01117113    0.25987391
     atom    7 type  1   force =    -0.00605187    0.01656459   -0.02825434
     atom    8 type  2   force =     0.00372952   -0.00331461   -0.25824604
     atom    9 type  2   force =     0.00441253   -0.01213250    0.27361049
     atom   10 type  1   force =     0.00823514   -0.00247328   -0.00265548
     atom   11 type  2   force =     0.01239108    0.02717901   -0.25302701
     atom   12 type  2   force =    -0.01412022   -0.02197057    0.25946449
     atom   13 type  1   force =    -0.02638035    0.01252033   -0.02647886
     atom   14 type  2   force =     0.33621602   -0.18672051    0.09097235
     atom   15 type  2   force =    -0.01254614   -0.00612636    0.26295857
     atom   16 type  1   force =     0.00158353    0.03427529   -0.02471738
     atom   17 type  2   force =     0.00161661   -0.02483071   -0.24880998
     atom   18 type  2   force =    -0.00655810   -0.00107388    0.27298407
     atom   19 type  1   force =     0.01411017    0.00538889   -0.01764552
     atom   20 type  2   force =    -0.00486367   -0.02408845    0.26312322
     atom   21 type  1   force =    -0.00459568    0.03718195    0.03009025
     atom   22 type  2   force =     0.00143396    0.00191487   -0.26249757
     atom   23 type  2   force =     0.00028396   -0.02047911    0.25705341
     atom   24 type  1   force =    -0.01244639    0.00794670   -0.00480660
     atom   25 type  2   force =     0.00252098   -0.00196897   -0.26790143
     atom   26 type  2   force =     0.00853614   -0.01103869    0.26243928
     atom   27 type  1   force =    -0.00849403    0.01267747    0.00889778
     atom   28 type  2   force =    -0.00369032   -0.02158691   -0.27813929
     atom   29 type  2   force =     0.00623693    0.00631288    0.26223983
     atom   30 type  1   force =    -0.00166493    0.02200869    0.00820349
     atom   31 type  2   force =    -0.00862497    0.00063798   -0.25970955
[...]
     atom   28 type  2   force =    -0.00000077   -0.01308619   -0.27947981
     atom   29 type  2   force =    -0.00048151   -0.00986015    0.27031995
     atom   30 type  1   force =     0.00000674    0.02070016    0.00469842
     atom   31 type  2   force =    -0.00369174   -0.00111174   -0.26762297
     atom   32 type  2   force =     0.00596589   -0.01376046    0.26880785
     atom   33 type  1   force =    -0.00186284    0.00664488    0.00203834
     atom   34 type  2   force =     0.00070388   -0.00588894   -0.27554183
     atom   35 type  2   force =     0.00010563   -0.01285619    0.26694470
     atom   36 type  3   force =    -0.02447193    0.05353330   -2.32208731
     The ionic contribution  to forces
     atom    1 type  1   force =     0.72664057    1.33918359   -1.56121287
     atom    2 type  2   force =     0.84031061    0.01351091   38.16325861
     atom    3 type  2   force =     0.12220974   -0.08121385  -38.34266732
     atom    4 type  1   force =     0.22780200    0.86166775   -0.47836706
     atom    5 type  2   force =    -0.38332819    2.16155470   37.78128661
     atom    6 type  2   force =     0.18882153   -0.16053278  -38.78625833
     atom    7 type  1   force =    -2.56589584   -2.43069195    1.27126260
     atom    8 type  2   force =    -1.07653010    0.11781400   38.04134854
     atom    9 type  2   force =     0.38008869   -0.02521292  -38.43332711
     atom   10 type  1   force =     0.15588208   -0.98315463    1.31185791
     atom   11 type  2   force =     0.09787095   -2.41706617   37.85398980
     atom   12 type  2   force =     0.26539412    0.21978851  -38.75586547
     atom   13 type  1   force =    -0.78932894    1.30200749   -1.47378773
     atom   14 type  2   force =    -0.08114140    0.05476402   28.36681670
     atom   15 type  2   force =    -0.03434086   -0.12759832  -38.15785610
     atom   16 type  1   force =     0.02135796    4.25663843    0.73096502
     atom   17 type  2   force =     0.39260859    2.13770162   37.82034813
     atom   18 type  2   force =    -0.20781715   -0.17936561  -38.79282372
     atom   19 type  1   force =     2.57301033   -2.42503403    1.99346466
     atom   20 type  2   force =    -0.03336196   -0.03615364  -38.96260102
     atom   21 type  1   force =    -0.03806046   -1.39733522   -3.02387644
     atom   22 type  2   force =    -0.10989967   -2.38145848   37.94978402
     atom   23 type  2   force =    -0.30644397    0.21623067  -38.64019797
     atom   24 type  1   force =     0.04290194    0.80055498    1.11282607
     atom   25 type  2   force =    -0.80184878    0.01913958   38.15266493
     atom   26 type  2   force =    -0.08506018   -0.10393800  -38.27239856
     atom   27 type  1   force =    -0.24094272    0.83618464   -0.24944428
     atom   28 type  2   force =    -0.00360239    0.81984629   37.88981546
     atom   29 type  2   force =     0.02245930    0.01180292  -38.03346849
     atom   30 type  1   force =     0.03137021   -0.80098447    1.14800081
     atom   31 type  2   force =     1.03264300    0.13138887   38.14843484
     atom   32 type  2   force =    -0.35069658   -0.00901585  -38.32926875
     atom   33 type  1   force =    -0.09680111   -0.96140388    1.52498559
     atom   34 type  2   force =    -0.00316457   -0.76451333   38.59055714
     atom   35 type  2   force =     0.03414202    0.04115196  -37.96087515
     atom   36 type  3   force =     0.05275124   -0.05625781   50.40262892
     The local contribution  to forces
     atom    1 type  1   force =    -0.71728078   -1.35291163    1.54780589
     atom    2 type  2   force =    -0.83999349   -0.00819864  -37.91150319
     atom    3 type  2   force =    -0.11969710    0.09117692   38.09966720
     atom    4 type  1   force =    -0.23399088   -0.86812991    0.47242251
     atom    5 type  2   force =     0.38035837   -2.14010197  -37.54397797
     atom    6 type  2   force =    -0.18952215    0.16322707   38.54208972
     atom    7 type  1   force =     2.57506228    2.42982853   -1.24770229
     atom    8 type  2   force =     1.07157229   -0.11800006  -37.79447878
     atom    9 type  2   force =    -0.37365307    0.03762028   38.18552489
     atom   10 type  1   force =    -0.15780600    0.97625316   -1.31411067
     atom   11 type  2   force =    -0.10445952    2.41768220  -37.61039131
     atom   12 type  2   force =    -0.25707345   -0.20638476   38.51277942
     atom   13 type  1   force =     0.77904945   -1.31645420    1.46067322
     atom   14 type  2   force =     0.08066728   -0.04362547  -28.65329964
     atom   15 type  2   force =     0.03415023    0.13817516   37.90522432
     atom   16 type  1   force =    -0.02111688   -4.28576426   -0.69721486
     atom   17 type  2   force =    -0.38937795   -2.11620544  -37.58325289
     atom   18 type  2   force =     0.20850205    0.18230520   38.54919097
     atom   19 type  1   force =    -2.58291632    2.42483688   -1.96958292
     atom   20 type  2   force =     0.03256637    0.04922461   38.71850206
     atom   21 type  1   force =     0.03807015    1.36100397    3.00671020
     atom   22 type  2   force =     0.11664713    2.38244088  -37.70663109
     atom   23 type  2   force =     0.29764903   -0.20275889   38.39663638
     atom   24 type  1   force =    -0.04152721   -0.81857063   -1.12159803
     atom   25 type  2   force =     0.80085269   -0.01391091  -37.90034779
     atom   26 type  2   force =     0.08301760    0.11346838   38.02879523
     atom   27 type  1   force =     0.24655221   -0.84327513    0.24378550
     atom   28 type  2   force =     0.00324052   -0.80678545  -37.63229755
     atom   29 type  2   force =    -0.02245497   -0.00195955   37.78396295
     atom   30 type  1   force =    -0.03140105    0.78058936   -1.15187475
     atom   31 type  2   force =    -1.02848836   -0.13185269  -37.90232366
     atom   32 type  2   force =     0.34499514    0.02168542   38.08160529
     atom   33 type  1   force =     0.09839898    0.95497270   -1.52723044
     atom   34 type  2   force =     0.00281038    0.77116302  -38.33596092
     atom   35 type  2   force =    -0.03360202   -0.02872676   37.71489696
     atom   36 type  3   force =    -0.02977796    0.00398947  -48.10779276
     The core correction contribution to forces
     atom    1 type  1   force =     0.00000000    0.00000000    0.00000000
     atom    2 type  2   force =    -0.00006526    0.00015757    0.02133461
     atom    3 type  2   force =     0.00015926    0.00038103   -0.02076902
     atom    4 type  1   force =     0.00000000    0.00000000    0.00000000
     atom    5 type  2   force =    -0.00033982    0.00098921    0.02069338
     atom    6 type  2   force =     0.00006883   -0.00028155   -0.02081859
     atom    7 type  1   force =     0.00000000    0.00000000    0.00000000
     atom    8 type  2   force =    -0.00028229    0.00033964    0.02096633
     atom    9 type  2   force =     0.00064769    0.00064975   -0.02099578
     atom   10 type  1   force =     0.00000000    0.00000000    0.00000000
     atom   11 type  2   force =    -0.00011875   -0.00020941    0.02102035
     atom   12 type  2   force =     0.00074532    0.00105121   -0.02084259
     atom   13 type  1   force =     0.00000000    0.00000000    0.00000000
     atom   14 type  2   force =    -0.00014615    0.00037822   -0.01002984
     atom   15 type  2   force =     0.00000049    0.00052928   -0.02113243
     atom   16 type  1   force =     0.00000000    0.00000000    0.00000000
     atom   17 type  2   force =     0.00039165    0.00099927    0.02069855
     atom   18 type  2   force =    -0.00008829   -0.00021249   -0.02085274
     atom   19 type  1   force =     0.00000000    0.00000000    0.00000000
     atom   20 type  2   force =    -0.00005407    0.00063959   -0.02126099
     atom   21 type  1   force =     0.00000000    0.00000000    0.00000000
     atom   22 type  2   force =     0.00017378   -0.00013655    0.02103848
     atom   23 type  2   force =    -0.00078661    0.00093305   -0.02083450
     atom   24 type  1   force =     0.00000000    0.00000000    0.00000000
     atom   25 type  2   force =    -0.00003561    0.00018981    0.02131258
     atom   26 type  2   force =    -0.00016503    0.00038063   -0.02076996
     atom   27 type  1   force =     0.00000000    0.00000000    0.00000000
     atom   28 type  2   force =     0.00000145    0.00082696    0.02136665
     atom   29 type  2   force =     0.00004992    0.00028014   -0.02088693
     atom   30 type  1   force =     0.00000000    0.00000000    0.00000000
     atom   31 type  2   force =     0.00017198    0.00031692    0.02100616
     atom   32 type  2   force =    -0.00057913    0.00072725   -0.02098992
     atom   33 type  1   force =     0.00000000    0.00000000    0.00000000
     atom   34 type  2   force =    -0.00004315    0.00019417    0.02129077
     atom   35 type  2   force =     0.00001223    0.00075730   -0.02092384
     atom   36 type  3   force =     0.00026632   -0.00058926    0.02464812
     The Hubbard contrib.    to forces
     atom    1 type  1   force =     0.00000000    0.00000000    0.00000000
     atom    2 type  2   force =     0.00000000    0.00000000    0.00000000
     atom    3 type  2   force =     0.00000000    0.00000000    0.00000000
     atom    4 type  1   force =     0.00000000    0.00000000    0.00000000
     atom    5 type  2   force =     0.00000000    0.00000000    0.00000000
     atom    6 type  2   force =     0.00000000    0.00000000    0.00000000
     atom    7 type  1   force =     0.00000000    0.00000000    0.00000000
     atom    8 type  2   force =     0.00000000    0.00000000    0.00000000
     atom    9 type  2   force =     0.00000000    0.00000000    0.00000000
     atom   10 type  1   force =     0.00000000    0.00000000    0.00000000
     atom   11 type  2   force =     0.00000000    0.00000000    0.00000000
     atom   12 type  2   force =     0.00000000    0.00000000    0.00000000
     atom   13 type  1   force =     0.00000000    0.00000000    0.00000000
     atom   14 type  2   force =     0.00000000    0.00000000    0.00000000
     atom   15 type  2   force =     0.00000000    0.00000000    0.00000000
     atom   16 type  1   force =     0.00000000    0.00000000    0.00000000
     atom   17 type  2   force =     0.00000000    0.00000000    0.00000000
     atom   18 type  2   force =     0.00000000    0.00000000    0.00000000
     atom   19 type  1   force =     0.00000000    0.00000000    0.00000000
     atom   20 type  2   force =     0.00000000    0.00000000    0.00000000
     atom   21 type  1   force =     0.00000000    0.00000000    0.00000000
     atom   22 type  2   force =     0.00000000    0.00000000    0.00000000
     atom   23 type  2   force =     0.00000000    0.00000000    0.00000000
     atom   24 type  1   force =     0.00000000    0.00000000    0.00000000
     atom   25 type  2   force =     0.00000000    0.00000000    0.00000000
     atom   26 type  2   force =     0.00000000    0.00000000    0.00000000
     atom   27 type  1   force =     0.00000000    0.00000000    0.00000000
     atom   28 type  2   force =     0.00000000    0.00000000    0.00000000
     atom   29 type  2   force =     0.00000000    0.00000000    0.00000000
     atom   30 type  1   force =     0.00000000    0.00000000    0.00000000
     atom   31 type  2   force =     0.00000000    0.00000000    0.00000000
     atom   32 type  2   force =     0.00000000    0.00000000    0.00000000
     atom   33 type  1   force =     0.00000000    0.00000000    0.00000000
     atom   34 type  2   force =     0.00000000    0.00000000    0.00000000
     atom   35 type  2   force =     0.00000000    0.00000000    0.00000000
     atom   36 type  3   force =     0.00000000    0.00000000    0.00000000
     The SCF correction term to forces
     atom    1 type  1   force =     0.00002972    0.00001297   -0.00002143
     atom    2 type  2   force =     0.00000586   -0.00000411   -0.00000878
     atom    3 type  2   force =     0.00000302   -0.00000865   -0.00000271
     atom    4 type  1   force =    -0.00000249    0.00002495   -0.00002328
     atom    5 type  2   force =     0.00000706    0.00000405   -0.00001459
     atom    6 type  2   force =     0.00001224    0.00001352   -0.00000604
     atom    7 type  1   force =     0.00001425   -0.00000227   -0.00004857
     atom    8 type  2   force =    -0.00000241   -0.00000347   -0.00002319
     atom    9 type  2   force =    -0.00000657    0.00000755   -0.00001792
     atom   10 type  1   force =     0.00000728   -0.00001538   -0.00003436
     atom   11 type  2   force =    -0.00000437   -0.00000058   -0.00000658
     atom   12 type  2   force =     0.00000517   -0.00000896   -0.00001328
     atom   13 type  1   force =    -0.00003004    0.00000636   -0.00001124
     atom   14 type  2   force =    -0.00000090   -0.00001040    0.00000260
     atom   15 type  2   force =    -0.00000318   -0.00000385   -0.00001068
     atom   16 type  1   force =    -0.00002159    0.00004003   -0.00002070
     atom   17 type  2   force =    -0.00001049    0.00000901   -0.00001823
     atom   18 type  2   force =    -0.00000992    0.00001350    0.00001359
     atom   19 type  1   force =     0.00000165    0.00000352   -0.00002799
     atom   20 type  2   force =    -0.00000236    0.00001027    0.00000299
     atom   21 type  1   force =    -0.00000343   -0.00005687   -0.00002696
     atom   22 type  2   force =    -0.00000342   -0.00000581   -0.00001994
     atom   23 type  2   force =    -0.00000618   -0.00001234    0.00001278
     atom   24 type  1   force =    -0.00000701    0.00000560   -0.00001277
     atom   25 type  2   force =    -0.00000082   -0.00000385   -0.00000687
     atom   26 type  2   force =    -0.00000003   -0.00000676    0.00000572
     atom   27 type  1   force =    -0.00000327    0.00002262   -0.00002287
     atom   28 type  2   force =     0.00001178    0.00000440   -0.00001194
     atom   29 type  2   force =     0.00000230    0.00001903    0.00000100
     atom   30 type  1   force =     0.00002129   -0.00000666   -0.00004956
     atom   31 type  2   force =     0.00000692   -0.00000489   -0.00002670
     atom   32 type  2   force =    -0.00000149    0.00000089    0.00000181
     atom   33 type  1   force =     0.00000143   -0.00003095   -0.00002562
     atom   34 type  2   force =     0.00000856    0.00000639   -0.00001588
     atom   35 type  2   force =    -0.00000146   -0.00001509   -0.00000892
     atom   36 type  3   force =     0.00001801   -0.00004230    0.00002134

     Total force =     0.007041     Total SCF correction =     0.000174
     Energy error            =      9.9E-05 Ry
     Gradient error          =      2.6E-03 Ry/Bohr

     bfgs converged in  25 scf cycles and  24 bfgs steps
     (criteria: energy <  1.0E-04 Ry, force <  1.0E-02 Ry/Bohr)

     End of BFGS Geometry Optimization

     Final energy             =   -2246.4491803906 Ry

     File ./MoS2-V-O.bfgs deleted, as requested
Begin final coordinates

ATOMIC_POSITIONS (angstrom)
Mo            6.6230103177        1.7529584483        2.7372178924
S             8.1636516657        0.8311299105        4.3592527886
S             8.1879906202        0.8146984663        1.1586386451
Mo            8.1591907158        4.4759155890        2.7051166491
S             6.5655916369        3.6449413249        4.3076601194
S             6.5928248336        3.5575822840        1.0961289422
Mo            6.5640367764        7.1653473616        2.6563733458
S             8.1217853350        6.2865185976        4.2917065392
S             8.1826010204        6.3008814992        1.1019531619
Mo            8.1736902410        9.9166539063        2.7587577415
S             6.5589018721        8.9249939487        4.3139975260
S             6.6414869396        9.0036966601        1.1050731260
Mo            3.4388037108        1.7560578302        2.7391663869
S             5.0296817432        0.7958186776        4.2395307400
S             5.0297366940        0.8220552219        1.1712124718
Mo            5.0325675705        4.5162598044        2.6543312212
S             3.5023144438        3.6475413399        4.3102329048
S             3.4704507559        3.5624352390        1.0950248803
Mo            3.5034075169        7.1629598817        2.6692738127
S             5.0308263721        6.2988400011        1.0448260586
Mo            5.0310276523        9.8525744267        2.7069059566
S             3.5082417182        8.9281648319        4.3231571309
S             3.4211980349        8.9954692690        1.1143501262
Mo            0.3004768950        1.7157868946        2.7612210260
S             1.8929085723        0.8341917410        4.3589782364
S             1.8719940368        0.8149468871        1.1623956430
Mo            1.9067753591        4.4782072796        2.7097443569
S             0.3033024310        3.5859547528        4.3122170986
S             0.3070236385        3.5375722932        1.1444336256
Mo            0.3027854346        7.1933823510        2.7305264375
S             1.9360813069        6.2866750574        4.3022893480
S             1.8857503833        6.3048818832        1.1101202633
Mo            1.8890806097        9.9153826008        2.7632208907
S             0.3007310779        9.0044766006        4.3548355354
S             0.3033099189        9.0279405950        1.1661280959
O             5.0436158279       11.6969529543        5.7390888251
End final coordinates



     Writing all to output data dir ./MoS2-V-O.save/
 
     init_run     :      4.61s CPU      4.93s WALL (       1 calls)
     electrons    :   2331.73s CPU   2569.69s WALL (      25 calls)
     update_pot   :     73.20s CPU     76.55s WALL (      24 calls)
     forces       :     67.92s CPU     73.34s WALL (      25 calls)

     Called by init_run:
     wfcinit      :      0.50s CPU      0.54s WALL (       1 calls)
     potinit      :      2.33s CPU      2.51s WALL (       1 calls)
     hinit0       :      0.46s CPU      0.48s WALL (       1 calls)

     Called by electrons:
     c_bands      :    344.88s CPU    350.98s WALL (     237 calls)
     sum_band     :    144.07s CPU    160.70s WALL (     237 calls)
     v_of_rho     :    220.00s CPU    252.57s WALL (     254 calls)
     newd         :     76.09s CPU     89.90s WALL (     254 calls)
     PAW_pot      :     10.06s CPU     10.09s WALL (     278 calls)
     mix_rho      :   1561.47s CPU   1728.82s WALL (     237 calls)

     Called by c_bands:
     init_us_2    :      5.66s CPU      5.83s WALL (     499 calls)
     init_us_2:cp :      5.66s CPU      5.83s WALL (     499 calls)
     regterg      :    327.79s CPU    333.68s WALL (     237 calls)

     Called by *egterg:
     rdiaghg      :     21.85s CPU     22.03s WALL (    1261 calls)
     h_psi        :    214.12s CPU    215.68s WALL (    1294 calls)
     s_psi        :     19.89s CPU     19.95s WALL (    1294 calls)
     g_psi        :      1.07s CPU      1.08s WALL (    1056 calls)

     Called by h_psi:
     h_psi:calbec :     22.06s CPU     22.13s WALL (    1294 calls)
     vloc_psi     :    169.80s CPU    171.19s WALL (    1294 calls)
     add_vuspsi   :     19.50s CPU     19.58s WALL (    1294 calls)

     General routines
     calbec       :     31.95s CPU     32.07s WALL (    1655 calls)
     fft          :    149.51s CPU    173.15s WALL (   16951 calls)
     ffts         :    694.10s CPU    855.67s WALL (  381363 calls)
     fftw         :    104.21s CPU    104.99s WALL (  145358 calls)
     interpolate  :      3.18s CPU      3.62s WALL (     254 calls)
 
     Parallel routines
 
     PWSCF        :  41m28.07s CPU  45m38.24s WALL

 
   This run was terminated on:   0:12: 0   2Nov2023            

=------------------------------------------------------------------------------=
   JOB DONE.
=------------------------------------------------------------------------------=
