
     Program PWSCF v.7.2 starts on  1Nov2023 at 17:35:47 

     This program is part of the open-source Quantum ESPRESSO suite
     for quantum simulation of materials; please cite
         "P. Giannozzi et al., J. Phys.:Condens. Matter 21 395502 (2009);
         "P. Giannozzi et al., J. Phys.:Condens. Matter 29 465901 (2017);
         "P. Giannozzi et al., J. Chem. Phys. 152 154105 (2020);
          URL http://www.quantum-espresso.org", 
     in publications or presentations arising from this work. More details at
     http://www.quantum-espresso.org/quote

     Parallel version (MPI & OpenMP), running on      48 processor cores
     Number of MPI processes:                48
     Threads/MPI process:                     1

     MPI processes distributed on     1 nodes
     45640 MiB available memory on the printing compute node when the environment starts
 
     Waiting for input...
     Reading input from standard input
Warning: card &CELL ignored
Warning: card CELL_DYNAMICS = 'BFGS', ignored
Warning: card CELL_DOFREE = '2DXY' ignored
Warning: card / ignored

     Current dimensions of program PWSCF are:
     Max number of different atomic species (ntypx) = 10
     Max number of k-points (npk) =  40000
     Max angular momentum in pseudopotentials (lmaxx) =  4
     file O.pbe-n-kjpaw_psl.0.1.UPF: wavefunction(s)  2P renormalized

     IMPORTANT: XC functional enforced from input :
     Exchange-correlation= RVV10
                           (   1   4  13   4  26   0   0)
     Any further DFT definition will be discarded
     Please, verify this is what you really want


     gamma-point specific algorithms are used
     signal trapping enabled: kill the code with -SIGUSR1 to stop cleanly the simulation 
 
     R & G space division:  proc/nbgrp/npool/nimage =      48
     Subspace diagonalization in iterative solution of the eigenvalue problem:
     one sub-group per band group will be used
     scalapack distributed-memory algorithm (size of sub-group:  2*  2 procs)

 
     Parallelization info
     --------------------
     sticks:   dense  smooth     PW     G-vecs:    dense   smooth      PW
     Min         396     194     47               101632    35090    4376
     Max         398     196     50               101674    35128    4410
     Sum       19091    9389   2349              4879585  1685513  210763
 
     Using Slab Decomposition
 


     bravais-lattice index     =            0
     lattice parameter (alat)  =      17.8707  a.u.
     unit-cell volume          =   17436.2743 (a.u.)^3
     number of atoms/cell      =           36
     number of atomic types    =            3
     number of electrons       =       312.00
     number of Kohn-Sham states=          187
     kinetic-energy cutoff     =      80.0000  Ry
     charge density cutoff     =     650.0000  Ry
     scf convergence threshold =      1.0E-06
     mixing beta               =       0.7000
     number of iterations used =            8  local-TF  mixing
     energy convergence thresh.=      1.0E-04
     force convergence thresh. =      1.0E-02
     Exchange-correlation= RVV10
                           (   1   4  13   4  26   0   0)
     nstep                     =          200


     celldm(1)=  17.870686  celldm(2)=   0.000000  celldm(3)=   0.000000
     celldm(4)=   0.000000  celldm(5)=   0.000000  celldm(6)=   0.000000

     crystal axes: (cart. coord. in units of alat)
               a(1) = (   1.000000   0.000000   0.000000 )  
               a(2) = (   0.000000   1.155671   0.000000 )  
               a(3) = (   0.000000   0.000000   2.643601 )  

     reciprocal axes: (cart. coord. in units 2 pi/alat)
               b(1) = (  1.000000  0.000000  0.000000 )  
               b(2) = (  0.000000  0.865298  0.000000 )  
               b(3) = (  0.000000  0.000000  0.378272 )  


     PseudoPot. # 1 for Mo read from file:
     ../pseudo/Mo_ONCV_PBE-1.0.oncvpsp.upf
     MD5 check sum: 1b5d28e075c9ccadda658a603575cd1f
     Pseudo is Norm-conserving, Zval = 14.0
     Generated using ONCVPSP code by D. R. Hamann
     Using radial grid of 1526 points,  6 beta functions with: 
                l(1) =   0
                l(2) =   0
                l(3) =   1
                l(4) =   1
                l(5) =   2
                l(6) =   2

     PseudoPot. # 2 for S  read from file:
     ../pseudo/s_pbe_v1.4.uspp.F.UPF
     MD5 check sum: 88d86576ff6df21479756cfb9bdac1df
     Pseudo is Ultrasoft + core correction, Zval =  6.0
     Generated by new atomic code, or converted to UPF format
     Using radial grid of  907 points,  6 beta functions with: 
                l(1) =   0
                l(2) =   0
                l(3) =   1
                l(4) =   1
                l(5) =   2
                l(6) =   2
     Q(r) pseudized with  8 coefficients,  rinner =    1.300   1.300   1.300
                                                       1.300   1.300

     PseudoPot. # 3 for O  read from file:
     ../pseudo/O.pbe-n-kjpaw_psl.0.1.UPF
     MD5 check sum: 0234752ac141de4415c5fc33072bef88
     Pseudo is Projector augmented-wave + core cor, Zval =  6.0
     Generated using "atomic" code by A. Dal Corso  v.5.0.99 svn rev. 10869
     Shape of augmentation charge: BESSEL
     Using radial grid of 1095 points,  4 beta functions with: 
                l(1) =   0
                l(2) =   0
                l(3) =   1
                l(4) =   1
     Q(r) pseudized with 0 coefficients 


     atomic species   valence    mass     pseudopotential
        Mo            14.00    95.94000     Mo( 1.00)
        S              6.00    32.06500     S ( 1.00)
        O              6.00    15.99940     O ( 1.00)

     No symmetry found



   Cartesian axes

     site n.     atom                  positions (alat units)
         1           Mo  tau(   1) = (   0.6952221   0.1890506   0.2985846  )
         2           S   tau(   2) = (   0.8646417   0.0856217   0.4689279  )
         3           S   tau(   3) = (   0.8663890   0.0857843   0.1351291  )
         4           Mo  tau(   4) = (   0.8560186   0.4753274   0.2873942  )
         5           S   tau(   5) = (   0.6873294   0.3936244   0.4596353  )
         6           S   tau(   6) = (   0.6929804   0.3713468   0.1185692  )
         7           Mo  tau(   7) = (   0.6862796   0.7633098   0.2825370  )
         8           S   tau(   8) = (   0.8545980   0.6708292   0.4486168  )
         9           S   tau(   9) = (   0.8545123   0.6666874   0.1146125  )
        10           Mo  tau(  10) = (   0.8629403   1.0471007   0.3006803  )
        11           S   tau(  11) = (   0.6868280   0.9456650   0.4634891  )
        12           S   tau(  12) = (   0.6998113   0.9568511   0.1205389  )
        13           Mo  tau(  13) = (   0.3618216   0.1847309   0.2935964  )
        14           S   tau(  14) = (   0.5260962   0.0863870   0.4600448  )
        15           S   tau(  15) = (   0.5348379   0.0894875   0.1297123  )
        16           Mo  tau(  16) = (   0.5265817   0.4772436   0.2784130  )
        17           S   tau(  17) = (   0.3624753   0.3882513   0.4525556  )
        18           S   tau(  18) = (   0.3635411   0.3752055   0.1119148  )
        19           Mo  tau(  19) = (   0.3652268   0.7630864   0.2781795  )
        20           S   tau(  20) = (   0.5269494   0.6690381   0.1096838  )
        21           Mo  tau(  21) = (   0.5300192   1.0470394   0.2900995  )
        22           S   tau(  22) = (   0.3670346   0.9457522   0.4574073  )
        23           S   tau(  23) = (   0.3604225   0.9585725   0.1159032  )
        24           Mo  tau(  24) = (   0.0313099   0.1847895   0.3013130  )
        25           S   tau(  25) = (   0.1956761   0.0838230   0.4650863  )
        26           S   tau(  26) = (   0.1967693   0.0903508   0.1278874  )
        27           Mo  tau(  27) = (   0.1967578   0.4753919   0.2813011  )
        28           S   tau(  28) = (   0.0287851   0.3864324   0.4586755  )
        29           S   tau(  29) = (   0.0244514   0.3729871   0.1239344  )
        30           Mo  tau(  30) = (   0.0286728   0.7631204   0.2856894  )
        31           S   tau(  31) = (   0.2011512   0.6675435   0.4465001  )
        32           S   tau(  32) = (   0.1969214   0.6672839   0.1104564  )
        33           Mo  tau(  33) = (   0.1950294   1.0511147   0.2932237  )
        34           S   tau(  34) = (   0.0312912   0.9612169   0.4667423  )
        35           S   tau(  35) = (   0.0292670   0.9563028   0.1216485  )
        36           O   tau(  36) = (   0.1111111   0.6420393   0.5792558  )

     number of k points=     1  Gaussian smearing, width (Ry)=  0.0100
                       cart. coord. in units 2pi/alat
        k(    1) = (   0.0000000   0.0000000   0.0000000), wk =   2.0000000

     Dense  grid:  2439793 G-vectors     FFT dimensions: ( 150, 180, 384)

     Smooth grid:   842757 G-vectors     FFT dimensions: ( 108, 120, 270)

     Estimated max dynamical RAM per process >     269.22 MB

     Estimated total dynamical RAM >      12.62 GB

     Initial potential from superposition of free atoms

     starting charge     311.9873, renormalised to     312.0000

     negative rho (up, down):  2.753E-04 0.000E+00


---------------------------------------------------------------------------------
Carrying out rVV10 run using the following parameters:
Nqs =      20    Nr_points =    1024   r_max =   100.000
b_value =  6.30000    beta =  0.00901
     q_mesh =  0.00010000  0.00030000  0.00058939  0.00100810
               0.00161396  0.00249058  0.00375900  0.00559430
               0.00824984  0.01209221  0.01765183  0.02569619
               0.03733578  0.05417739  0.07854596  0.11380545
               0.16482331  0.23864234  0.34545298  0.50000000

Gradients computed in Reciprocal space

---------------------------------------------------------------------------------


     Starting wfcs are  216 randomized atomic wfcs
     Checking if some PAW data can be deallocated... 

     total cpu time spent up to now is        5.3 secs

     Self-consistent Calculation

     iteration #  1     ecut=    80.00 Ry     beta= 0.70
     Davidson diagonalization with overlap
     ethr =  1.00E-02,  avg # of iterations =  2.0

     Threshold (ethr) on eigenvalues was too large:
     Diagonalizing with lowered threshold

     Davidson diagonalization with overlap
     ethr =  4.35E-04,  avg # of iterations =  4.0

     negative rho (up, down):  3.319E-08 0.000E+00

     total cpu time spent up to now is       23.5 secs

     total energy              =   -2246.33523732 Ry
     estimated scf accuracy    <       1.60370558 Ry

     iteration #  2     ecut=    80.00 Ry     beta= 0.70
     Davidson diagonalization with overlap
     ethr =  5.14E-04,  avg # of iterations =  3.0

     total cpu time spent up to now is       28.3 secs

     total energy              =   -2246.33128082 Ry
     estimated scf accuracy    <       0.54229176 Ry

     iteration #  3     ecut=    80.00 Ry     beta= 0.70
     Davidson diagonalization with overlap
     ethr =  1.74E-04,  avg # of iterations =  2.0

     total cpu time spent up to now is       32.2 secs

     total energy              =   -2246.34352901 Ry
     estimated scf accuracy    <       0.11666030 Ry

     iteration #  4     ecut=    80.00 Ry     beta= 0.70
     Davidson diagonalization with overlap
     ethr =  3.74E-05,  avg # of iterations = 15.0

     total cpu time spent up to now is       36.9 secs

     total energy              =   -2246.36269076 Ry
     estimated scf accuracy    <       0.02267738 Ry

     iteration #  5     ecut=    80.00 Ry     beta= 0.70
     Davidson diagonalization with overlap
     ethr =  7.27E-06,  avg # of iterations =  4.0

     total cpu time spent up to now is       40.7 secs

     total energy              =   -2246.36229023 Ry
     estimated scf accuracy    <       0.01359311 Ry

     iteration #  6     ecut=    80.00 Ry     beta= 0.70
     Davidson diagonalization with overlap
     ethr =  4.36E-06,  avg # of iterations =  2.0

     total cpu time spent up to now is       44.3 secs

     total energy              =   -2246.36158834 Ry
     estimated scf accuracy    <       0.00838269 Ry

     iteration #  7     ecut=    80.00 Ry     beta= 0.70
     Davidson diagonalization with overlap
     ethr =  2.69E-06,  avg # of iterations =  2.0

     negative rho (up, down):  8.476E-05 0.000E+00

     total cpu time spent up to now is       50.6 secs

     total energy              =   -2246.36069680 Ry
     estimated scf accuracy    <       0.00505887 Ry

     iteration #  8     ecut=    80.00 Ry     beta= 0.70
     Davidson diagonalization with overlap
     ethr =  1.62E-06,  avg # of iterations =  2.0

     negative rho (up, down):  1.072E-02 0.000E+00

     total cpu time spent up to now is       56.5 secs

     total energy              =   -2246.36020485 Ry
     estimated scf accuracy    <       0.00292040 Ry

     iteration #  9     ecut=    80.00 Ry     beta= 0.70
     Davidson diagonalization with overlap
     ethr =  9.36E-07,  avg # of iterations =  2.0

     negative rho (up, down):  2.395E-02 0.000E+00

     total cpu time spent up to now is       62.0 secs

     total energy              =   -2246.36009827 Ry
     estimated scf accuracy    <       0.00157869 Ry

     iteration # 10     ecut=    80.00 Ry     beta= 0.70
     Davidson diagonalization with overlap
     ethr =  5.06E-07,  avg # of iterations =  2.0

     negative rho (up, down):  2.086E-02 0.000E+00

     total cpu time spent up to now is       68.9 secs

     total energy              =   -2246.36014378 Ry
     estimated scf accuracy    <       0.00052653 Ry

     iteration # 11     ecut=    80.00 Ry     beta= 0.70
     Davidson diagonalization with overlap
     ethr =  1.69E-07,  avg # of iterations = 10.0

     negative rho (up, down):  1.064E-02 0.000E+00

     total cpu time spent up to now is       76.8 secs

     total energy              =   -2246.36013507 Ry
     estimated scf accuracy    <       0.00010629 Ry

     iteration # 12     ecut=    80.00 Ry     beta= 0.70
     Davidson diagonalization with overlap
     ethr =  3.41E-08,  avg # of iterations = 15.0

     negative rho (up, down):  3.624E-03 0.000E+00

     total cpu time spent up to now is       86.5 secs

     total energy              =   -2246.36018481 Ry
     estimated scf accuracy    <       0.00003547 Ry

     iteration # 13     ecut=    80.00 Ry     beta= 0.70
     Davidson diagonalization with overlap
     ethr =  1.14E-08,  avg # of iterations =  2.0

     negative rho (up, down):  9.091E-04 0.000E+00

     total cpu time spent up to now is       94.8 secs

     total energy              =   -2246.36019477 Ry
     estimated scf accuracy    <       0.00001061 Ry

     iteration # 14     ecut=    80.00 Ry     beta= 0.70
     Davidson diagonalization with overlap
     ethr =  3.40E-09,  avg # of iterations =  2.0

     negative rho (up, down):  4.855E-04 0.000E+00

     total cpu time spent up to now is      104.0 secs

     total energy              =   -2246.36019799 Ry
     estimated scf accuracy    <       0.00000288 Ry

     iteration # 15     ecut=    80.00 Ry     beta= 0.70
     Davidson diagonalization with overlap
     ethr =  9.23E-10,  avg # of iterations =  4.0

     negative rho (up, down):  2.829E-04 0.000E+00

     total cpu time spent up to now is      110.9 secs

     total energy              =   -2246.36019979 Ry
     estimated scf accuracy    <       0.00000101 Ry

     iteration # 16     ecut=    80.00 Ry     beta= 0.70
     Davidson diagonalization with overlap
     ethr =  3.23E-10,  avg # of iterations =  4.0

     negative rho (up, down):  1.955E-04 0.000E+00

     total cpu time spent up to now is      114.5 secs

     End of self-consistent calculation

          k = 0.0000 0.0000 0.0000 (105382 PWs)   bands (ev):

   -63.0099 -62.9773 -62.9696 -62.9545 -62.9506 -62.9470 -62.9389 -62.9342
   -62.9315 -62.9222 -62.8820 -62.7719 -37.3719 -37.3121 -37.2676 -37.2491
   -37.2324 -37.2214 -37.2052 -37.1983 -37.1926 -37.1817 -37.1631 -37.1524
   -37.1396 -37.1371 -37.1299 -37.1241 -37.1208 -37.1147 -37.1109 -37.1015
   -37.0958 -37.0909 -37.0888 -37.0627 -37.0458 -37.0363 -37.0267 -37.0116
   -36.9839 -36.9656 -36.9558 -36.9322 -36.9220 -36.9156 -36.8661 -36.8482
   -22.0334 -16.0437 -15.2957 -15.1782 -15.0518 -14.9947 -14.8822 -14.6177
   -14.5645 -14.5176 -14.5054 -14.4620 -14.4274 -14.4012 -14.3657 -14.2532
   -14.2096 -14.1966 -14.1593 -14.0365 -13.9690 -13.9317 -13.9016 -13.7799
    -7.9905  -7.8423  -7.6533  -7.5634  -7.4261  -7.3622  -7.3208  -7.2995
    -7.2469  -7.0859  -6.9777  -6.9280  -6.8412  -6.8102  -6.6813  -6.6359
    -6.5284  -6.5172  -6.3861  -6.3639  -6.1983  -6.1372  -6.0275  -5.9374
    -5.8980  -5.8684  -5.8284  -5.8154  -5.7796  -5.7427  -5.7094  -5.6735
    -5.6264  -5.6104  -5.5279  -5.3538  -5.3102  -5.1870  -5.1414  -5.1323
    -5.0618  -5.0138  -4.9410  -4.8630  -4.7950  -4.7103  -4.4247  -4.4203
    -4.3558  -4.2829  -4.2276  -4.1976  -4.1625  -4.0236  -4.0060  -3.8835
    -3.8299  -3.8120  -3.7428  -3.6598  -3.6553  -3.6211  -3.5746  -3.5562
    -3.5048  -3.4894  -3.4000  -3.3004  -3.0773  -3.0559  -3.0033  -2.9634
    -2.9298  -2.8901  -2.8342  -2.7642  -2.7475  -2.7169  -2.5850  -2.4060
    -2.3527  -2.0993  -2.0638  -2.0250  -1.0972  -0.9446  -0.4334  -0.2776
    -0.2273  -0.1689  -0.0610   0.0523   0.0732   0.1061   0.1248   0.1621
     0.2051   0.2517   0.3066   0.3687   0.4305   0.4592   0.4918   0.5362
     0.5868   0.6389   0.6565   0.6915   0.7189   0.7341   0.7901   0.8572
     0.9031   0.9691   1.2242

     the Fermi energy is    -1.5599 ev

!    total energy              =   -2246.36019973 Ry
     estimated scf accuracy    <       0.00000030 Ry
     smearing contrib. (-TS)   =      -0.00000011 Ry
     internal energy E=F+TS    =   -2246.36019963 Ry

     The total energy is F=E-TS. E is the sum of the following terms:
     one-electron contribution =  -18430.11058758 Ry
     hartree contribution      =    9202.72398848 Ry
     xc contribution           =    -392.06257866 Ry
     ewald contribution        =    7382.94829840 Ry
     one-center paw contrib.   =      -9.85932027 Ry

     convergence has been achieved in  16 iterations

     negative rho (up, down):  1.955E-04 0.000E+00

     Forces acting on atoms (cartesian axes, Ry/au):

     atom    1 type  1   force =     0.01337457   -0.02548834    0.00626470
     atom    2 type  2   force =    -0.01475521    0.01702338    0.00068987
     atom    3 type  2   force =    -0.01250059    0.00975896   -0.00282708
     atom    4 type  1   force =     0.00503285    0.00640791    0.00023300
     atom    5 type  2   force =    -0.00178130   -0.00693144   -0.00666413
     atom    6 type  2   force =     0.00035987    0.01015747   -0.00149401
     atom    7 type  1   force =     0.00911724   -0.01515994   -0.00421213
     atom    8 type  2   force =    -0.00882878    0.00052813    0.00909866
     atom    9 type  2   force =     0.01036215    0.00459858    0.01224004
     atom   10 type  1   force =    -0.01033981    0.00775909   -0.02900539
     atom   11 type  2   force =     0.00497366   -0.00059400   -0.00593950
     atom   12 type  2   force =    -0.00105464   -0.00075356    0.00538051
     atom   13 type  1   force =     0.00771419    0.00672304   -0.00754272
     atom   14 type  2   force =     0.00811963   -0.00102381    0.01220560
     atom   15 type  2   force =    -0.01272787    0.00260196   -0.00775178
     atom   16 type  1   force =    -0.00549777    0.01318320    0.00122086
     atom   17 type  2   force =     0.00427226   -0.00043306    0.00592159
     atom   18 type  2   force =     0.00191486   -0.00864567    0.01263229
     atom   19 type  1   force =     0.02306353   -0.00167719    0.00731240
     atom   20 type  2   force =    -0.00060749   -0.00576950   -0.00156481
     atom   21 type  1   force =    -0.00702839    0.00503755    0.00119320
     atom   22 type  2   force =    -0.00286647    0.00534203   -0.00291560
     atom   23 type  2   force =    -0.00020623    0.00052361    0.00647078
     atom   24 type  1   force =    -0.00871249   -0.00087514   -0.02200165
     atom   25 type  2   force =     0.01585063    0.01697264    0.00838969
     atom   26 type  2   force =    -0.01100361   -0.00027078   -0.00386243
     atom   27 type  1   force =     0.00478603   -0.00895901   -0.00486741
     atom   28 type  2   force =     0.00055760   -0.00323055   -0.00730750
     atom   29 type  2   force =     0.00171262   -0.00045033   -0.00273805
     atom   30 type  1   force =     0.00272582    0.01893304   -0.03318456
     atom   31 type  2   force =    -0.08754060   -0.02524830    0.00346666
     atom   32 type  2   force =    -0.00822520    0.00793313    0.01038692
     atom   33 type  1   force =     0.00987463   -0.00771897   -0.00731533
     atom   34 type  2   force =     0.00522632   -0.04308980   -0.00735915
     atom   35 type  2   force =    -0.00910855    0.00929191    0.01648957
     atom   36 type  3   force =     0.07374654    0.01354375    0.03895693
     The non-local contrib.  to forces
     atom    1 type  1   force =     0.00003379    0.03507211   -0.01233639
     atom    2 type  2   force =    -0.00893897    0.00263364   -0.27301766
     atom    3 type  2   force =    -0.01493524   -0.00233981    0.27040669
     atom    4 type  1   force =     0.00288931    0.00196516    0.00561167
     atom    5 type  2   force =     0.00285768   -0.03407605   -0.25620620
     atom    6 type  2   force =    -0.00258084    0.01313511    0.26390548
     atom    7 type  1   force =    -0.00756721    0.00286824   -0.03340262
     atom    8 type  2   force =    -0.02363125   -0.00252558   -0.26521677
     atom    9 type  2   force =     0.00275832   -0.01006091    0.27311755
     atom   10 type  1   force =     0.00516130   -0.00078941    0.00284693
     atom   11 type  2   force =     0.01587466    0.00307057   -0.26204618
     atom   12 type  2   force =    -0.01379833   -0.01526789    0.26288089
     atom   13 type  1   force =    -0.00044613    0.01750817   -0.00628646
     atom   14 type  2   force =     0.01106544   -0.01252232   -0.26616824
     atom   15 type  2   force =    -0.01349213   -0.00584930    0.26066066
     atom   16 type  1   force =     0.00465725    0.02136468   -0.03329195
     atom   17 type  2   force =    -0.00190754   -0.02457069   -0.25437272
     atom   18 type  2   force =     0.00140469   -0.00491608    0.27288702
     atom   19 type  1   force =     0.02068274   -0.02086378   -0.00230716
     atom   20 type  2   force =    -0.00108375   -0.02030851    0.26800324
     atom   21 type  1   force =     0.00696553    0.03190088    0.00719688
     atom   22 type  2   force =    -0.00434443    0.00036105   -0.26066043
     atom   23 type  2   force =     0.00924516   -0.01687146    0.26909694
     atom   24 type  1   force =    -0.00223257    0.01680788   -0.01138727
     atom   25 type  2   force =     0.01235506    0.00453763   -0.26206952
     atom   26 type  2   force =    -0.00140014   -0.01332354    0.26327131
     atom   27 type  1   force =    -0.00001376    0.03034330    0.02766858
     atom   28 type  2   force =    -0.01439117   -0.03095629   -0.28156460
     atom   29 type  2   force =     0.00937188    0.00134555    0.26361713
     atom   30 type  1   force =     0.01953894    0.01106044    0.02978953
     atom   31 type  2   force =    -0.19512524   -0.06572395    0.27184642
     atom   32 type  2   force =    -0.00333432   -0.00931086    0.28070638
     atom   33 type  1   force =    -0.00969932    0.01247012    0.00718840
     atom   34 type  2   force =     0.00205690   -0.03362908   -0.27695138
     atom   35 type  2   force =    -0.00139652   -0.01021961    0.27089718
     atom   36 type  3   force =     1.31367697    0.34504476   -1.65350286
     The ionic contribution  to forces
     atom    1 type  1   force =     0.21368419   -0.14295317    4.71319773
     atom    2 type  2   force =    -0.84331842    0.33959043   39.06650139
     atom    3 type  2   force =    -0.23062591   -0.00646750  -36.59260270
     atom    4 type  1   force =    -1.18393559   -0.43702838   -1.70998502
     atom    5 type  2   force =    -1.23863034    1.07253460   38.42447874
     atom    6 type  2   force =     0.28387942   -0.64228445  -38.60889827
     atom    7 type  1   force =    -3.10153438   -2.34926083    0.95738995
     atom    8 type  2   force =    -3.08133334    0.28853827   36.10011390
     atom    9 type  2   force =     0.12732987   -0.00537785  -38.87308579
     atom   10 type  1   force =    -1.56027729    0.44235375    4.39956335
     atom   11 type  2   force =    -0.77189443   -1.19768864   38.86238211
     atom   12 type  2   force =     0.38399564    0.83418467  -38.41210196
     atom   13 type  1   force =     0.83947877    0.46157324    1.70018593
     atom   14 type  2   force =     0.14481260   -0.04939649   38.32109795
     atom   15 type  2   force =     0.18717295   -0.08296299  -37.27245951
     atom   16 type  1   force =     0.45845256    3.41946635   -1.07781847
     atom   17 type  2   force =     1.62236072    0.56950312   37.33583764
     atom   18 type  2   force =    -0.02902030   -0.83595422  -39.25043158
     atom   19 type  1   force =     4.10735221   -1.63258726   -1.94823643
     atom   20 type  2   force =     0.32219644   -0.17436419  -39.16526093
     atom   21 type  1   force =     0.23572938    0.52459175    0.10880582
     atom   22 type  2   force =     1.04858035   -0.91593046   37.97548560
     atom   23 type  2   force =     0.02828873    0.85360402  -38.92982564
     atom   24 type  1   force =    -0.74280765    0.37879775    4.50564148
     atom   25 type  2   force =     0.75335449    0.19732649   39.01245891
     atom   26 type  2   force =    -0.25460591    0.03242612  -37.87832156
     atom   27 type  1   force =     0.89895482   -1.40084506   -6.10658628
     atom   28 type  2   force =    -0.60791820   -1.08684204   37.08754830
     atom   29 type  2   force =    -0.34547132   -0.70029714  -38.08630510
     atom   30 type  1   force =    -1.41050310    0.76251613   -4.65364774
     atom   31 type  2   force =     5.87099551    1.27456918   30.29244504
     atom   32 type  2   force =    -0.35782051    0.03741217  -39.73920063
     atom   33 type  1   force =     1.03741355    0.17219977    0.54020306
     atom   34 type  2   force =    -0.13123573    0.04649363   38.69541016
     atom   35 type  2   force =    -0.36395529    0.73365226  -38.56131842
     atom   36 type  3   force =    -2.30914448   -0.78109303   48.76733896
     The local contribution  to forces
     atom    1 type  1   force =    -0.20040610    0.08233943   -4.69504074
     atom    2 type  2   force =     0.83728144   -0.32504478  -38.81383223
     atom    3 type  2   force =     0.23236424    0.01854387   36.33991838
     atom    4 type  1   force =     1.18599985    0.44145734    1.70401493
     atom    5 type  2   force =     1.23439658   -1.04731369  -38.19560747
     atom    6 type  2   force =    -0.28129076    0.64047694   38.36405342
     atom    7 type  1   force =     3.11818417    2.33125339   -0.92882963
     atom    8 type  2   force =     3.09432941   -0.28586071  -35.84733396
     atom    9 type  2   force =    -0.11988183    0.01947847   38.63265774
     atom   10 type  1   force =     1.54474314   -0.43373153   -4.43194176
     atom   11 type  2   force =     0.76166073    1.19444835  -38.62721671
     atom   12 type  2   force =    -0.37250864   -0.82102908   38.17511573
     atom   13 type  1   force =    -0.83121358   -0.47250259   -1.70195501
     atom   14 type  2   force =    -0.14719113    0.06071180  -38.06368777
     atom   15 type  2   force =    -0.18715564    0.09102403   37.02427232
     atom   16 type  1   force =    -0.46847587   -3.42765909    1.11168503
     atom   17 type  2   force =    -1.61629119   -0.54669817  -37.09615116
     atom   18 type  2   force =     0.02981107    0.83261197   39.01078619
     atom   19 type  1   force =    -4.10479666    1.65183584    1.95701081
     atom   20 type  2   force =    -0.32193841    0.18816531   38.91663180
     atom   21 type  1   force =    -0.24970409   -0.55136743   -0.11535232
     atom   22 type  2   force =    -1.04711250    0.92118688  -37.73854745
     atom   23 type  2   force =    -0.03705089   -0.83759535   38.68777405
     atom   24 type  1   force =     0.73629548   -0.39652637   -4.51673094
     atom   25 type  2   force =    -0.74957628   -0.18447857  -38.76296363
     atom   26 type  2   force =     0.24525679   -0.02008143   37.63170527
     atom   27 type  1   force =    -0.89421159    1.36149413    6.07323157
     atom   28 type  2   force =     0.62197329    1.11195830  -36.83509987
     atom   29 type  2   force =     0.33847307    0.69907834   37.84010642
     atom   30 type  1   force =     1.39356763   -0.75462006    4.58984633
     atom   31 type  2   force =    -5.77508445   -1.23787123  -30.55291109
     atom   32 type  2   force =     0.35305662   -0.02070755   39.48994789
     atom   33 type  1   force =    -1.01782858   -0.19221089   -0.55532325
     atom   34 type  2   force =     0.13417338   -0.05678455  -38.44742218
     atom   35 type  2   force =     0.35636936   -0.71499836   38.32761194
     atom   36 type  3   force =     1.08352188    0.45331698  -47.09233958
     The core correction contribution to forces
     atom    1 type  1   force =     0.00000000    0.00000000    0.00000000
     atom    2 type  2   force =     0.00019965   -0.00014505    0.02090382
     atom    3 type  2   force =     0.00068814    0.00002486   -0.02089405
     atom    4 type  1   force =     0.00000000    0.00000000    0.00000000
     atom    5 type  2   force =    -0.00039565    0.00188748    0.02057099
     atom    6 type  2   force =     0.00036507   -0.00118847   -0.02092785
     atom    7 type  1   force =     0.00000000    0.00000000    0.00000000
     atom    8 type  2   force =     0.00170586    0.00038811    0.02135010
     atom    9 type  2   force =     0.00015259    0.00057917   -0.02081599
     atom   10 type  1   force =     0.00000000    0.00000000    0.00000000
     atom   11 type  2   force =    -0.00068583   -0.00041542    0.02080274
     atom   12 type  2   force =     0.00124233    0.00133815   -0.02086251
     atom   13 type  1   force =     0.00000000    0.00000000    0.00000000
     atom   14 type  2   force =    -0.00055980    0.00018709    0.02082387
     atom   15 type  2   force =     0.00073695    0.00038699   -0.02056820
     atom   16 type  1   force =     0.00000000    0.00000000    0.00000000
     atom   17 type  2   force =     0.00017142    0.00122133    0.02049146
     atom   18 type  2   force =    -0.00028306   -0.00041755   -0.02099902
     atom   19 type  1   force =     0.00000000    0.00000000    0.00000000
     atom   20 type  2   force =     0.00022799    0.00079499   -0.02128756
     atom   21 type  1   force =     0.00000000    0.00000000    0.00000000
     atom   22 type  2   force =     0.00008929   -0.00020445    0.02067464
     atom   23 type  2   force =    -0.00066596    0.00137908   -0.02094807
     atom   24 type  1   force =     0.00000000    0.00000000    0.00000000
     atom   25 type  2   force =    -0.00026043   -0.00040606    0.02082813
     atom   26 type  2   force =    -0.00023696    0.00069438   -0.02087551
     atom   27 type  1   force =     0.00000000    0.00000000    0.00000000
     atom   28 type  2   force =     0.00083422    0.00250267    0.02165646
     atom   29 type  2   force =    -0.00067074   -0.00058170   -0.02054805
     atom   30 type  1   force =     0.00000000    0.00000000    0.00000000
     atom   31 type  2   force =     0.01165589    0.00378798   -0.00816702
     atom   32 type  2   force =    -0.00013110    0.00055999   -0.02144683
     atom   33 type  1   force =     0.00000000    0.00000000    0.00000000
     atom   34 type  2   force =     0.00018479    0.00091902    0.02144836
     atom   35 type  2   force =    -0.00013128    0.00085051   -0.02107631
     atom   36 type  3   force =    -0.01441393   -0.00375631    0.01743775
     The Hubbard contrib.    to forces
     atom    1 type  1   force =     0.00000000    0.00000000    0.00000000
     atom    2 type  2   force =     0.00000000    0.00000000    0.00000000
     atom    3 type  2   force =     0.00000000    0.00000000    0.00000000
     atom    4 type  1   force =     0.00000000    0.00000000    0.00000000
     atom    5 type  2   force =     0.00000000    0.00000000    0.00000000
     atom    6 type  2   force =     0.00000000    0.00000000    0.00000000
     atom    7 type  1   force =     0.00000000    0.00000000    0.00000000
     atom    8 type  2   force =     0.00000000    0.00000000    0.00000000
     atom    9 type  2   force =     0.00000000    0.00000000    0.00000000
     atom   10 type  1   force =     0.00000000    0.00000000    0.00000000
     atom   11 type  2   force =     0.00000000    0.00000000    0.00000000
     atom   12 type  2   force =     0.00000000    0.00000000    0.00000000
     atom   13 type  1   force =     0.00000000    0.00000000    0.00000000
     atom   14 type  2   force =     0.00000000    0.00000000    0.00000000
     atom   15 type  2   force =     0.00000000    0.00000000    0.00000000
     atom   16 type  1   force =     0.00000000    0.00000000    0.00000000
     atom   17 type  2   force =     0.00000000    0.00000000    0.00000000
     atom   18 type  2   force =     0.00000000    0.00000000    0.00000000
     atom   19 type  1   force =     0.00000000    0.00000000    0.00000000
     atom   20 type  2   force =     0.00000000    0.00000000    0.00000000
     atom   21 type  1   force =     0.00000000    0.00000000    0.00000000
     atom   22 type  2   force =     0.00000000    0.00000000    0.00000000
     atom   23 type  2   force =     0.00000000    0.00000000    0.00000000
     atom   24 type  1   force =     0.00000000    0.00000000    0.00000000
     atom   25 type  2   force =     0.00000000    0.00000000    0.00000000
     atom   26 type  2   force =     0.00000000    0.00000000    0.00000000
     atom   27 type  1   force =     0.00000000    0.00000000    0.00000000
     atom   28 type  2   force =     0.00000000    0.00000000    0.00000000
     atom   29 type  2   force =     0.00000000    0.00000000    0.00000000
     atom   30 type  1   force =     0.00000000    0.00000000    0.00000000
     atom   31 type  2   force =     0.00000000    0.00000000    0.00000000
     atom   32 type  2   force =     0.00000000    0.00000000    0.00000000
     atom   33 type  1   force =     0.00000000    0.00000000    0.00000000
     atom   34 type  2   force =     0.00000000    0.00000000    0.00000000
     atom   35 type  2   force =     0.00000000    0.00000000    0.00000000
     atom   36 type  3   force =     0.00000000    0.00000000    0.00000000
     The SCF correction term to forces
     atom    1 type  1   force =     0.00006382    0.00005409    0.00041784
     atom    2 type  2   force =     0.00002222   -0.00001006    0.00010828
     atom    3 type  2   force =     0.00000931   -0.00000166    0.00031833
     atom    4 type  1   force =     0.00008040    0.00001460    0.00056515
     atom    5 type  2   force =    -0.00000844    0.00003703    0.00007355
     atom    6 type  2   force =    -0.00001189    0.00001914    0.00034694
     atom    7 type  1   force =     0.00003578   -0.00001994    0.00060389
     atom    8 type  2   force =     0.00010167   -0.00001115    0.00015912
     atom    9 type  2   force =     0.00000433   -0.00001950    0.00034025
     atom   10 type  1   force =     0.00003418   -0.00007293    0.00049982
     atom   11 type  2   force =     0.00001966   -0.00000807    0.00011227
     atom   12 type  2   force =     0.00001549    0.00002139    0.00032209
     atom   13 type  1   force =    -0.00010373    0.00014502    0.00048656
     atom   14 type  2   force =    -0.00000633   -0.00000309    0.00011352
     atom   15 type  2   force =     0.00001113    0.00000404    0.00031668
     atom   16 type  1   force =    -0.00013058    0.00001207    0.00061997
     atom   17 type  2   force =    -0.00006003    0.00011216    0.00009010
     atom   18 type  2   force =     0.00000359    0.00003100    0.00036340
     atom   19 type  1   force =    -0.00017362   -0.00006118    0.00081892
     atom   20 type  2   force =    -0.00000861   -0.00005631    0.00032237
     atom   21 type  1   force =    -0.00001809   -0.00008684    0.00051654
     atom   22 type  2   force =    -0.00007805   -0.00007020    0.00010576
     atom   23 type  2   force =    -0.00002213    0.00000811    0.00034724
     atom   24 type  1   force =     0.00003338    0.00004640    0.00044881
     atom   25 type  2   force =    -0.00002107   -0.00000605    0.00010954
     atom   26 type  2   force =    -0.00001626    0.00001451    0.00033178
     atom   27 type  1   force =     0.00005770    0.00004943    0.00079245
     atom   28 type  2   force =     0.00006058    0.00010762    0.00012594
     atom   29 type  2   force =     0.00001087    0.00000542    0.00036527
     atom   30 type  1   force =     0.00012348   -0.00002266    0.00080105
     atom   31 type  2   force =     0.00001883   -0.00000947    0.00022704
     atom   32 type  2   force =     0.00000525   -0.00001983    0.00035384
     atom   33 type  1   force =    -0.00000989   -0.00017716    0.00059019
     atom   34 type  2   force =     0.00004812   -0.00008801    0.00012962
     atom   35 type  2   force =     0.00000631    0.00000791    0.00034890
     atom   36 type  3   force =     0.00010723    0.00003215   -0.00000361

     Total force =     0.164073     Total SCF correction =     0.002513

     BFGS Geometry Optimization
     Energy error            =      0.0E+00 Ry
     Gradient error          =      8.8E-02 Ry/Bohr

     number of scf cycles    =   1
     number of bfgs steps    =   0

     energy             new  =   -2246.3601997335 Ry

     new trust radius        =       0.0911748316 bohr
     new conv_thr            =       0.0000010000 Ry


ATOMIC_POSITIONS (angstrom)
Mo            6.5816259245        1.7743183818        2.8269581697
S             8.1689012193        0.8187124080        4.4349034163
S             8.1866180614        0.8164059618        1.2763873984
Mo            8.0978258320        4.4984478647        2.7179416902
S             6.4989666327        3.7187435256        4.3431341409
S             6.5535402339        3.5171126590        1.1204896306
Mo            6.4948063305        7.2104149890        2.6696555201
S             8.0770557413        6.3441504689        4.2472763651
S             8.0864010591        6.3071357796        1.0903401464
Mo            8.1551474586        9.9062863452        2.8281127688
S             6.4977995455        8.9426124824        4.3799624859
S             6.6173891097        9.0483124454        1.1427545450
Mo            3.4257418364        1.7505135277        2.7724797293
S             4.9794622163        0.8163994340        4.3569920168
S             5.0510984548        0.8476390077        1.2225563977
Mo            4.9768473863        4.5201542526        2.6335305990
S             3.4301024420        3.6713705215        4.2828431482
S             3.4389338805        3.5436536072        1.0650364004
Mo            3.4660664333        7.2154370087        2.6345464180
S             4.9829127249        6.3238791966        1.0364256710
Mo            5.0085446538        9.9042658080        2.7440323723
S             3.4694412461        8.9465781468        4.3240484442
S             3.4083200358        9.0652670661        1.0994924885
Mo            0.2914800350        1.7470464267        2.8378019376
S             1.8588500046        0.8016755396        4.4026490706
S             1.8549771732        0.8542826301        1.2073569424
Mo            1.8632239696        4.4909258580        2.6576216567
S             0.2725089170        3.6526892952        4.3337171344
S             0.2321374888        3.5270109221        1.1705689683
Mo            0.2725945911        7.2266650257        2.6841359141
S             1.8559137597        6.2994380126        4.2242785966
S             1.8578856287        6.3145418450        1.0500558067
Mo            1.8495720893        9.9360544513        2.7690751457
S             0.2986785467        9.0671956893        4.4099751711
S             0.2719513627        9.0484427807        1.1591266858
O             1.0897760981        6.0787781570        5.4984985445



     Writing config-only to output data dir ./MoS2-V-O.save/
     NEW-OLD atomic charge density approx. for the potential

     negative rho (up, down):  1.703E-04 0.000E+00

     total cpu time spent up to now is      121.7 secs

     Self-consistent Calculation

     iteration #  1     ecut=    80.00 Ry     beta= 0.70
     Davidson diagonalization with overlap
     ethr =  1.00E-06,  avg # of iterations =  8.0

     negative rho (up, down):  1.480E-04 0.000E+00

     total cpu time spent up to now is      133.3 secs

     total energy              =   -2246.38177096 Ry
     estimated scf accuracy    <       0.00238543 Ry

     iteration #  2     ecut=    80.00 Ry     beta= 0.70
     Davidson diagonalization with overlap
     ethr =  7.65E-07,  avg # of iterations =  4.0

     negative rho (up, down):  1.528E-04 0.000E+00

     total cpu time spent up to now is      147.5 secs

     total energy              =   -2246.38198707 Ry
     estimated scf accuracy    <       0.00077657 Ry

     iteration #  3     ecut=    80.00 Ry     beta= 0.70
     Davidson diagonalization with overlap
     ethr =  2.49E-07,  avg # of iterations =  3.0

     negative rho (up, down):  1.423E-04 0.000E+00

     total cpu time spent up to now is      157.1 secs

     total energy              =   -2246.38200255 Ry
     estimated scf accuracy    <       0.00015449 Ry

     iteration #  4     ecut=    80.00 Ry     beta= 0.70
     Davidson diagonalization with overlap
     ethr =  4.95E-08,  avg # of iterations =  4.0

     negative rho (up, down):  1.425E-04 0.000E+00

     total cpu time spent up to now is      169.0 secs

     total energy              =   -2246.38202905 Ry
     estimated scf accuracy    <       0.00001214 Ry

     iteration #  5     ecut=    80.00 Ry     beta= 0.70
     Davidson diagonalization with overlap
     ethr =  3.89E-09,  avg # of iterations =  5.0

     negative rho (up, down):  1.465E-04 0.000E+00

     total cpu time spent up to now is      186.9 secs

     total energy              =   -2246.38203284 Ry
     estimated scf accuracy    <       0.00000437 Ry

     iteration #  6     ecut=    80.00 Ry     beta= 0.70
     Davidson diagonalization with overlap
     ethr =  1.40E-09,  avg # of iterations =  2.0

     negative rho (up, down):  1.525E-04 0.000E+00

     total cpu time spent up to now is      198.3 secs

     total energy              =   -2246.38203313 Ry
     estimated scf accuracy    <       0.00000118 Ry

     iteration #  7     ecut=    80.00 Ry     beta= 0.70
     Davidson diagonalization with overlap
     ethr =  3.78E-10,  avg # of iterations =  2.0

     negative rho (up, down):  1.955E-04 0.000E+00

     total cpu time spent up to now is      201.7 secs

     End of self-consistent calculation

          k = 0.0000 0.0000 0.0000 (105382 PWs)   bands (ev):

   -63.0043 -62.9800 -62.9620 -62.9573 -62.9473 -62.9456 -62.9386 -62.9367
   -62.9311 -62.9214 -62.8817 -62.7650 -37.3637 -37.3069 -37.2580 -37.2446
   -37.2357 -37.2237 -37.1978 -37.1969 -37.1901 -37.1814 -37.1632 -37.1482
   -37.1414 -37.1331 -37.1273 -37.1235 -37.1211 -37.1139 -37.1103 -37.0999
   -37.0954 -37.0925 -37.0844 -37.0581 -37.0462 -37.0367 -37.0288 -37.0129
   -36.9829 -36.9608 -36.9564 -36.9329 -36.9212 -36.9179 -36.8711 -36.8423
   -22.4631 -16.0442 -15.2971 -15.1806 -15.0473 -14.9894 -14.8798 -14.6141
   -14.5545 -14.5188 -14.5032 -14.4625 -14.4305 -14.3994 -14.3658 -14.2426
   -14.2110 -14.2082 -14.1615 -14.0257 -13.9746 -13.9444 -13.9039 -13.7121
    -8.0354  -7.8881  -7.7068  -7.5770  -7.4383  -7.3542  -7.3257  -7.3058
    -7.2536  -7.1070  -7.0001  -6.9359  -6.8385  -6.8014  -6.6902  -6.6397
    -6.5280  -6.5126  -6.3888  -6.3566  -6.2118  -6.1502  -6.0218  -5.9378
    -5.8934  -5.8714  -5.8343  -5.8188  -5.7812  -5.7434  -5.7033  -5.6738
    -5.6315  -5.6177  -5.5143  -5.3488  -5.2996  -5.1870  -5.1507  -5.1213
    -5.0708  -5.0223  -4.9665  -4.8601  -4.8046  -4.7160  -4.4314  -4.4184
    -4.3566  -4.3006  -4.2506  -4.2065  -4.1756  -4.0467  -4.0233  -3.8783
    -3.8234  -3.8013  -3.7562  -3.6677  -3.6560  -3.6137  -3.5902  -3.5579
    -3.5153  -3.4914  -3.4130  -3.3065  -3.1053  -3.0584  -2.9970  -2.9467
    -2.9274  -2.8905  -2.8265  -2.7658  -2.7538  -2.7319  -2.6090  -2.4563
    -2.3594  -2.1210  -2.0892  -2.0413  -1.0551  -0.9336  -0.3987  -0.2748
    -0.2076  -0.1663  -0.0612   0.0454   0.0860   0.1179   0.1334   0.1766
     0.2147   0.2739   0.3130   0.3783   0.4342   0.4593   0.4946   0.5583
     0.5888   0.6443   0.6585   0.6758   0.7128   0.7290   0.8097   0.8835
     0.9052   0.9577   1.2166

     the Fermi energy is    -1.5476 ev

!    total energy              =   -2246.38203308 Ry
     estimated scf accuracy    <       0.00000022 Ry
     smearing contrib. (-TS)   =      -0.00000002 Ry
     internal energy E=F+TS    =   -2246.38203306 Ry

     The total energy is F=E-TS. E is the sum of the following terms:
     one-electron contribution =  -18429.99076956 Ry
     hartree contribution      =    9202.64269245 Ry
     xc contribution           =    -392.10190637 Ry
     ewald contribution        =    7382.92517766 Ry
     one-center paw contrib.   =      -9.85722724 Ry

     convergence has been achieved in   7 iterations

     negative rho (up, down):  1.955E-04 0.000E+00

     Forces acting on atoms (cartesian axes, Ry/au):

     atom    1 type  1   force =     0.00301372   -0.01272664    0.00027193
     atom    2 type  2   force =    -0.00881740    0.01034285   -0.00196584
     atom    3 type  2   force =    -0.01102119    0.00803325   -0.00860855
     atom    4 type  1   force =     0.00399150    0.00303313    0.00070027
     atom    5 type  2   force =    -0.00062398   -0.00640987   -0.00694096
     atom    6 type  2   force =     0.00047416    0.00691654    0.00185158
     atom    7 type  1   force =     0.00440583   -0.00926823   -0.00099790
     atom    8 type  2   force =    -0.00394151    0.00125394    0.00497987
     atom    9 type  2   force =     0.00953575    0.00335861    0.00530098
     atom   10 type  1   force =    -0.00281762    0.00623270   -0.00973357
     atom   11 type  2   force =     0.00420104   -0.00069836   -0.00841775
     atom   12 type  2   force =    -0.00404906   -0.00112284    0.00185998
     atom   13 type  1   force =     0.00560263    0.00376231   -0.00206844
     atom   14 type  2   force =     0.00594320   -0.00105008    0.00878327
     atom   15 type  2   force =    -0.00850585    0.00178298   -0.00612461
     atom   16 type  1   force =    -0.00100968    0.00908967    0.00341299
     atom   17 type  2   force =     0.00381381    0.00105850    0.00417229
     atom   18 type  2   force =     0.00351028   -0.00639532    0.00791930
     atom   19 type  1   force =     0.00869366   -0.00637105    0.01220230
     atom   20 type  2   force =     0.00100551   -0.00445162   -0.00365112
     atom   21 type  1   force =    -0.00372407    0.00352959    0.00150860
     atom   22 type  2   force =    -0.00194596    0.00210808   -0.00077362
     atom   23 type  2   force =     0.00110307   -0.00114497    0.00470709
     atom   24 type  1   force =    -0.00584040   -0.00119101   -0.00914958
     atom   25 type  2   force =     0.01093671    0.01335123    0.00058696
     atom   26 type  2   force =    -0.00705199   -0.00082971   -0.00417834
     atom   27 type  1   force =    -0.00189632   -0.00788386   -0.00000704
     atom   28 type  2   force =     0.00038740   -0.00474952   -0.00762114
     atom   29 type  2   force =     0.00071518    0.00083449   -0.00524008
     atom   30 type  1   force =    -0.00955769    0.00490084   -0.01149249
     atom   31 type  2   force =    -0.04532003   -0.00818294   -0.03597096
     atom   32 type  2   force =    -0.00203940    0.00668321    0.00825870
     atom   33 type  1   force =     0.00614105   -0.00229554    0.00134218
     atom   34 type  2   force =     0.00156162   -0.03186689   -0.01404704
     atom   35 type  2   force =    -0.00570884    0.01395447    0.00454842
     atom   36 type  3   force =     0.04883485    0.00641206    0.06458234
     The non-local contrib.  to forces
     atom    1 type  1   force =     0.00159413    0.03113907   -0.01291943
     atom    2 type  2   force =    -0.00475744   -0.00203806   -0.27311784
     atom    3 type  2   force =    -0.01249827   -0.00491659    0.26561785
     atom    4 type  1   force =     0.00342231    0.00413815    0.00402314
     atom    5 type  2   force =     0.00366644   -0.03384318   -0.25806881
     atom    6 type  2   force =    -0.00278532    0.01037042    0.26770127
     atom    7 type  1   force =    -0.00906509    0.00281387   -0.03344958
     atom    8 type  2   force =    -0.01827902   -0.00232351   -0.26891908
     atom    9 type  2   force =     0.00286177   -0.00979871    0.26959681
     atom   10 type  1   force =     0.00282858   -0.00017169    0.00143144
     atom   11 type  2   force =     0.01386790    0.00239574   -0.26469488
     atom   12 type  2   force =    -0.01476687   -0.01609257    0.26190146
     atom   13 type  1   force =     0.00139675    0.01928482   -0.00660866
     atom   14 type  2   force =     0.00911980   -0.01194233   -0.26790034
     atom   15 type  2   force =    -0.01043723   -0.00672373    0.26134434
     atom   16 type  1   force =     0.00268409    0.02312816   -0.03499965
     atom   17 type  2   force =    -0.00185573   -0.02290118   -0.25440555
     atom   18 type  2   force =     0.00331037   -0.00339496    0.27032675
     atom   19 type  1   force =     0.01999389   -0.01747995   -0.00446858
     atom   20 type  2   force =     0.00051021   -0.01864949    0.26540162
     atom   21 type  1   force =     0.00522853    0.03177695    0.00632661
     atom   22 type  2   force =    -0.00387042   -0.00281218   -0.25928097
     atom   23 type  2   force =     0.00977942   -0.01827485    0.26793827
     atom   24 type  1   force =    -0.00376530    0.01661559   -0.01095237
     atom   25 type  2   force =     0.00839937    0.00127781   -0.26720493
     atom   26 type  2   force =     0.00170675   -0.01317152    0.26403378
     atom   27 type  1   force =     0.00057832    0.03024900    0.02777386
     atom   28 type  2   force =    -0.01313779   -0.03069397   -0.28385180
     atom   29 type  2   force =     0.00876966    0.00115063    0.26351793
     atom   30 type  1   force =     0.02143423    0.01020354    0.03116613
     atom   31 type  2   force =    -0.14963933   -0.05823371    0.25183762
     atom   32 type  2   force =     0.00060933   -0.00999443    0.28075136
     atom   33 type  1   force =    -0.00810292    0.01012970    0.00548745
     atom   34 type  2   force =    -0.00097279   -0.02500405   -0.28108909
     atom   35 type  2   force =     0.00039175   -0.00645109    0.26340702
     atom   36 type  3   force =     1.25518663    0.33466003   -1.80002020
     The ionic contribution  to forces
     atom    1 type  1   force =    -0.03145398    0.22660873    4.84604494
     atom    2 type  2   force =    -0.64242508    0.20844348   39.14665729
     atom    3 type  2   force =    -0.21689033    0.02748683  -36.70197099
     atom    4 type  1   force =    -1.21534006   -0.53657128   -1.55667649
     atom    5 type  2   force =    -1.23087840    1.06000879   38.32657536
     atom    6 type  2   force =     0.24911549   -0.69217781  -38.49727182
     atom    7 type  1   force =    -3.15096937   -2.17139775    0.96782145
     atom    8 type  2   force =    -2.93030150    0.30293540   36.21841123
     atom    9 type  2   force =     0.09128269   -0.07135167  -38.86400251
     atom   10 type  1   force =    -1.34532646    0.42717590    4.08624431
     atom   11 type  2   force =    -0.72366422   -1.20293331   38.81801401
     atom   12 type  2   force =     0.27497976    0.77743106  -38.38316922
     atom   13 type  1   force =     0.78047272    0.36630712    1.65002078
     atom   14 type  2   force =     0.07158959   -0.02328899   38.40666209
     atom   15 type  2   force =     0.21028894   -0.04653757  -37.31153516
     atom   16 type  1   force =     0.56429995    3.21105063   -0.93353760
     atom   17 type  2   force =     1.61336851    0.56834713   37.38357340
     atom   18 type  2   force =     0.00553910   -0.80127859  -39.21358850
     atom   19 type  1   force =     3.82404595   -1.77264831   -1.42649378
     atom   20 type  2   force =     0.29719638   -0.15476298  -39.23825309
     atom   21 type  1   force =     0.25967353    0.46565641    0.24264118
     atom   22 type  2   force =     1.00717333   -0.94572947   38.01096885
     atom   23 type  2   force =     0.04091901    0.79979297  -38.91581924
     atom   24 type  1   force =    -0.54196918    0.24005073    4.22113871
     atom   25 type  2   force =     0.63110674    0.14572628   38.97482585
     atom   26 type  2   force =    -0.20454975    0.01503451  -37.83350314
     atom   27 type  1   force =     0.90522788   -1.27382327   -6.13043356
     atom   28 type  2   force =    -0.60738659   -1.09842507   37.06742722
     atom   29 type  2   force =    -0.35655552   -0.64340455  -38.10533220
     atom   30 type  1   force =    -1.35358689    0.57350881   -5.25968811
     atom   31 type  2   force =     5.80601997    1.33452743   29.65409406
     atom   32 type  2   force =    -0.23449801    0.00331543  -39.63828938
     atom   33 type  1   force =     0.90261734    0.40787269    0.67303046
     atom   34 type  2   force =    -0.21317944    0.22564617   38.61234372
     atom   35 type  2   force =    -0.29789657    0.81924139  -38.53842132
     atom   36 type  3   force =    -2.23804554   -0.77183725   49.24149117
     The local contribution  to forces
     atom    1 type  1   force =     0.03271936   -0.27065114   -4.83317320
     atom    2 type  2   force =     0.63815521   -0.19608755  -38.89665679
     atom    3 type  2   force =     0.21775790   -0.01477487   36.44848922
     atom    4 type  1   force =     1.21570619    0.53533034    1.55284240
     atom    5 type  2   force =     1.22696343   -1.03449433  -38.09620652
     atom    6 type  2   force =    -0.24623013    0.68979476   38.25231967
     atom    7 type  1   force =     3.16427391    2.15953627   -0.93571237
     atom    8 type  2   force =     2.94293966   -0.29971641  -35.96624458
     atom    9 type  2   force =    -0.08474594    0.08403939   38.62033399
     atom   10 type  1   force =     1.33956935   -0.42069820   -4.09778291
     atom   11 type  2   force =     0.71448702    1.20031870  -38.58278087
     atom   12 type  2   force =    -0.26545612   -0.76371627   38.14389102
     atom   13 type  1   force =    -0.77618515   -0.38205323   -1.64575743
     atom   14 type  2   force =    -0.07423356    0.03394601  -38.15103599
     atom   15 type  2   force =    -0.20899688    0.05456424   37.06462453
     atom   16 type  1   force =    -0.56795700   -3.22516443    0.97161873
     atom   17 type  2   force =    -1.60777917   -0.54561175  -37.14568278
     atom   18 type  2   force =    -0.00496395    0.79869949   38.97207743
     atom   19 type  1   force =    -3.83520530    1.78398001    1.44276891
     atom   20 type  2   force =    -0.29684587    0.16825456   38.99035375
     atom   21 type  1   force =    -0.26861124   -0.49382700   -0.24773133
     atom   22 type  2   force =    -1.00521974    0.95080889  -37.77329570
     atom   23 type  2   force =    -0.04889420   -0.78401193   38.67348293
     atom   24 type  1   force =     0.53995909   -0.25810791   -4.21969460
     atom   25 type  2   force =    -0.62835487   -0.13345659  -38.72815806
     atom   26 type  2   force =     0.19615832   -0.00340911   37.58612432
     atom   27 type  1   force =    -0.90754751    1.23558082    6.10213352
     atom   28 type  2   force =     0.62013718    1.12182317  -36.81319512
     atom   29 type  2   force =     0.34916255    0.64355362   37.85703208
     atom   30 type  1   force =     1.32259751   -0.57857038    5.21647287
     atom   31 type  2   force =    -5.71048897   -1.28774554  -29.93522593
     atom   32 type  2   force =     0.23209683    0.01284691   39.38714319
     atom   33 type  1   force =    -0.88825527   -0.42016375   -0.67750435
     atom   34 type  2   force =     0.21549573   -0.23297586  -38.36711757
     atom   35 type  2   force =     0.29197445   -0.79955834   38.30033512
     atom   36 type  3   force =     1.04557212    0.44729504  -47.39599294
     The core correction contribution to forces
     atom    1 type  1   force =     0.00000000    0.00000000    0.00000000
     atom    2 type  2   force =     0.00013138   -0.00001671    0.02095576
     atom    3 type  2   force =     0.00056792    0.00018193   -0.02080753
     atom    4 type  1   force =     0.00000000    0.00000000    0.00000000
     atom    5 type  2   force =    -0.00045829    0.00184398    0.02058405
     atom    6 type  2   force =     0.00034321   -0.00111299   -0.02098862
     atom    7 type  1   force =     0.00000000    0.00000000    0.00000000
     atom    8 type  2   force =     0.00149354    0.00043263    0.02145829
     atom    9 type  2   force =     0.00011210    0.00051768   -0.02075294
     atom   10 type  1   force =     0.00000000    0.00000000    0.00000000
     atom   11 type  2   force =    -0.00056040   -0.00039307    0.02086874
     atom   12 type  2   force =     0.00118407    0.00132042   -0.02082871
     atom   13 type  1   force =     0.00000000    0.00000000    0.00000000
     atom   14 type  2   force =    -0.00052844    0.00017974    0.02089188
     atom   15 type  2   force =     0.00063300    0.00044282   -0.02060732
     atom   16 type  1   force =     0.00000000    0.00000000    0.00000000
     atom   17 type  2   force =     0.00017625    0.00112907    0.02049431
     atom   18 type  2   force =    -0.00034034   -0.00047618   -0.02096931
     atom   19 type  1   force =     0.00000000    0.00000000    0.00000000
     atom   20 type  2   force =     0.00014018    0.00074255   -0.02123164
     atom   21 type  1   force =     0.00000000    0.00000000    0.00000000
     atom   22 type  2   force =     0.00004212   -0.00007199    0.02066019
     atom   23 type  2   force =    -0.00067234    0.00139628   -0.02094318
     atom   24 type  1   force =     0.00000000    0.00000000    0.00000000
     atom   25 type  2   force =    -0.00012705   -0.00025059    0.02094447
     atom   26 type  2   force =    -0.00033857    0.00066732   -0.02088375
     atom   27 type  1   force =     0.00000000    0.00000000    0.00000000
     atom   28 type  2   force =     0.00076755    0.00236206    0.02173717
     atom   29 type  2   force =    -0.00065447   -0.00052017   -0.02056673
     atom   30 type  1   force =     0.00000000    0.00000000    0.00000000
     atom   31 type  2   force =     0.00903002    0.00337333   -0.00706163
     atom   32 type  2   force =    -0.00021491    0.00056908   -0.02145467
     atom   33 type  1   force =     0.00000000    0.00000000    0.00000000
     atom   34 type  2   force =     0.00023988    0.00060058    0.02157083
     atom   35 type  2   force =    -0.00018375    0.00077490   -0.02085473
     atom   36 type  3   force =    -0.01358404   -0.00358915    0.01875019
     The Hubbard contrib.    to forces
     atom    1 type  1   force =     0.00000000    0.00000000    0.00000000
     atom    2 type  2   force =     0.00000000    0.00000000    0.00000000
     atom    3 type  2   force =     0.00000000    0.00000000    0.00000000
     atom    4 type  1   force =     0.00000000    0.00000000    0.00000000
     atom    5 type  2   force =     0.00000000    0.00000000    0.00000000
     atom    6 type  2   force =     0.00000000    0.00000000    0.00000000
     atom    7 type  1   force =     0.00000000    0.00000000    0.00000000
     atom    8 type  2   force =     0.00000000    0.00000000    0.00000000
     atom    9 type  2   force =     0.00000000    0.00000000    0.00000000
     atom   10 type  1   force =     0.00000000    0.00000000    0.00000000
     atom   11 type  2   force =     0.00000000    0.00000000    0.00000000
     atom   12 type  2   force =     0.00000000    0.00000000    0.00000000
     atom   13 type  1   force =     0.00000000    0.00000000    0.00000000
     atom   14 type  2   force =     0.00000000    0.00000000    0.00000000
     atom   15 type  2   force =     0.00000000    0.00000000    0.00000000
     atom   16 type  1   force =     0.00000000    0.00000000    0.00000000
     atom   17 type  2   force =     0.00000000    0.00000000    0.00000000
     atom   18 type  2   force =     0.00000000    0.00000000    0.00000000
     atom   19 type  1   force =     0.00000000    0.00000000    0.00000000
     atom   20 type  2   force =     0.00000000    0.00000000    0.00000000
     atom   21 type  1   force =     0.00000000    0.00000000    0.00000000
     atom   22 type  2   force =     0.00000000    0.00000000    0.00000000
     atom   23 type  2   force =     0.00000000    0.00000000    0.00000000
     atom   24 type  1   force =     0.00000000    0.00000000    0.00000000
     atom   25 type  2   force =     0.00000000    0.00000000    0.00000000
     atom   26 type  2   force =     0.00000000    0.00000000    0.00000000
     atom   27 type  1   force =     0.00000000    0.00000000    0.00000000
     atom   28 type  2   force =     0.00000000    0.00000000    0.00000000
     atom   29 type  2   force =     0.00000000    0.00000000    0.00000000
     atom   30 type  1   force =     0.00000000    0.00000000    0.00000000
     atom   31 type  2   force =     0.00000000    0.00000000    0.00000000
     atom   32 type  2   force =     0.00000000    0.00000000    0.00000000
     atom   33 type  1   force =     0.00000000    0.00000000    0.00000000
     atom   34 type  2   force =     0.00000000    0.00000000    0.00000000
     atom   35 type  2   force =     0.00000000    0.00000000    0.00000000
     atom   36 type  3   force =     0.00000000    0.00000000    0.00000000
     The SCF correction term to forces
     atom    1 type  1   force =     0.00015705    0.00017698    0.00030919
     atom    2 type  2   force =     0.00008135    0.00004198    0.00018530
     atom    3 type  2   force =     0.00004443    0.00005623    0.00005247
     atom    4 type  1   force =     0.00020589    0.00013620    0.00050078
     atom    5 type  2   force =     0.00008567    0.00007515    0.00016453
     atom    6 type  2   force =     0.00003374    0.00004244    0.00008065
     atom    7 type  1   force =     0.00016921   -0.00022034    0.00033217
     atom    8 type  2   force =     0.00020865   -0.00007389    0.00026356
     atom    9 type  2   force =     0.00002796   -0.00004781    0.00011520
     atom   10 type  1   force =     0.00011375   -0.00007302    0.00036316
     atom   11 type  2   force =     0.00007357   -0.00008614    0.00016482
     atom   12 type  2   force =     0.00001293   -0.00006520    0.00005500
     atom   13 type  1   force =    -0.00007885    0.00022388    0.00026643
     atom   14 type  2   force =    -0.00000135    0.00005577    0.00015518
     atom   15 type  2   force =     0.00000916    0.00003750    0.00003856
     atom   16 type  1   force =    -0.00003389    0.00007559    0.00032107
     atom   17 type  2   force =    -0.00009322    0.00009551    0.00018249
     atom   18 type  2   force =    -0.00003207    0.00005520    0.00006249
     atom   19 type  1   force =    -0.00013805   -0.00022252    0.00038532
     atom   20 type  2   force =     0.00000745   -0.00003598    0.00006779
     atom   21 type  1   force =    -0.00001206   -0.00007650    0.00026171
     atom   22 type  2   force =    -0.00006842   -0.00008689    0.00016358
     atom   23 type  2   force =    -0.00002599   -0.00004715    0.00003787
     atom   24 type  1   force =    -0.00006218    0.00025086    0.00034824
     atom   25 type  2   force =    -0.00008465    0.00005460    0.00016918
     atom   26 type  2   force =    -0.00002591    0.00004937    0.00004002
     atom   27 type  1   force =    -0.00015218    0.00010987    0.00050871
     atom   28 type  2   force =     0.00000987    0.00018456    0.00025094
     atom   29 type  2   force =    -0.00000420    0.00005523    0.00009840
     atom   30 type  1   force =     0.00000029   -0.00024084    0.00054618
     atom   31 type  2   force =    -0.00023889   -0.00010417    0.00037448
     atom   32 type  2   force =    -0.00002981   -0.00005350    0.00009777
     atom   33 type  1   force =    -0.00011526   -0.00013390    0.00031817
     atom   34 type  2   force =    -0.00001893   -0.00013346    0.00023463
     atom   35 type  2   force =     0.00000812   -0.00005212    0.00007188
     atom   36 type  3   force =    -0.00029148   -0.00011633    0.00034369

     Total force =     0.121423     Total SCF correction =     0.001842
     Energy error            =      2.2E-02 Ry
     Gradient error          =      6.5E-02 Ry/Bohr

     number of scf cycles    =   2
     number of bfgs steps    =   1

     energy             old  =   -2246.3601997335 Ry
     energy             new  =   -2246.3820330815 Ry

     CASE: energy            _new < energy            _old

     new trust radius        =       0.1002923148 bohr
     new conv_thr            =       0.0000000646 Ry


ATOMIC_POSITIONS (angstrom)
Mo            6.5856556066        1.7634119982        2.8283190453
S             8.1619175065        0.8268482292        4.4341310470
S             8.1790605528        0.8220422101        1.2718520770
Mo            8.1006625843        4.5011128903        2.7183112143
S             6.4983270802        3.7144149239        4.3386128357
S             6.5538302956        3.5223114642        1.1210506475
Mo            6.4986398652        7.2031431556        2.6683638926
S             8.0734936392        6.3448340303        4.2513714918
S             8.0928505260        6.3095944568        1.0952030419
Mo            8.1518067623        9.9106962672        2.8178959828
S             6.5007214577        8.9421726598        4.3749016501
S             6.6153101436        9.0476450147        1.1446748989
Mo            3.4298517588        1.7535776337        2.7700367247
S             4.9838094526        0.8157123396        4.3634572455
S             5.0446584404        0.8489759309        1.2181978638
Mo            4.9752968235        4.5269538209        2.6353484174
S             3.4327071228        3.6717742534        4.2859386787
S             3.4409334911        3.5389937358        1.0711865319
Mo            3.4746311265        7.2121623308        2.6416267419
S             4.9832575815        6.3206845790        1.0344299977
Mo            5.0054380094        9.9068900474        2.7449647431
S             3.4679768564        8.9486055563        4.3231160945
S             3.4087890899        9.0648412303        1.1029434259
Mo            0.2870634057        1.7463235245        2.8292359414
S             1.8670290079        0.8111914883        4.4045745010
S             1.8495489423        0.8538458425        1.2046646235
Mo            1.8632913723        4.4855163681        2.6566586896
S             0.2727978695        3.6498576288        4.3287546726
S             0.2328056456        3.5273077398        1.1676077270
Mo            0.2687155546        7.2326626911        2.6722823399
S             1.8177114664        6.2906785424        4.2083403865
S             1.8553214778        6.3191942565        1.0559200514
Mo            1.8543567844        9.9334717555        2.7682529770
S             0.3004306292        9.0439743365        4.4020331965
S             0.2675174367        9.0567230627        1.1644797187
O             1.1268827579        6.0844115268        5.5360224218



     Writing config-only to output data dir ./MoS2-V-O.save/
     NEW-OLD atomic charge density approx. for the potential

     negative rho (up, down):  1.502E-04 0.000E+00

     total cpu time spent up to now is      208.9 secs

     Self-consistent Calculation

     iteration #  1     ecut=    80.00 Ry     beta= 0.70
     Davidson diagonalization with overlap
     ethr =  1.00E-06,  avg # of iterations =  8.0

     negative rho (up, down):  3.104E-04 0.000E+00

     total cpu time spent up to now is      221.1 secs

     total energy              =   -2246.39805520 Ry
     estimated scf accuracy    <       0.00171287 Ry

     iteration #  2     ecut=    80.00 Ry     beta= 0.70
     Davidson diagonalization with overlap
     ethr =  5.49E-07,  avg # of iterations =  4.0

     negative rho (up, down):  4.791E-04 0.000E+00

     total cpu time spent up to now is      232.0 secs

     total energy              =   -2246.39817535 Ry
     estimated scf accuracy    <       0.00062106 Ry

     iteration #  3     ecut=    80.00 Ry     beta= 0.70
     Davidson diagonalization with overlap
     ethr =  1.99E-07,  avg # of iterations =  3.0

     negative rho (up, down):  6.924E-04 0.000E+00

     total cpu time spent up to now is      242.9 secs

     total energy              =   -2246.39818592 Ry
     estimated scf accuracy    <       0.00012069 Ry

     iteration #  4     ecut=    80.00 Ry     beta= 0.70
     Davidson diagonalization with overlap
     ethr =  3.87E-08,  avg # of iterations =  5.0

     negative rho (up, down):  7.048E-04 0.000E+00

     total cpu time spent up to now is      255.2 secs

     total energy              =   -2246.39820647 Ry
     estimated scf accuracy    <       0.00002505 Ry

     iteration #  5     ecut=    80.00 Ry     beta= 0.70
     Davidson diagonalization with overlap
     ethr =  8.03E-09,  avg # of iterations =  5.0

     negative rho (up, down):  6.767E-04 0.000E+00

     total cpu time spent up to now is      268.1 secs

     total energy              =   -2246.39820813 Ry
     estimated scf accuracy    <       0.00000983 Ry

     iteration #  6     ecut=    80.00 Ry     beta= 0.70
     Davidson diagonalization with overlap
     ethr =  3.15E-09,  avg # of iterations =  4.0

     negative rho (up, down):  5.996E-04 0.000E+00

     total cpu time spent up to now is      282.1 secs

     total energy              =   -2246.39820957 Ry
     estimated scf accuracy    <       0.00000215 Ry

     iteration #  7     ecut=    80.00 Ry     beta= 0.70
     Davidson diagonalization with overlap
     ethr =  6.90E-10,  avg # of iterations =  4.0

     negative rho (up, down):  4.940E-04 0.000E+00

     total cpu time spent up to now is      294.8 secs

     total energy              =   -2246.39820980 Ry
     estimated scf accuracy    <       0.00000071 Ry

     iteration #  8     ecut=    80.00 Ry     beta= 0.70
     Davidson diagonalization with overlap
     ethr =  2.26E-10,  avg # of iterations =  5.0

     negative rho (up, down):  3.752E-04 0.000E+00

     total cpu time spent up to now is      303.4 secs

     total energy              =   -2246.39820976 Ry
     estimated scf accuracy    <       0.00000023 Ry

     iteration #  9     ecut=    80.00 Ry     beta= 0.70
     Davidson diagonalization with overlap
     ethr =  7.26E-11,  avg # of iterations =  5.0

     negative rho (up, down):  1.923E-04 0.000E+00

     total cpu time spent up to now is      306.9 secs

     End of self-consistent calculation

          k = 0.0000 0.0000 0.0000 (105382 PWs)   bands (ev):

   -63.0088 -62.9920 -62.9679 -62.9666 -62.9554 -62.9478 -62.9468 -62.9434
   -62.9381 -62.9292 -62.8971 -62.7806 -37.3683 -37.3113 -37.2616 -37.2513
   -37.2486 -37.2342 -37.2047 -37.2021 -37.1989 -37.1888 -37.1727 -37.1564
   -37.1521 -37.1408 -37.1337 -37.1309 -37.1287 -37.1194 -37.1177 -37.1066
   -37.1046 -37.1028 -37.0885 -37.0632 -37.0609 -37.0452 -37.0404 -37.0252
   -36.9920 -36.9717 -36.9667 -36.9487 -36.9342 -36.9283 -36.8931 -36.8531
   -22.3379 -16.0550 -15.3077 -15.1953 -15.0560 -14.9954 -14.8858 -14.6184
   -14.5583 -14.5305 -14.5195 -14.4661 -14.4417 -14.4074 -14.3754 -14.2423
   -14.2309 -14.2181 -14.1733 -14.0314 -13.9880 -13.9621 -13.9172 -13.7337
    -8.0264  -7.8522  -7.7244  -7.5867  -7.4351  -7.3598  -7.3356  -7.3201
    -7.2619  -7.1114  -7.0038  -6.9479  -6.8450  -6.8013  -6.6959  -6.6482
    -6.5371  -6.5129  -6.4006  -6.3595  -6.2161  -6.1541  -6.0271  -5.9487
    -5.8998  -5.8826  -5.8468  -5.8286  -5.7877  -5.7530  -5.7110  -5.6651
    -5.6491  -5.6257  -5.5128  -5.3504  -5.2977  -5.1936  -5.1676  -5.1163
    -5.0838  -5.0383  -4.9940  -4.8601  -4.8046  -4.7184  -4.4480  -4.4212
    -4.3667  -4.3174  -4.2580  -4.2102  -4.1811  -4.0608  -4.0380  -3.8836
    -3.8359  -3.7973  -3.7636  -3.6806  -3.6706  -3.6159  -3.6111  -3.5705
    -3.5291  -3.5011  -3.4240  -3.3210  -3.1240  -3.0732  -3.0015  -2.9432
    -2.9310  -2.8973  -2.8391  -2.7822  -2.7592  -2.7478  -2.6257  -2.5143
    -2.3710  -2.1511  -2.1062  -2.0469  -1.0320  -0.9332  -0.3786  -0.2852
    -0.2008  -0.1705  -0.0690   0.0271   0.0847   0.1113   0.1321   0.1827
     0.2105   0.2769   0.3175   0.3750   0.4250   0.4521   0.4840   0.5654
     0.5756   0.6409   0.6481   0.6580   0.7014   0.7224   0.8148   0.8837
     0.9022   0.9438   1.1961

     the Fermi energy is    -1.5392 ev

!    total energy              =   -2246.39820975 Ry
     estimated scf accuracy    <       0.00000006 Ry
     smearing contrib. (-TS)   =      -0.00000001 Ry
     internal energy E=F+TS    =   -2246.39820974 Ry

     The total energy is F=E-TS. E is the sum of the following terms:
     one-electron contribution =  -18428.45090011 Ry
     hartree contribution      =    9201.75621402 Ry
     xc contribution           =    -392.10571360 Ry
     ewald contribution        =    7382.25990549 Ry
     one-center paw contrib.   =      -9.85771554 Ry

     convergence has been achieved in   9 iterations

     negative rho (up, down):  1.923E-04 0.000E+00

     Forces acting on atoms (cartesian axes, Ry/au):

     atom    1 type  1   force =    -0.00449932   -0.00277489   -0.00440106
     atom    2 type  2   force =    -0.00391112    0.00496170   -0.00283808
     atom    3 type  2   force =    -0.00899601    0.00588192   -0.01135902
     atom    4 type  1   force =     0.00306194    0.00039661    0.00015655
     atom    5 type  2   force =     0.00047232   -0.00550596   -0.00599941
     atom    6 type  2   force =     0.00042805    0.00452331    0.00380867
     atom    7 type  1   force =     0.00056238   -0.00450631   -0.00037366
     atom    8 type  2   force =    -0.00073381    0.00044389    0.00347690
     atom    9 type  2   force =     0.00725485    0.00199929   -0.00018360
     atom   10 type  1   force =     0.00113532    0.00523916    0.00134119
     atom   11 type  2   force =     0.00348135   -0.00073232   -0.00885564
     atom   12 type  2   force =    -0.00556259   -0.00115658    0.00000369
     atom   13 type  1   force =     0.00341898    0.00123792    0.00121811
     atom   14 type  2   force =     0.00392192   -0.00096053    0.00592896
     atom   15 type  2   force =    -0.00524503    0.00073741   -0.00461471
     atom   16 type  1   force =     0.00190326    0.00521101    0.00443201
     atom   17 type  2   force =     0.00316498    0.00249960    0.00298315
     atom   18 type  2   force =     0.00425549   -0.00377634    0.00450541
     atom   19 type  1   force =     0.00047358   -0.00697821    0.00970379
     atom   20 type  2   force =     0.00164293   -0.00298991   -0.00365227
     atom   21 type  1   force =    -0.00150982    0.00192504    0.00076596
     atom   22 type  2   force =    -0.00105876   -0.00087941    0.00214697
     atom   23 type  2   force =     0.00180519   -0.00274073    0.00473271
     atom   24 type  1   force =    -0.00409667   -0.00092621   -0.00211285
     atom   25 type  2   force =     0.00654084    0.00985073   -0.00378992
     atom   26 type  2   force =    -0.00331825   -0.00108477   -0.00322126
     atom   27 type  1   force =    -0.00581119   -0.00838641    0.00066623
     atom   28 type  2   force =     0.00024082   -0.00508392   -0.00586549
     atom   29 type  2   force =    -0.00007620    0.00125848   -0.00642095
     atom   30 type  1   force =    -0.01831438   -0.00219199    0.00044108
     atom   31 type  2   force =    -0.03343583   -0.00339519   -0.01293974
     atom   32 type  2   force =     0.00200722    0.00488295    0.00630549
     atom   33 type  1   force =     0.00282335    0.00110903    0.00461631
     atom   34 type  2   force =    -0.00096004   -0.02133266   -0.01569155
     atom   35 type  2   force =    -0.00248180    0.01533847   -0.00305998
     atom   36 type  3   force =     0.05141605    0.00790580    0.03814601
     The non-local contrib.  to forces
     atom    1 type  1   force =     0.00250061    0.02812386   -0.01310130
     atom    2 type  2   force =    -0.00122168   -0.00611562   -0.27249903
     atom    3 type  2   force =    -0.00988385   -0.00716361    0.26260122
     atom    4 type  1   force =     0.00406212    0.00607254    0.00317534
     atom    5 type  2   force =     0.00454987   -0.03310790   -0.25904078
     atom    6 type  2   force =    -0.00302304    0.00821381    0.27023459
     atom    7 type  1   force =    -0.00999730    0.00263252   -0.03237266
     atom    8 type  2   force =    -0.01345297   -0.00299605   -0.27099303
     atom    9 type  2   force =     0.00150638   -0.00998026    0.26624267
     atom   10 type  1   force =     0.00139294    0.00066884    0.00085668
     atom   11 type  2   force =     0.01206213    0.00196806   -0.26620958
     atom   12 type  2   force =    -0.01484680   -0.01662863    0.26172459
     atom   13 type  1   force =     0.00301169    0.02079105   -0.00669612
     atom   14 type  2   force =     0.00703019   -0.01135060   -0.26929806
     atom   15 type  2   force =    -0.00793857   -0.00774680    0.26183469
     atom   16 type  1   force =     0.00144030    0.02457762   -0.03602973
     atom   17 type  2   force =    -0.00172565   -0.02170779   -0.25483864
     atom   18 type  2   force =     0.00431637   -0.00148227    0.26855505
     atom   19 type  1   force =     0.01859068   -0.01383382   -0.00614466
     atom   20 type  2   force =     0.00133413   -0.01694843    0.26381246
     atom   21 type  1   force =     0.00385014    0.03161467    0.00588692
     atom   22 type  2   force =    -0.00341537   -0.00571023   -0.25809334
     atom   23 type  2   force =     0.00994898   -0.01971559    0.26770697
     atom   24 type  1   force =    -0.00457618    0.01650857   -0.00995403
     atom   25 type  2   force =     0.00488395   -0.00198775   -0.27035853
     atom   26 type  2   force =     0.00468565   -0.01258716    0.26534574
     atom   27 type  1   force =     0.00058664    0.02804826    0.02716193
     atom   28 type  2   force =    -0.01185099   -0.02904948   -0.28518171
     atom   29 type  2   force =     0.00802108    0.00054620    0.26362533
     atom   30 type  1   force =     0.02003115    0.01016020    0.03123878
     atom   31 type  2   force =    -0.12458307   -0.05724794    0.27493304
     atom   32 type  2   force =     0.00273053   -0.01137910    0.28113327
     atom   33 type  1   force =    -0.00670389    0.00854957    0.00462836
     atom   34 type  2   force =    -0.00311194   -0.01633454   -0.28297762
     atom   35 type  2   force =     0.00220554   -0.00553758    0.25881974
     atom   36 type  3   force =     1.12389925    0.31086458   -1.89214653
     The ionic contribution  to forces
[...]
     atom   28 type  2   force =     0.00216036   -0.01067540   -0.27828171
     atom   29 type  2   force =     0.00028197   -0.00752499    0.26809390
     atom   30 type  1   force =     0.00553864    0.00308832    0.02010788
     atom   31 type  2   force =    -0.00165637   -0.03461568    0.29780171
     atom   32 type  2   force =     0.00658474   -0.01337996    0.28112902
     atom   33 type  1   force =    -0.00169682    0.00446091    0.00063650
     atom   34 type  2   force =     0.00072117   -0.00848336   -0.27702830
     atom   35 type  2   force =    -0.00137669   -0.01555688    0.26422253
     atom   36 type  3   force =    -0.01282840    0.05859706   -2.31021396
     The ionic contribution  to forces
     atom    1 type  1   force =    -0.07536793    0.58492053    1.82766756
     atom    2 type  2   force =    -0.28283610    0.08758747   38.62048713
     atom    3 type  2   force =     0.03138141   -0.03397177  -37.92664033
     atom    4 type  1   force =    -0.59279308   -0.33095416   -1.41247679
     atom    5 type  2   force =    -0.74519452    0.82921472   37.97249858
     atom    6 type  2   force =     0.17015293   -0.53168722  -38.45941897
     atom    7 type  1   force =    -2.56061546   -1.56953440    0.58240634
     atom    8 type  2   force =    -2.02045844    0.03668262   37.54473477
     atom    9 type  2   force =     0.31996666   -0.02815068  -38.82632408
     atom   10 type  1   force =    -0.74329446    0.20964417    1.63035080
     atom   11 type  2   force =    -0.38205548   -1.12185932   38.22513922
     atom   12 type  2   force =     0.21859137    0.49884452  -38.45026367
     atom   13 type  1   force =     0.27464496    0.23322575    2.45494247
     atom   14 type  2   force =     0.14365621   -0.02162021   38.59407817
     atom   15 type  2   force =     0.01063220   -0.08078190  -37.86419170
     atom   16 type  1   force =     0.57337394    2.73571610    0.62878732
     atom   17 type  2   force =     1.47015679    0.10706036   37.67787896
     atom   18 type  2   force =    -0.11312186   -0.52440129  -38.65668938
     atom   19 type  1   force =     3.37230453   -1.43205835   -1.76661493
     atom   20 type  2   force =     0.05040080   -0.11556255  -39.59040480
     atom   21 type  1   force =     0.33868735    0.38073215    0.44875608
     atom   22 type  2   force =     1.06154904   -0.32830204   38.02001426
     atom   23 type  2   force =    -0.23747348    0.56368354  -38.64254586
     atom   24 type  1   force =    -0.18077943   -0.05393518    1.30140774
     atom   25 type  2   force =     0.12919693    0.08686286   38.65088033
     atom   26 type  2   force =    -0.04044909   -0.05830256  -37.70400842
     atom   27 type  1   force =     0.07496652   -0.95846939   -3.82911875
     atom   28 type  2   force =    -0.66991084   -0.47258092   37.40826097
     atom   29 type  2   force =    -0.07688647   -0.26864991  -38.47339310
     atom   30 type  1   force =    -1.02945746   -0.03998701   -1.77002863
     atom   31 type  2   force =     1.13851891    0.28186003   28.01994131
     atom   32 type  2   force =    -0.34153591    0.02498623  -38.60604801
     atom   33 type  1   force =     0.39062143    0.60814929    2.26904616
     atom   34 type  2   force =    -0.59563949    0.57280309   38.32689875
     atom   35 type  2   force =     0.02228440    0.36058567  -38.19993093
     atom   36 type  3   force =     0.89678311   -0.23175024   49.97392144
     The local contribution  to forces
     atom    1 type  1   force =     0.07576790   -0.60828511   -1.82066665
     atom    2 type  2   force =     0.28138121   -0.07574184  -38.37155372
     atom    3 type  2   force =    -0.02893505    0.04357833   37.68087637
     atom    4 type  1   force =     0.58747312    0.32268618    1.40969267
     atom    5 type  2   force =     0.74409083   -0.80770180  -37.73518071
     atom    6 type  2   force =    -0.17056132    0.53270982   38.21142315
     atom    7 type  1   force =     2.57543266    1.56453874   -0.55722180
     atom    8 type  2   force =     2.01227235   -0.03666162  -37.29806774
     atom    9 type  2   force =    -0.31178328    0.04123858   38.58396800
     atom   10 type  1   force =     0.74428581   -0.21606613   -1.63359422
     atom   11 type  2   force =     0.37669509    1.12378713  -37.98223079
     atom   12 type  2   force =    -0.21068006   -0.48491976   38.20679688
     atom   13 type  1   force =    -0.28024117   -0.25741618   -2.44816085
     atom   14 type  2   force =    -0.14116994    0.03156348  -38.34421076
     atom   15 type  2   force =    -0.01143265    0.09013512   37.62200870
     atom   16 type  1   force =    -0.57233126   -2.76609325   -0.58998606
     atom   17 type  2   force =    -1.46793220   -0.08503274  -37.43824465
     atom   18 type  2   force =     0.11284129    0.52614906   38.40947128
     atom   19 type  1   force =    -3.38276050    1.43960986    1.77301108
     atom   20 type  2   force =    -0.05183006    0.12611786   39.35019155
     atom   21 type  1   force =    -0.33894797   -0.40841913   -0.45310691
     atom   22 type  2   force =    -1.05666332    0.33104774  -37.77638337
     atom   23 type  2   force =     0.22891162   -0.54843448   38.40082632
     atom   24 type  1   force =     0.18480500    0.04077488   -1.29943128
     atom   25 type  2   force =    -0.13111690   -0.07618394  -38.40199037
     atom   26 type  2   force =     0.03849199    0.06766020   37.45629635
     atom   27 type  1   force =    -0.07379489    0.93474206    3.80618645
     atom   28 type  2   force =     0.66826273    0.48306762  -37.15120173
     atom   29 type  2   force =     0.07616605    0.27573472   38.22721323
     atom   30 type  1   force =     1.02262237    0.03665424    1.75021687
     atom   31 type  2   force =    -1.13795715   -0.24902057  -28.30911304
     atom   32 type  2   force =     0.33536698   -0.01288304   38.34663338
     atom   33 type  1   force =    -0.38881779   -0.61254914   -2.27005746
     atom   34 type  2   force =     0.59547153   -0.56460735  -38.07145818
     atom   35 type  2   force =    -0.02116018   -0.34710584   37.95667930
     atom   36 type  3   force =    -0.88329300    0.17397409  -47.68868515
     The core correction contribution to forces
     atom    1 type  1   force =     0.00000000    0.00000000    0.00000000
     atom    2 type  2   force =    -0.00004941    0.00050005    0.02099317
     atom    3 type  2   force =     0.00015390    0.00041650   -0.02089675
     atom    4 type  1   force =     0.00000000    0.00000000    0.00000000
     atom    5 type  2   force =    -0.00022530    0.00101362    0.02052778
     atom    6 type  2   force =     0.00004577   -0.00041641   -0.02096400
     atom    7 type  1   force =     0.00000000    0.00000000    0.00000000
     atom    8 type  2   force =    -0.00049453    0.00012136    0.02123230
     atom    9 type  2   force =     0.00076980    0.00071628   -0.02077602
     atom   10 type  1   force =     0.00000000    0.00000000    0.00000000
     atom   11 type  2   force =    -0.00009787   -0.00019488    0.02084705
     atom   12 type  2   force =     0.00061150    0.00108732   -0.02080279
     atom   13 type  1   force =     0.00000000    0.00000000    0.00000000
     atom   14 type  2   force =     0.00021396    0.00017021    0.02109467
     atom   15 type  2   force =    -0.00012486    0.00044233   -0.02074954
     atom   16 type  1   force =     0.00000000    0.00000000    0.00000000
     atom   17 type  2   force =     0.00027130    0.00115294    0.02084075
     atom   18 type  2   force =    -0.00011352   -0.00047781   -0.02094094
     atom   19 type  1   force =     0.00000000    0.00000000    0.00000000
     atom   20 type  2   force =    -0.00004567    0.00037595   -0.02110762
     atom   21 type  1   force =     0.00000000    0.00000000    0.00000000
     atom   22 type  2   force =     0.00006649   -0.00018012    0.02098562
     atom   23 type  2   force =    -0.00076727    0.00127549   -0.02079999
     atom   24 type  1   force =     0.00000000    0.00000000    0.00000000
     atom   25 type  2   force =    -0.00016787    0.00051614    0.02100741
     atom   26 type  2   force =    -0.00007623    0.00033703   -0.02092253
     atom   27 type  1   force =     0.00000000    0.00000000    0.00000000
     atom   28 type  2   force =    -0.00012271    0.00081197    0.02147967
     atom   29 type  2   force =    -0.00004002    0.00018854   -0.02082208
     atom   30 type  1   force =     0.00000000    0.00000000    0.00000000
     atom   31 type  2   force =     0.00019256    0.00193918   -0.00979385
     atom   32 type  2   force =    -0.00062713    0.00076310   -0.02143539
     atom   33 type  1   force =     0.00000000    0.00000000    0.00000000
     atom   34 type  2   force =    -0.00003888    0.00031461    0.02152736
     atom   35 type  2   force =     0.00017054    0.00094061   -0.02084633
     atom   36 type  3   force =     0.00014183   -0.00060574    0.02447265
     The Hubbard contrib.    to forces
     atom    1 type  1   force =     0.00000000    0.00000000    0.00000000
     atom    2 type  2   force =     0.00000000    0.00000000    0.00000000
     atom    3 type  2   force =     0.00000000    0.00000000    0.00000000
     atom    4 type  1   force =     0.00000000    0.00000000    0.00000000
     atom    5 type  2   force =     0.00000000    0.00000000    0.00000000
     atom    6 type  2   force =     0.00000000    0.00000000    0.00000000
     atom    7 type  1   force =     0.00000000    0.00000000    0.00000000
     atom    8 type  2   force =     0.00000000    0.00000000    0.00000000
     atom    9 type  2   force =     0.00000000    0.00000000    0.00000000
     atom   10 type  1   force =     0.00000000    0.00000000    0.00000000
     atom   11 type  2   force =     0.00000000    0.00000000    0.00000000
     atom   12 type  2   force =     0.00000000    0.00000000    0.00000000
     atom   13 type  1   force =     0.00000000    0.00000000    0.00000000
     atom   14 type  2   force =     0.00000000    0.00000000    0.00000000
     atom   15 type  2   force =     0.00000000    0.00000000    0.00000000
     atom   16 type  1   force =     0.00000000    0.00000000    0.00000000
     atom   17 type  2   force =     0.00000000    0.00000000    0.00000000
     atom   18 type  2   force =     0.00000000    0.00000000    0.00000000
     atom   19 type  1   force =     0.00000000    0.00000000    0.00000000
     atom   20 type  2   force =     0.00000000    0.00000000    0.00000000
     atom   21 type  1   force =     0.00000000    0.00000000    0.00000000
     atom   22 type  2   force =     0.00000000    0.00000000    0.00000000
     atom   23 type  2   force =     0.00000000    0.00000000    0.00000000
     atom   24 type  1   force =     0.00000000    0.00000000    0.00000000
     atom   25 type  2   force =     0.00000000    0.00000000    0.00000000
     atom   26 type  2   force =     0.00000000    0.00000000    0.00000000
     atom   27 type  1   force =     0.00000000    0.00000000    0.00000000
     atom   28 type  2   force =     0.00000000    0.00000000    0.00000000
     atom   29 type  2   force =     0.00000000    0.00000000    0.00000000
     atom   30 type  1   force =     0.00000000    0.00000000    0.00000000
     atom   31 type  2   force =     0.00000000    0.00000000    0.00000000
     atom   32 type  2   force =     0.00000000    0.00000000    0.00000000
     atom   33 type  1   force =     0.00000000    0.00000000    0.00000000
     atom   34 type  2   force =     0.00000000    0.00000000    0.00000000
     atom   35 type  2   force =     0.00000000    0.00000000    0.00000000
     atom   36 type  3   force =     0.00000000    0.00000000    0.00000000
     The SCF correction term to forces
     atom    1 type  1   force =    -0.00000715    0.00001057   -0.00003323
     atom    2 type  2   force =     0.00000091    0.00000238   -0.00001819
     atom    3 type  2   force =     0.00000418    0.00001017   -0.00001581
     atom    4 type  1   force =    -0.00002111   -0.00002983   -0.00004903
     atom    5 type  2   force =    -0.00001626   -0.00000471   -0.00002023
     atom    6 type  2   force =     0.00000220   -0.00000736   -0.00000171
     atom    7 type  1   force =    -0.00000985   -0.00000232   -0.00002761
     atom    8 type  2   force =    -0.00001124   -0.00000148   -0.00001446
     atom    9 type  2   force =    -0.00000091   -0.00000658   -0.00001512
     atom   10 type  1   force =    -0.00000721    0.00001968   -0.00002417
     atom   11 type  2   force =    -0.00001251    0.00001054   -0.00001301
     atom   12 type  2   force =    -0.00000389    0.00000458   -0.00000856
     atom   13 type  1   force =     0.00000411   -0.00000746   -0.00000688
     atom   14 type  2   force =    -0.00001042    0.00000280   -0.00000868
     atom   15 type  2   force =     0.00000411    0.00000748    0.00000187
     atom   16 type  1   force =    -0.00000249   -0.00002121   -0.00001391
     atom   17 type  2   force =     0.00001432   -0.00000509   -0.00001117
     atom   18 type  2   force =     0.00000717   -0.00000088    0.00000124
     atom   19 type  1   force =     0.00001733   -0.00001329   -0.00000833
     atom   20 type  2   force =     0.00000107   -0.00000771    0.00000300
     atom   21 type  1   force =     0.00000729    0.00001778   -0.00001150
     atom   22 type  2   force =     0.00000743    0.00000346   -0.00001319
     atom   23 type  2   force =     0.00000264   -0.00000192    0.00000643
     atom   24 type  1   force =    -0.00000947    0.00000447   -0.00004156
     atom   25 type  2   force =     0.00001703    0.00000485   -0.00001569
     atom   26 type  2   force =    -0.00000635    0.00000382    0.00000046
     atom   27 type  1   force =     0.00001286   -0.00001512   -0.00003093
     atom   28 type  2   force =     0.00000536   -0.00001403   -0.00002088
     atom   29 type  2   force =    -0.00000389   -0.00001209   -0.00001498
     atom   30 type  1   force =     0.00001892   -0.00000789   -0.00004317
     atom   31 type  2   force =     0.00002157   -0.00000250   -0.00002774
     atom   32 type  2   force =     0.00000654   -0.00000380   -0.00000258
     atom   33 type  1   force =     0.00001361    0.00003159   -0.00002330
     atom   34 type  2   force =     0.00000105    0.00001261   -0.00001225
     atom   35 type  2   force =    -0.00000525    0.00001472   -0.00001453
     atom   36 type  3   force =     0.00001681   -0.00001622   -0.00002293

     Total force =     0.006481     Total SCF correction =     0.000156
     Energy error            =      8.6E-05 Ry
     Gradient error          =      1.7E-03 Ry/Bohr

     bfgs converged in  20 scf cycles and  19 bfgs steps
     (criteria: energy <  1.0E-04 Ry, force <  1.0E-02 Ry/Bohr)

     End of BFGS Geometry Optimization

     Final energy             =   -2246.4506446031 Ry

     File ./MoS2-V-O.bfgs deleted, as requested
Begin final coordinates

ATOMIC_POSITIONS (angstrom)
Mo            6.5396763549        1.7457412918        2.7657370989
S             8.1137722445        0.8401782442        4.3677574041
S             8.1183292315        0.8358171065        1.1804697960
Mo            8.0966175283        4.4918170057        2.7058675583
S             6.5011705237        3.6585041235        4.3073161951
S             6.5241892632        3.5531298753        1.1152054142
Mo            6.4950192939        7.1803550942        2.6596395846
S             8.0343186971        6.3021311350        4.2977858857
S             8.1087524233        6.3174474254        1.1001337840
Mo            8.1188260435        9.9298902343        2.7686475809
S             6.5003720611        8.9453747118        4.3262299116
S             6.5596559370        9.0364759449        1.1284208622
Mo            3.4120182466        1.7528675683        2.7803675940
S             4.9806203818        0.8080839558        4.3637517233
S             4.9681510499        0.8356278493        1.1807097389
Mo            4.9709537250        4.5406849223        2.6646362020
S             3.4376202581        3.6726747424        4.3224949062
S             3.4322138150        3.5386831409        1.1155001287
Mo            3.4796752969        7.1973341035        2.6515224284
S             4.9810507576        6.3003423124        1.0289768397
Mo            4.9701217186        9.9047083767        2.7407153281
S             3.4521282266        8.9266141608        4.3455662515
S             3.3772543192        9.0472437557        1.1286787686
Mo            0.2407702344        1.7434862643        2.7712855528
S             1.8285097195        0.8456893184        4.3829989481
S             1.8326151706        0.8354227134        1.1969293249
Mo            1.8442233828        4.4648579370        2.6972796853
S             0.2433595799        3.6109174346        4.3167799441
S             0.2331923256        3.5443686018        1.1334058692
Mo            0.2163358501        7.2238065755        2.7325279464
S             1.8778313706        6.3155034650        4.2095079903
S             1.8248737245        6.3230423346        1.1243052970
Mo            1.8334783030        9.9265252537        2.7879953972
S             0.2388950607        9.0186096659        4.3745937103
S             0.2537880044        9.0643635510        1.1734748587
O             1.8827179997        6.2742373257        5.7075460276
End final coordinates



     Writing all to output data dir ./MoS2-V-O.save/
 
     init_run     :      4.62s CPU      5.11s WALL (       1 calls)
     electrons    :   1729.31s CPU   1951.76s WALL (      20 calls)
     update_pot   :     57.86s CPU     61.44s WALL (      19 calls)
     forces       :     53.99s CPU     61.54s WALL (      20 calls)

     Called by init_run:
     wfcinit      :      0.49s CPU      0.53s WALL (       1 calls)
     potinit      :      2.38s CPU      2.63s WALL (       1 calls)
     hinit0       :      0.44s CPU      0.47s WALL (       1 calls)

     Called by electrons:
     c_bands      :    255.51s CPU    261.63s WALL (     181 calls)
     sum_band     :    101.32s CPU    129.81s WALL (     181 calls)
     v_of_rho     :    168.66s CPU    204.70s WALL (     194 calls)
     newd         :     57.59s CPU     84.77s WALL (     194 calls)
     PAW_pot      :      7.69s CPU      7.72s WALL (     213 calls)
     mix_rho      :   1158.52s CPU   1284.93s WALL (     181 calls)

     Called by c_bands:
     init_us_2    :      4.18s CPU      4.49s WALL (     382 calls)
     init_us_2:cp :      4.18s CPU      4.49s WALL (     382 calls)
     regterg      :    241.97s CPU    247.76s WALL (     181 calls)

     Called by *egterg:
     rdiaghg      :     16.43s CPU     16.60s WALL (     925 calls)
     h_psi        :    157.75s CPU    159.11s WALL (     952 calls)
     s_psi        :     14.93s CPU     14.99s WALL (     952 calls)
     g_psi        :      0.78s CPU      0.79s WALL (     770 calls)

     Called by h_psi:
     h_psi:calbec :     16.44s CPU     16.52s WALL (     952 calls)
     vloc_psi     :    124.62s CPU    125.81s WALL (     952 calls)
     add_vuspsi   :     14.67s CPU     14.76s WALL (     952 calls)

     General routines
     calbec       :     24.07s CPU     24.20s WALL (    1232 calls)
     fft          :    114.68s CPU    132.87s WALL (   13000 calls)
     ffts         :    520.97s CPU    642.95s WALL (  283511 calls)
     fftw         :     78.55s CPU     79.20s WALL (  110702 calls)
     interpolate  :      2.38s CPU      2.74s WALL (     194 calls)
 
     Parallel routines
 
     PWSCF        :  30m54.16s CPU  34m52.40s WALL

 
   This run was terminated on:  18:10:39   1Nov2023            

=------------------------------------------------------------------------------=
   JOB DONE.
=------------------------------------------------------------------------------=
