
     Program PWSCF v.7.2 starts on  1Nov2023 at 21: 7:56 

     This program is part of the open-source Quantum ESPRESSO suite
     for quantum simulation of materials; please cite
         "P. Giannozzi et al., J. Phys.:Condens. Matter 21 395502 (2009);
         "P. Giannozzi et al., J. Phys.:Condens. Matter 29 465901 (2017);
         "P. Giannozzi et al., J. Chem. Phys. 152 154105 (2020);
          URL http://www.quantum-espresso.org", 
     in publications or presentations arising from this work. More details at
     http://www.quantum-espresso.org/quote

     Parallel version (MPI & OpenMP), running on      48 processor cores
     Number of MPI processes:                48
     Threads/MPI process:                     1

     MPI processes distributed on     1 nodes
     43761 MiB available memory on the printing compute node when the environment starts
 
     Waiting for input...
     Reading input from standard input
Warning: card &CELL ignored
Warning: card CELL_DYNAMICS = 'BFGS', ignored
Warning: card CELL_DOFREE = '2DXY' ignored
Warning: card / ignored

     Current dimensions of program PWSCF are:
     Max number of different atomic species (ntypx) = 10
     Max number of k-points (npk) =  40000
     Max angular momentum in pseudopotentials (lmaxx) =  4
     file O.pbe-n-kjpaw_psl.0.1.UPF: wavefunction(s)  2P renormalized

     IMPORTANT: XC functional enforced from input :
     Exchange-correlation= RVV10
                           (   1   4  13   4  26   0   0)
     Any further DFT definition will be discarded
     Please, verify this is what you really want


     gamma-point specific algorithms are used
     signal trapping enabled: kill the code with -SIGUSR1 to stop cleanly the simulation 
 
     R & G space division:  proc/nbgrp/npool/nimage =      48
     Subspace diagonalization in iterative solution of the eigenvalue problem:
     one sub-group per band group will be used
     scalapack distributed-memory algorithm (size of sub-group:  2*  2 procs)

 
     Parallelization info
     --------------------
     sticks:   dense  smooth     PW     G-vecs:    dense   smooth      PW
     Min         396     194     47               101632    35090    4376
     Max         398     196     50               101674    35128    4410
     Sum       19091    9389   2349              4879585  1685513  210763
 
     Using Slab Decomposition
 


     bravais-lattice index     =            0
     lattice parameter (alat)  =      17.8707  a.u.
     unit-cell volume          =   17436.2743 (a.u.)^3
     number of atoms/cell      =           36
     number of atomic types    =            3
     number of electrons       =       312.00
     number of Kohn-Sham states=          187
     kinetic-energy cutoff     =      80.0000  Ry
     charge density cutoff     =     650.0000  Ry
     scf convergence threshold =      1.0E-06
     mixing beta               =       0.7000
     number of iterations used =            8  local-TF  mixing
     energy convergence thresh.=      1.0E-04
     force convergence thresh. =      1.0E-02
     Exchange-correlation= RVV10
                           (   1   4  13   4  26   0   0)
     nstep                     =          200


     celldm(1)=  17.870686  celldm(2)=   0.000000  celldm(3)=   0.000000
     celldm(4)=   0.000000  celldm(5)=   0.000000  celldm(6)=   0.000000

     crystal axes: (cart. coord. in units of alat)
               a(1) = (   1.000000   0.000000   0.000000 )  
               a(2) = (   0.000000   1.155671   0.000000 )  
               a(3) = (   0.000000   0.000000   2.643601 )  

     reciprocal axes: (cart. coord. in units 2 pi/alat)
               b(1) = (  1.000000  0.000000  0.000000 )  
               b(2) = (  0.000000  0.865298  0.000000 )  
               b(3) = (  0.000000  0.000000  0.378272 )  


     PseudoPot. # 1 for Mo read from file:
     ../pseudo/Mo_ONCV_PBE-1.0.oncvpsp.upf
     MD5 check sum: 1b5d28e075c9ccadda658a603575cd1f
     Pseudo is Norm-conserving, Zval = 14.0
     Generated using ONCVPSP code by D. R. Hamann
     Using radial grid of 1526 points,  6 beta functions with: 
                l(1) =   0
                l(2) =   0
                l(3) =   1
                l(4) =   1
                l(5) =   2
                l(6) =   2

     PseudoPot. # 2 for S  read from file:
     ../pseudo/s_pbe_v1.4.uspp.F.UPF
     MD5 check sum: 88d86576ff6df21479756cfb9bdac1df
     Pseudo is Ultrasoft + core correction, Zval =  6.0
     Generated by new atomic code, or converted to UPF format
     Using radial grid of  907 points,  6 beta functions with: 
                l(1) =   0
                l(2) =   0
                l(3) =   1
                l(4) =   1
                l(5) =   2
                l(6) =   2
     Q(r) pseudized with  8 coefficients,  rinner =    1.300   1.300   1.300
                                                       1.300   1.300

     PseudoPot. # 3 for O  read from file:
     ../pseudo/O.pbe-n-kjpaw_psl.0.1.UPF
     MD5 check sum: 0234752ac141de4415c5fc33072bef88
     Pseudo is Projector augmented-wave + core cor, Zval =  6.0
     Generated using "atomic" code by A. Dal Corso  v.5.0.99 svn rev. 10869
     Shape of augmentation charge: BESSEL
     Using radial grid of 1095 points,  4 beta functions with: 
                l(1) =   0
                l(2) =   0
                l(3) =   1
                l(4) =   1
     Q(r) pseudized with 0 coefficients 


     atomic species   valence    mass     pseudopotential
        Mo            14.00    95.94000     Mo( 1.00)
        S              6.00    32.06500     S ( 1.00)
        O              6.00    15.99940     O ( 1.00)

     No symmetry found



   Cartesian axes

     site n.     atom                  positions (alat units)
         1           Mo  tau(   1) = (   0.6952221   0.1890506   0.2985846  )
         2           S   tau(   2) = (   0.8646417   0.0856217   0.4689279  )
         3           S   tau(   3) = (   0.8663890   0.0857843   0.1351291  )
         4           Mo  tau(   4) = (   0.8560186   0.4753274   0.2873942  )
         5           S   tau(   5) = (   0.6873294   0.3936244   0.4596353  )
         6           S   tau(   6) = (   0.6929804   0.3713468   0.1185692  )
         7           Mo  tau(   7) = (   0.6862796   0.7633098   0.2825370  )
         8           S   tau(   8) = (   0.8545980   0.6708292   0.4486168  )
         9           S   tau(   9) = (   0.8545123   0.6666874   0.1146125  )
        10           Mo  tau(  10) = (   0.8629403   1.0471007   0.3006803  )
        11           S   tau(  11) = (   0.6868280   0.9456650   0.4634891  )
        12           S   tau(  12) = (   0.6998113   0.9568511   0.1205389  )
        13           Mo  tau(  13) = (   0.3618216   0.1847309   0.2935964  )
        14           S   tau(  14) = (   0.5260962   0.0863870   0.4600448  )
        15           S   tau(  15) = (   0.5348379   0.0894875   0.1297123  )
        16           Mo  tau(  16) = (   0.5265817   0.4772436   0.2784130  )
        17           S   tau(  17) = (   0.3624753   0.3882513   0.4525556  )
        18           S   tau(  18) = (   0.3635411   0.3752055   0.1119148  )
        19           Mo  tau(  19) = (   0.3652268   0.7630864   0.2781795  )
        20           S   tau(  20) = (   0.5269494   0.6690381   0.1096838  )
        21           Mo  tau(  21) = (   0.5300192   1.0470394   0.2900995  )
        22           S   tau(  22) = (   0.3670346   0.9457522   0.4574073  )
        23           S   tau(  23) = (   0.3604225   0.9585725   0.1159032  )
        24           Mo  tau(  24) = (   0.0313099   0.1847895   0.3013130  )
        25           S   tau(  25) = (   0.1956761   0.0838230   0.4650863  )
        26           S   tau(  26) = (   0.1967693   0.0903508   0.1278874  )
        27           Mo  tau(  27) = (   0.1967578   0.4753919   0.2813011  )
        28           S   tau(  28) = (   0.0287851   0.3864324   0.4586755  )
        29           S   tau(  29) = (   0.0244514   0.3729871   0.1239344  )
        30           Mo  tau(  30) = (   0.0286728   0.7631204   0.2856894  )
        31           S   tau(  31) = (   0.2011512   0.6675435   0.4465001  )
        32           S   tau(  32) = (   0.1969214   0.6672839   0.1104564  )
        33           Mo  tau(  33) = (   0.1950294   1.0511147   0.2932237  )
        34           S   tau(  34) = (   0.0312912   0.9612169   0.4667423  )
        35           S   tau(  35) = (   0.0292670   0.9563028   0.1216485  )
        36           O   tau(  36) = (   0.8888889   0.8988550   0.5656742  )

     number of k points=     1  Gaussian smearing, width (Ry)=  0.0100
                       cart. coord. in units 2pi/alat
        k(    1) = (   0.0000000   0.0000000   0.0000000), wk =   2.0000000

     Dense  grid:  2439793 G-vectors     FFT dimensions: ( 150, 180, 384)

     Smooth grid:   842757 G-vectors     FFT dimensions: ( 108, 120, 270)

     Estimated max dynamical RAM per process >     269.22 MB

     Estimated total dynamical RAM >      12.62 GB

     Initial potential from superposition of free atoms

     starting charge     311.9873, renormalised to     312.0000

     negative rho (up, down):  2.750E-04 0.000E+00


---------------------------------------------------------------------------------
Carrying out rVV10 run using the following parameters:
Nqs =      20    Nr_points =    1024   r_max =   100.000
b_value =  6.30000    beta =  0.00901
     q_mesh =  0.00010000  0.00030000  0.00058939  0.00100810
               0.00161396  0.00249058  0.00375900  0.00559430
               0.00824984  0.01209221  0.01765183  0.02569619
               0.03733578  0.05417739  0.07854596  0.11380545
               0.16482331  0.23864234  0.34545298  0.50000000

Gradients computed in Reciprocal space

---------------------------------------------------------------------------------


     Starting wfcs are  216 randomized atomic wfcs
     Checking if some PAW data can be deallocated... 

     total cpu time spent up to now is        5.4 secs

     Self-consistent Calculation

     iteration #  1     ecut=    80.00 Ry     beta= 0.70
     Davidson diagonalization with overlap
     ethr =  1.00E-02,  avg # of iterations =  2.0

     Threshold (ethr) on eigenvalues was too large:
     Diagonalizing with lowered threshold

     Davidson diagonalization with overlap
     ethr =  4.46E-04,  avg # of iterations =  4.0

     negative rho (up, down):  2.389E-08 0.000E+00

     total cpu time spent up to now is       20.2 secs

     total energy              =   -2246.17915188 Ry
     estimated scf accuracy    <       1.64225415 Ry

     iteration #  2     ecut=    80.00 Ry     beta= 0.70
     Davidson diagonalization with overlap
     ethr =  5.26E-04,  avg # of iterations =  4.0

     total cpu time spent up to now is       25.0 secs

     total energy              =   -2246.18282102 Ry
     estimated scf accuracy    <       0.71897662 Ry

     iteration #  3     ecut=    80.00 Ry     beta= 0.70
     Davidson diagonalization with overlap
     ethr =  2.30E-04,  avg # of iterations =  4.0

     total cpu time spent up to now is       28.9 secs

     total energy              =   -2246.16406780 Ry
     estimated scf accuracy    <       0.25348762 Ry

     iteration #  4     ecut=    80.00 Ry     beta= 0.70
     Davidson diagonalization with overlap
     ethr =  8.12E-05,  avg # of iterations =  9.0

     total cpu time spent up to now is       33.2 secs

     total energy              =   -2246.20853281 Ry
     estimated scf accuracy    <       0.03342956 Ry

     iteration #  5     ecut=    80.00 Ry     beta= 0.70
     Davidson diagonalization with overlap
     c_bands:  1 eigenvalues not converged
     ethr =  1.07E-05,  avg # of iterations = 20.0

     total cpu time spent up to now is       38.2 secs

     total energy              =   -2246.20995524 Ry
     estimated scf accuracy    <       0.01762411 Ry

     iteration #  6     ecut=    80.00 Ry     beta= 0.70
     Davidson diagonalization with overlap
     ethr =  5.65E-06,  avg # of iterations =  2.0

     total cpu time spent up to now is       41.8 secs

     total energy              =   -2246.20933657 Ry
     estimated scf accuracy    <       0.01229610 Ry

     iteration #  7     ecut=    80.00 Ry     beta= 0.70
     Davidson diagonalization with overlap
     ethr =  3.94E-06,  avg # of iterations =  2.0

     total cpu time spent up to now is       45.5 secs

     total energy              =   -2246.20846038 Ry
     estimated scf accuracy    <       0.00787572 Ry

     iteration #  8     ecut=    80.00 Ry     beta= 0.70
     Davidson diagonalization with overlap
     ethr =  2.52E-06,  avg # of iterations =  2.0

     negative rho (up, down):  4.373E-03 0.000E+00

     total cpu time spent up to now is       51.5 secs

     total energy              =   -2246.20706588 Ry
     estimated scf accuracy    <       0.00470060 Ry

     iteration #  9     ecut=    80.00 Ry     beta= 0.70
     Davidson diagonalization with overlap
     ethr =  1.51E-06,  avg # of iterations =  2.0

     negative rho (up, down):  1.531E-02 0.000E+00

     total cpu time spent up to now is       57.6 secs

     total energy              =   -2246.20698087 Ry
     estimated scf accuracy    <       0.00240222 Ry

     iteration # 10     ecut=    80.00 Ry     beta= 0.70
     Davidson diagonalization with overlap
     ethr =  7.70E-07,  avg # of iterations =  2.0

     negative rho (up, down):  2.191E-02 0.000E+00

     total cpu time spent up to now is       64.2 secs

     total energy              =   -2246.20695173 Ry
     estimated scf accuracy    <       0.00119277 Ry

     iteration # 11     ecut=    80.00 Ry     beta= 0.70
     Davidson diagonalization with overlap
     ethr =  3.82E-07,  avg # of iterations =  2.0

     negative rho (up, down):  1.737E-02 0.000E+00

     total cpu time spent up to now is       71.0 secs

     total energy              =   -2246.20698864 Ry
     estimated scf accuracy    <       0.00042538 Ry

     iteration # 12     ecut=    80.00 Ry     beta= 0.70
     Davidson diagonalization with overlap
     ethr =  1.36E-07,  avg # of iterations =  2.0

     negative rho (up, down):  5.104E-03 0.000E+00

     total cpu time spent up to now is       79.4 secs

     total energy              =   -2246.20701608 Ry
     estimated scf accuracy    <       0.00007416 Ry

     iteration # 13     ecut=    80.00 Ry     beta= 0.70
     Davidson diagonalization with overlap
     ethr =  2.38E-08,  avg # of iterations =  5.0

     negative rho (up, down):  2.052E-03 0.000E+00

     total cpu time spent up to now is       87.9 secs

     total energy              =   -2246.20705873 Ry
     estimated scf accuracy    <       0.00002005 Ry

     iteration # 14     ecut=    80.00 Ry     beta= 0.70
     Davidson diagonalization with overlap
     ethr =  6.43E-09,  avg # of iterations =  2.0

     negative rho (up, down):  6.566E-04 0.000E+00

     total cpu time spent up to now is       97.3 secs

     total energy              =   -2246.20706088 Ry
     estimated scf accuracy    <       0.00000434 Ry

     iteration # 15     ecut=    80.00 Ry     beta= 0.70
     Davidson diagonalization with overlap
     ethr =  1.39E-09,  avg # of iterations =  5.0

     negative rho (up, down):  3.862E-04 0.000E+00

     total cpu time spent up to now is      106.4 secs

     total energy              =   -2246.20706296 Ry
     estimated scf accuracy    <       0.00000199 Ry

     iteration # 16     ecut=    80.00 Ry     beta= 0.70
     Davidson diagonalization with overlap
     ethr =  6.37E-10,  avg # of iterations =  4.0

     negative rho (up, down):  2.047E-04 0.000E+00

     total cpu time spent up to now is      110.0 secs

     End of self-consistent calculation

          k = 0.0000 0.0000 0.0000 (105382 PWs)   bands (ev):

   -63.1113 -62.9697 -62.9585 -62.9145 -62.9057 -62.8980 -62.8963 -62.8881
   -62.8662 -62.8546 -62.8491 -62.8302 -37.4194 -37.3570 -37.2761 -37.2422
   -37.2298 -37.2144 -37.1970 -37.1813 -37.1676 -37.1567 -37.1410 -37.1283
   -37.1226 -37.1090 -37.0982 -37.0882 -37.0794 -37.0773 -37.0646 -37.0600
   -37.0545 -37.0393 -37.0363 -37.0198 -37.0143 -37.0126 -37.0035 -36.9788
   -36.9689 -36.9537 -36.9401 -36.9342 -36.9106 -36.8959 -36.8431 -36.8148
   -20.5015 -16.0131 -15.2632 -15.1987 -15.1479 -14.9820 -14.8253 -14.7640
   -14.5733 -14.5563 -14.5111 -14.4521 -14.4321 -14.3629 -14.3072 -14.2842
   -14.2108 -14.1981 -14.0948 -14.0702 -13.9545 -13.9352 -13.8985 -13.8078
    -7.9930  -7.8089  -7.6184  -7.4923  -7.4181  -7.3560  -7.2956  -7.2296
    -7.2187  -7.0291  -6.9474  -6.8765  -6.8227  -6.7872  -6.7233  -6.6037
    -6.5308  -6.4875  -6.3680  -6.3061  -6.1873  -6.0811  -6.0008  -5.9225
    -5.8928  -5.8711  -5.8208  -5.7942  -5.7255  -5.7093  -5.6657  -5.6098
    -5.6048  -5.5314  -5.5017  -5.4346  -5.2824  -5.2013  -5.1836  -5.1050
    -5.0709  -5.0074  -4.9423  -4.7482  -4.7083  -4.5477  -4.4292  -4.3998
    -4.3634  -4.2932  -4.1711  -4.1186  -3.9849  -3.9726  -3.8948  -3.8656
    -3.8342  -3.7768  -3.7282  -3.6816  -3.6195  -3.6086  -3.5599  -3.5360
    -3.4672  -3.4490  -3.3519  -3.3087  -3.1102  -2.9981  -2.9171  -2.8870
    -2.8577  -2.8143  -2.7647  -2.7560  -2.7328  -2.6939  -2.3819  -2.3393
    -2.0995  -2.0913  -1.9554  -1.7732  -1.4836  -0.8789  -0.7443  -0.2550
    -0.2210  -0.1817  -0.0855  -0.0489  -0.0008   0.1125   0.1374   0.1825
     0.2429   0.2918   0.3644   0.3816   0.4275   0.4695   0.4845   0.5446
     0.5790   0.6299   0.6854   0.7062   0.7221   0.8092   0.8572   0.8845
     0.9146   0.9716   1.1429

     the Fermi energy is    -1.6283 ev

!    total energy              =   -2246.20706336 Ry
     estimated scf accuracy    <       0.00000081 Ry
     smearing contrib. (-TS)   =      -0.00365400 Ry
     internal energy E=F+TS    =   -2246.20340936 Ry

     The total energy is F=E-TS. E is the sum of the following terms:
     one-electron contribution =  -18456.55918920 Ry
     hartree contribution      =    9216.31741474 Ry
     xc contribution           =    -391.98422556 Ry
     ewald contribution        =    7395.89162682 Ry
     one-center paw contrib.   =      -9.86903616 Ry

     convergence has been achieved in  16 iterations

     negative rho (up, down):  2.047E-04 0.000E+00

     Forces acting on atoms (cartesian axes, Ry/au):

     atom    1 type  1   force =     0.01478131   -0.02497052    0.00595614
     atom    2 type  2   force =    -0.01370999    0.01536256    0.00496534
     atom    3 type  2   force =    -0.01461491    0.00670464   -0.00039140
     atom    4 type  1   force =     0.00156323   -0.00119771   -0.00459853
     atom    5 type  2   force =     0.00008035   -0.00441926   -0.00556549
     atom    6 type  2   force =     0.00030351    0.01109248   -0.00125582
     atom    7 type  1   force =     0.00779029   -0.01548373   -0.00319227
     atom    8 type  2   force =    -0.00005974   -0.01005142    0.00572308
     atom    9 type  2   force =     0.01226072    0.00672929    0.01316546
     atom   10 type  1   force =    -0.00705760    0.04125597   -0.06726673
     atom   11 type  2   force =    -0.01409152   -0.00191240   -0.02869471
     atom   12 type  2   force =    -0.00333127    0.00174076    0.00876434
     atom   13 type  1   force =     0.00382916    0.00864603   -0.00714478
     atom   14 type  2   force =     0.00907077   -0.00047855    0.01509841
     atom   15 type  2   force =    -0.01198633    0.00461846   -0.01006622
     atom   16 type  1   force =    -0.00016972    0.01131425    0.00480119
     atom   17 type  2   force =     0.00589170    0.00034794    0.00156886
     atom   18 type  2   force =    -0.00323197   -0.00582172    0.01263816
     atom   19 type  1   force =     0.00398907   -0.00428935   -0.00695269
     atom   20 type  2   force =     0.00006909   -0.00533465   -0.00168012
     atom   21 type  1   force =    -0.02197822   -0.00098473   -0.01468666
     atom   22 type  2   force =     0.00677642   -0.00283617   -0.00247784
     atom   23 type  2   force =    -0.00468160    0.00394203    0.01152976
     atom   24 type  1   force =    -0.00933352   -0.01333215   -0.02212220
     atom   25 type  2   force =     0.01952811    0.02207778    0.00818153
     atom   26 type  2   force =    -0.00645208   -0.00697421   -0.00520691
     atom   27 type  1   force =     0.00135546    0.00041894    0.00750414
     atom   28 type  2   force =     0.00038351   -0.00192975   -0.00291117
     atom   29 type  2   force =     0.00370692    0.00060560   -0.00358522
     atom   30 type  1   force =     0.00541000    0.00085868   -0.02774177
     atom   31 type  2   force =     0.00055181   -0.00071300    0.01908612
     atom   32 type  2   force =    -0.00680726    0.00454706    0.00766271
     atom   33 type  1   force =     0.02175952    0.01762705   -0.03477635
     atom   34 type  2   force =    -0.10451338   -0.10662223    0.05488231
     atom   35 type  2   force =    -0.00527109    0.00834347    0.01488147
     atom   36 type  3   force =     0.10818926    0.04111856    0.05390787
     The non-local contrib.  to forces
     atom    1 type  1   force =    -0.00617289    0.02698885   -0.00778061
     atom    2 type  2   force =    -0.00891691   -0.00319574   -0.27185336
     atom    3 type  2   force =    -0.01360508   -0.00566687    0.27196851
     atom    4 type  1   force =    -0.00362567    0.02235192    0.00403552
     atom    5 type  2   force =     0.00540591   -0.03267816   -0.25496285
     atom    6 type  2   force =    -0.00093578    0.01166403    0.26211565
     atom    7 type  1   force =    -0.02297709    0.00196724   -0.01618564
     atom    8 type  2   force =    -0.00565725    0.00030368   -0.24518247
     atom    9 type  2   force =     0.00634596   -0.00806867    0.27571800
     atom   10 type  1   force =    -0.00141750   -0.00054682    0.00534084
     atom   11 type  2   force =     0.05955882   -0.01668433   -0.22995008
     atom   12 type  2   force =    -0.01316804   -0.01948031    0.25790415
     atom   13 type  1   force =     0.00300562    0.02184441   -0.00676465
     atom   14 type  2   force =     0.00930436   -0.00724091   -0.26097502
     atom   15 type  2   force =    -0.01227797    0.00028488    0.25801271
     atom   16 type  1   force =    -0.00082679    0.03051278   -0.03001371
     atom   17 type  2   force =     0.00248742   -0.02855741   -0.25130265
     atom   18 type  2   force =    -0.00440213   -0.00366446    0.27412360
     atom   19 type  1   force =     0.01840947   -0.00288040   -0.01349896
     atom   20 type  2   force =    -0.00305667   -0.02312157    0.26539296
     atom   21 type  1   force =     0.01916201    0.01852881    0.01345445
     atom   22 type  2   force =     0.00412729    0.00441271   -0.26351990
     atom   23 type  2   force =     0.00243816   -0.01307369    0.26910106
     atom   24 type  1   force =     0.00223042    0.02152093   -0.00932166
     atom   25 type  2   force =     0.01150603    0.00927190   -0.25858226
     atom   26 type  2   force =    -0.00067851   -0.01893588    0.26651611
     atom   27 type  1   force =    -0.00600920    0.00823984    0.01161510
     atom   28 type  2   force =    -0.00274715   -0.02487932   -0.27471117
     atom   29 type  2   force =     0.00766058    0.00015055    0.26391375
     atom   30 type  1   force =     0.00096940    0.02059309    0.02109659
     atom   31 type  2   force =    -0.01189663    0.00347111   -0.25544419
     atom   32 type  2   force =     0.00061881   -0.01057097    0.27270573
     atom   33 type  1   force =     0.02260287    0.00167291    0.00024338
     atom   34 type  2   force =    -0.38855727   -0.19618148    0.07274862
     atom   35 type  2   force =     0.00036894   -0.01107707    0.27073950
     atom   36 type  3   force =     0.99860979    0.47827422   -0.82792277
     The ionic contribution  to forces
     atom    1 type  1   force =    -0.00126415    0.93055180    4.48268409
     atom    2 type  2   force =    -0.76722315    1.84842839   38.75543964
     atom    3 type  2   force =    -0.18295539    0.30425638  -36.83091412
     atom    4 type  1   force =    -0.00496607   -0.42968823   -0.81616480
     atom    5 type  2   force =    -1.16562977    1.24553403   38.52098415
     atom    6 type  2   force =     0.28078397   -0.55463049  -38.55155695
     atom    7 type  1   force =    -4.24851675   -4.00342796   -0.57175833
     atom    8 type  2   force =    -1.40245167   -2.79418604   35.81829644
     atom    9 type  2   force =     0.30254928   -0.32724824  -38.91984097
     atom   10 type  1   force =    -1.53088975    2.25117850    0.52599607
     atom   11 type  2   force =    -4.02465256   -0.77191487   37.23283794
     atom   12 type  2   force =     0.20191706    0.78528584  -38.86956803
     atom   13 type  1   force =     0.54272318    1.36522207    1.90259870
     atom   14 type  2   force =    -0.24706815    0.44906595   38.26217637
     atom   15 type  2   force =     0.06679791    0.09681141  -37.36870988
     atom   16 type  1   force =    -0.31679684    3.45900443   -0.59445692
     atom   17 type  2   force =     0.84165238    1.38371526   37.74916742
     atom   18 type  2   force =    -0.15069085   -0.68349896  -39.03260535
     atom   19 type  1   force =     2.87514960   -2.87929857   -0.83344463
     atom   20 type  2   force =     0.11634680   -0.35057065  -39.11817422
     atom   21 type  1   force =    -0.90083611    0.71144792   -0.60302606
     atom   22 type  2   force =     0.60080595   -1.59827042   38.07201457
     atom   23 type  2   force =    -0.05059170    0.71498833  -38.95902956
     atom   24 type  1   force =    -0.20837319    1.95873040    4.54861046
     atom   25 type  2   force =     1.07659554    0.86267114   38.98594529
     atom   26 type  2   force =    -0.18099808    0.23953420  -37.91985376
     atom   27 type  1   force =     0.39765634   -0.15838199   -3.38853231
     atom   28 type  2   force =     0.21237766    0.74472837   37.96504068
     atom   29 type  2   force =    -0.21213076   -0.49028620  -37.80841260
     atom   30 type  1   force =     1.23374356   -2.54006081   -3.99566763
     atom   31 type  2   force =     1.95929715   -0.75095115   36.85192607
     atom   32 type  2   force =    -0.33827964   -0.17989598  -39.31558014
     atom   33 type  1   force =     2.05744716    0.00069630   -0.00557761
     atom   34 type  2   force =     5.21848724    0.77428488   35.75407708
     atom   35 type  2   force =    -0.08873335    0.58122324  -38.92034476
     atom   36 type  3   force =    -1.96128286   -2.19504825   46.99542367
     The local contribution  to forces
     atom    1 type  1   force =     0.02227553   -0.98263701   -4.46977232
     atom    2 type  2   force =     0.76236405   -1.83002288  -38.49949676
     atom    3 type  2   force =     0.18136008   -0.29214090   36.57879467
     atom    4 type  1   force =     0.01031441    0.40629887    0.80661456
     atom    5 type  2   force =     1.16088561   -1.21910954  -38.29198640
     atom    6 type  2   force =    -0.27978483    0.55514553   38.30821496
     atom    7 type  1   force =     4.27922924    3.98599635    0.58386149
     atom    8 type  2   force =     1.40756540    2.78272991  -35.58796499
     atom    9 type  2   force =    -0.29649794    0.34165841   38.67753415
     atom   10 type  1   force =     1.52524052   -2.20943792   -0.59952990
     atom   11 type  2   force =     3.95298824    0.78624042  -37.05125212
     atom   12 type  2   force =    -0.19324297   -0.76554483   38.64035669
     atom   13 type  1   force =    -0.54192262   -1.37847969   -1.90386359
     atom   14 type  2   force =     0.24727619   -0.44225852  -38.00663443
     atom   15 type  2   force =    -0.06721401   -0.09256588   37.12029396
     atom   16 type  1   force =     0.31741407   -3.47800289    0.62833532
     atom   17 type  2   force =    -0.83827641   -1.35636131  -37.51657703
     atom   18 type  2   force =     0.15171489    0.68176732   38.79142704
     atom   19 type  1   force =    -2.88952678    2.87795317    0.83911015
     atom   20 type  2   force =    -0.11353383    0.36753004   38.87155401
     atom   21 type  1   force =     0.85968997   -0.73099480    0.57395952
     atom   22 type  2   force =    -0.59799790    1.59147719  -37.83171866
     atom   23 type  2   force =     0.04368780   -0.69915827   38.72167404
     atom   24 type  1   force =     0.19680528   -1.99358932   -4.56224452
     atom   25 type  2   force =    -1.06844747   -0.84941504  -38.73977357
     atom   26 type  2   force =     0.17548628   -0.22864934   37.66841517
     atom   27 type  1   force =    -0.39041030    0.15065047    3.38348473
     atom   28 type  2   force =    -0.20942563   -0.72362826  -37.71423436
     atom   29 type  2   force =     0.20883887    0.49121637   37.56076570
     atom   30 type  1   force =    -1.22930341    2.52028701    3.94579282
     atom   31 type  2   force =    -1.94747229    0.74691749  -36.59805252
     atom   32 type  2   force =     0.33114931    0.19443518   39.07084593
     atom   33 type  1   force =    -2.05828693    0.01511624   -0.03026202
     atom   34 type  2   force =    -4.95673187   -0.69501123  -35.77416105
     atom   35 type  2   force =     0.08331114   -0.56275702   38.68488788
     atom   36 type  3   force =     1.08247645    1.76334360  -46.12253300
     The core correction contribution to forces
     atom    1 type  1   force =     0.00000000    0.00000000    0.00000000
     atom    2 type  2   force =     0.00008158    0.00012079    0.02088830
     atom    3 type  2   force =     0.00059347    0.00018934   -0.02096433
     atom    4 type  1   force =     0.00000000    0.00000000    0.00000000
     atom    5 type  2   force =    -0.00056514    0.00183390    0.02049177
     atom    6 type  2   force =     0.00026971   -0.00111359   -0.02082340
     atom    7 type  1   force =     0.00000000    0.00000000    0.00000000
     atom    8 type  2   force =     0.00047294    0.00111724    0.02052688
     atom    9 type  2   force =    -0.00009795    0.00044990   -0.02093586
     atom   10 type  1   force =     0.00000000    0.00000000    0.00000000
     atom   11 type  2   force =    -0.00198450    0.00040794    0.01967004
     atom   12 type  2   force =     0.00119554    0.00147082   -0.02063337
     atom   13 type  1   force =     0.00000000    0.00000000    0.00000000
     atom   14 type  2   force =    -0.00046999   -0.00009272    0.02056997
     atom   15 type  2   force =     0.00068850    0.00004595   -0.02040908
     atom   16 type  1   force =     0.00000000    0.00000000    0.00000000
     atom   17 type  2   force =    -0.00001648    0.00152892    0.02033782
     atom   18 type  2   force =     0.00010528   -0.00047268   -0.02106475
     atom   19 type  1   force =     0.00000000    0.00000000    0.00000000
     atom   20 type  2   force =     0.00031297    0.00090150   -0.02115192
     atom   21 type  1   force =     0.00000000    0.00000000    0.00000000
     atom   22 type  2   force =    -0.00018291   -0.00050395    0.02079527
     atom   23 type  2   force =    -0.00022457    0.00116083   -0.02093748
     atom   24 type  1   force =     0.00000000    0.00000000    0.00000000
     atom   25 type  2   force =    -0.00011952   -0.00048689    0.02065884
     atom   26 type  2   force =    -0.00025962    0.00105928   -0.02102674
     atom   27 type  1   force =     0.00000000    0.00000000    0.00000000
     atom   28 type  2   force =     0.00019600    0.00186200    0.02101505
     atom   29 type  2   force =    -0.00065570   -0.00047398   -0.02057460
     atom   30 type  1   force =     0.00000000    0.00000000    0.00000000
     atom   31 type  2   force =     0.00063491   -0.00010486    0.02063813
     atom   32 type  2   force =    -0.00033377    0.00063042   -0.02098554
     atom   33 type  1   force =     0.00000000    0.00000000    0.00000000
     atom   34 type  2   force =     0.02234505    0.01029320    0.00226181
     atom   35 type  2   force =    -0.00025094    0.00092620   -0.02112044
     atom   36 type  3   force =    -0.01148840   -0.00532947    0.00870545
     The Hubbard contrib.    to forces
     atom    1 type  1   force =     0.00000000    0.00000000    0.00000000
     atom    2 type  2   force =     0.00000000    0.00000000    0.00000000
     atom    3 type  2   force =     0.00000000    0.00000000    0.00000000
     atom    4 type  1   force =     0.00000000    0.00000000    0.00000000
     atom    5 type  2   force =     0.00000000    0.00000000    0.00000000
     atom    6 type  2   force =     0.00000000    0.00000000    0.00000000
     atom    7 type  1   force =     0.00000000    0.00000000    0.00000000
     atom    8 type  2   force =     0.00000000    0.00000000    0.00000000
     atom    9 type  2   force =     0.00000000    0.00000000    0.00000000
     atom   10 type  1   force =     0.00000000    0.00000000    0.00000000
     atom   11 type  2   force =     0.00000000    0.00000000    0.00000000
     atom   12 type  2   force =     0.00000000    0.00000000    0.00000000
     atom   13 type  1   force =     0.00000000    0.00000000    0.00000000
     atom   14 type  2   force =     0.00000000    0.00000000    0.00000000
     atom   15 type  2   force =     0.00000000    0.00000000    0.00000000
     atom   16 type  1   force =     0.00000000    0.00000000    0.00000000
     atom   17 type  2   force =     0.00000000    0.00000000    0.00000000
     atom   18 type  2   force =     0.00000000    0.00000000    0.00000000
     atom   19 type  1   force =     0.00000000    0.00000000    0.00000000
     atom   20 type  2   force =     0.00000000    0.00000000    0.00000000
     atom   21 type  1   force =     0.00000000    0.00000000    0.00000000
     atom   22 type  2   force =     0.00000000    0.00000000    0.00000000
     atom   23 type  2   force =     0.00000000    0.00000000    0.00000000
     atom   24 type  1   force =     0.00000000    0.00000000    0.00000000
     atom   25 type  2   force =     0.00000000    0.00000000    0.00000000
     atom   26 type  2   force =     0.00000000    0.00000000    0.00000000
     atom   27 type  1   force =     0.00000000    0.00000000    0.00000000
     atom   28 type  2   force =     0.00000000    0.00000000    0.00000000
     atom   29 type  2   force =     0.00000000    0.00000000    0.00000000
     atom   30 type  1   force =     0.00000000    0.00000000    0.00000000
     atom   31 type  2   force =     0.00000000    0.00000000    0.00000000
     atom   32 type  2   force =     0.00000000    0.00000000    0.00000000
     atom   33 type  1   force =     0.00000000    0.00000000    0.00000000
     atom   34 type  2   force =     0.00000000    0.00000000    0.00000000
     atom   35 type  2   force =     0.00000000    0.00000000    0.00000000
     atom   36 type  3   force =     0.00000000    0.00000000    0.00000000
     The SCF correction term to forces
     atom    1 type  1   force =    -0.00005773    0.00012609    0.00079939
     atom    2 type  2   force =    -0.00001610    0.00003225   -0.00003806
     atom    3 type  2   force =    -0.00000854    0.00006694    0.00069828
     atom    4 type  1   force =    -0.00015998   -0.00016002    0.00089060
     atom    5 type  2   force =    -0.00001681    0.00000075   -0.00011774
     atom    6 type  2   force =    -0.00003011    0.00002726    0.00076833
     atom    7 type  1   force =     0.00005434   -0.00001911    0.00086462
     atom    8 type  2   force =     0.00001030   -0.00001595    0.00002164
     atom    9 type  2   force =    -0.00003918   -0.00006187    0.00066455
     atom   10 type  1   force =     0.00000859    0.00006245    0.00090066
     atom   11 type  2   force =    -0.00000206    0.00003869   -0.00002608
     atom   12 type  2   force =    -0.00003341    0.00000948    0.00067932
     atom   13 type  1   force =     0.00002243    0.00005950    0.00085917
     atom   14 type  2   force =     0.00002782    0.00004789   -0.00006407
     atom   15 type  2   force =     0.00001869    0.00004235    0.00072048
     atom   16 type  1   force =     0.00003929   -0.00019984    0.00091091
     atom   17 type  2   force =     0.00004424    0.00002273   -0.00008229
     atom   18 type  2   force =     0.00004029    0.00004730    0.00073203
     atom   19 type  1   force =    -0.00004375   -0.00006330    0.00085517
     atom   20 type  2   force =    -0.00000072   -0.00007372    0.00067345
     atom   21 type  1   force =     0.00000537    0.00003359    0.00089985
     atom   22 type  2   force =     0.00002345    0.00004855   -0.00007470
     atom   23 type  2   force =     0.00000817    0.00002508    0.00069611
     atom   24 type  1   force =     0.00000344    0.00000609    0.00080792
     atom   25 type  2   force =    -0.00000702    0.00003691   -0.00009236
     atom   26 type  2   force =    -0.00000268    0.00001776    0.00071671
     atom   27 type  1   force =     0.00011808   -0.00008913    0.00091103
     atom   28 type  2   force =    -0.00001792   -0.00001230   -0.00004696
     atom   29 type  2   force =    -0.00000661   -0.00000088    0.00069695
     atom   30 type  1   force =    -0.00000009    0.00003963    0.00101086
     atom   31 type  2   force =    -0.00001187   -0.00004535   -0.00000695
     atom   32 type  2   force =     0.00003748   -0.00005136    0.00065114
     atom   33 type  1   force =    -0.00000413    0.00014185    0.00079432
     atom   34 type  2   force =    -0.00005708   -0.00000736   -0.00006974
     atom   35 type  2   force =     0.00003256    0.00002838    0.00069369
     atom   36 type  3   force =    -0.00012627   -0.00012130    0.00020893

     Total force =     0.243431     Total SCF correction =     0.003932

     BFGS Geometry Optimization
     Energy error            =      0.0E+00 Ry
     Gradient error          =      1.1E-01 Ry/Bohr

     number of scf cycles    =   1
     number of bfgs steps    =   0

     energy             new  =   -2246.2070633613 Ry

     new trust radius        =       0.1590704683 bohr
     new conv_thr            =       0.0000010000 Ry


ATOMIC_POSITIONS (angstrom)
Mo            6.5823703393        1.7745924016        2.8267948852
S             8.1694543243        0.8178335428        4.4371658980
S             8.1854992069        0.8147896860        1.2776763082
Mo            8.0959897928        4.4944231458        2.7153849549
S             6.4999517768        3.7200729138        4.3437155188
S             6.5535104069        3.5176074448        1.1206156741
Mo            6.4941041418        7.2102436459        2.6701952057
S             8.0816961159        6.3385520104        4.2454900874
S             8.0874057400        6.3082633022        1.0908298586
Mo            8.1568843273        9.9240121305        2.8078657389
S             6.4877106865        8.9419148151        4.3679209458
S             6.6161843676        9.0496323816        1.1445451906
Mo            3.4236859652        1.7515311350        2.7726903088
S             4.9799655331        0.8166879711        4.3585228273
S             5.0514908641        0.8487060943        1.2213316485
Mo            4.9796668667        4.5191652442        2.6354252303
S             3.4309594158        3.6717838101        4.2805397845
S             3.4362102967        3.5451479749        1.0650395104
Mo            3.4559726633        7.2140547104        2.6269976564
S             4.9832707538        6.3241093125        1.0363646498
Mo            5.0006335465        9.9010789571        2.7356291156
S             3.4745440457        8.9422504342        4.3242800978
S             3.4059517699        9.0670760139        1.1021695826
Mo            0.2911514035        1.7404544616        2.8377381436
S             1.8607960413        0.8043770622        4.4025389192
S             1.8573857422        0.8507353240        1.2066454737
Mo            1.8614085878        4.4958884538        2.6641684011
S             0.2724167963        3.6533776441        4.3360435743
S             0.2331928255        3.5275696961        1.1701206665
Mo            0.2740149995        7.2171004873        2.6870161159
S             1.9025302512        6.3124215317        4.2325440624
S             1.8586359659        6.3127500121        1.0486142141
Mo            1.8558613053        9.9494669867        2.7545433989
S             0.2406068009        9.0335757743        4.4429119342
S             0.2739820568        9.0479408913        1.1582757126
O             8.4632601778        8.5220145624        5.3779715250



     Writing config-only to output data dir ./MoS2-V-O.save/
     NEW-OLD atomic charge density approx. for the potential

     negative rho (up, down):  1.801E-04 0.000E+00

     total cpu time spent up to now is      117.3 secs

     Self-consistent Calculation

     iteration #  1     ecut=    80.00 Ry     beta= 0.70
     Davidson diagonalization with overlap
     ethr =  1.00E-06,  avg # of iterations = 13.0

     negative rho (up, down):  1.313E-04 0.000E+00

     total cpu time spent up to now is      134.5 secs

     total energy              =   -2246.25508047 Ry
     estimated scf accuracy    <       0.01929481 Ry

     iteration #  2     ecut=    80.00 Ry     beta= 0.70
     Davidson diagonalization with overlap
     ethr =  6.18E-06,  avg # of iterations =  5.0

     negative rho (up, down):  1.507E-04 0.000E+00

     total cpu time spent up to now is      147.4 secs

     total energy              =   -2246.25821982 Ry
     estimated scf accuracy    <       0.00708079 Ry

     iteration #  3     ecut=    80.00 Ry     beta= 0.70
     Davidson diagonalization with overlap
     ethr =  2.27E-06,  avg # of iterations =  4.0

     negative rho (up, down):  1.423E-04 0.000E+00

     total cpu time spent up to now is      162.2 secs

     total energy              =   -2246.25894531 Ry
     estimated scf accuracy    <       0.00042890 Ry

     iteration #  4     ecut=    80.00 Ry     beta= 0.70
     Davidson diagonalization with overlap
     ethr =  1.37E-07,  avg # of iterations =  5.0

     negative rho (up, down):  1.474E-04 0.000E+00

     total cpu time spent up to now is      175.3 secs

     total energy              =   -2246.25899459 Ry
     estimated scf accuracy    <       0.00002947 Ry

     iteration #  5     ecut=    80.00 Ry     beta= 0.70
     Davidson diagonalization with overlap
     ethr =  9.45E-09,  avg # of iterations =  6.0

     negative rho (up, down):  1.557E-04 0.000E+00

     total cpu time spent up to now is      187.8 secs

     total energy              =   -2246.25900508 Ry
     estimated scf accuracy    <       0.00000707 Ry

     iteration #  6     ecut=    80.00 Ry     beta= 0.70
     Davidson diagonalization with overlap
     ethr =  2.26E-09,  avg # of iterations =  2.0

     negative rho (up, down):  1.677E-04 0.000E+00

     total cpu time spent up to now is      201.7 secs

     total energy              =   -2246.25900558 Ry
     estimated scf accuracy    <       0.00000105 Ry

     iteration #  7     ecut=    80.00 Ry     beta= 0.70
     Davidson diagonalization with overlap
     ethr =  3.36E-10,  avg # of iterations =  4.0

     negative rho (up, down):  2.072E-04 0.000E+00

     total cpu time spent up to now is      205.4 secs

     End of self-consistent calculation

          k = 0.0000 0.0000 0.0000 (105382 PWs)   bands (ev):

   -63.1495 -62.9726 -62.9612 -62.9214 -62.9118 -62.9051 -62.8918 -62.8826
   -62.8736 -62.8577 -62.8394 -62.7964 -37.4490 -37.3825 -37.2860 -37.2554
   -37.2286 -37.2186 -37.2030 -37.1842 -37.1686 -37.1569 -37.1367 -37.1307
   -37.1212 -37.1106 -37.1029 -37.0925 -37.0786 -37.0723 -37.0641 -37.0621
   -37.0481 -37.0437 -37.0321 -37.0218 -37.0149 -37.0050 -36.9967 -36.9669
   -36.9602 -36.9490 -36.9443 -36.9343 -36.9031 -36.8929 -36.8482 -36.8167
   -21.2714 -16.0167 -15.2513 -15.2046 -15.0907 -14.9776 -14.8273 -14.6632
   -14.5669 -14.5538 -14.5157 -14.4525 -14.4429 -14.3706 -14.3113 -14.2617
   -14.2123 -14.2080 -14.0953 -14.0593 -13.9690 -13.9212 -13.8903 -13.6689
    -8.0523  -7.8236  -7.5983  -7.4982  -7.4458  -7.3707  -7.2984  -7.2405
    -7.2322  -7.0686  -6.9395  -6.8832  -6.8310  -6.7759  -6.7477  -6.6294
    -6.5321  -6.4926  -6.3701  -6.3044  -6.1991  -6.1092  -5.9778  -5.9205
    -5.8939  -5.8743  -5.8203  -5.8034  -5.7389  -5.7123  -5.6892  -5.6078
    -5.5871  -5.5262  -5.4838  -5.4139  -5.2947  -5.2080  -5.1750  -5.1148
    -5.0633  -5.0215  -4.9446  -4.7545  -4.7318  -4.5528  -4.4368  -4.4065
    -4.3606  -4.3261  -4.2017  -4.1347  -4.0310  -3.9601  -3.8978  -3.8877
    -3.8276  -3.7623  -3.7369  -3.6759  -3.6360  -3.5953  -3.5615  -3.5411
    -3.4698  -3.4467  -3.3766  -3.3075  -3.1015  -2.9985  -2.9335  -2.8986
    -2.8641  -2.8054  -2.7840  -2.7483  -2.7399  -2.6979  -2.4102  -2.3373
    -2.1233  -2.1000  -2.0138  -1.8204  -1.3495  -0.8760  -0.7552  -0.2473
    -0.2223  -0.1652  -0.0573  -0.0353   0.0050   0.1275   0.1580   0.1883
     0.2305   0.3154   0.3739   0.4002   0.4322   0.4828   0.5057   0.5332
     0.5726   0.6452   0.6792   0.7062   0.7320   0.8189   0.8580   0.8969
     0.9234   0.9643   1.1468

     the Fermi energy is    -1.5850 ev

!    total energy              =   -2246.25900566 Ry
     estimated scf accuracy    <       0.00000025 Ry
     smearing contrib. (-TS)   =      -0.00056532 Ry
     internal energy E=F+TS    =   -2246.25844034 Ry

     The total energy is F=E-TS. E is the sum of the following terms:
     one-electron contribution =  -18451.37710893 Ry
     hartree contribution      =    9213.70428228 Ry
     xc contribution           =    -392.04518462 Ry
     ewald contribution        =    7393.32327450 Ry
     one-center paw contrib.   =      -9.86370356 Ry

     convergence has been achieved in   7 iterations

     negative rho (up, down):  2.072E-04 0.000E+00

     Forces acting on atoms (cartesian axes, Ry/au):

     atom    1 type  1   force =     0.00576957   -0.01173984    0.00035789
     atom    2 type  2   force =    -0.00758990    0.00957267    0.00108115
     atom    3 type  2   force =    -0.01354677    0.01383911   -0.01447152
     atom    4 type  1   force =     0.00379143   -0.00034641   -0.00149175
     atom    5 type  2   force =     0.00074509   -0.00542989   -0.00516146
     atom    6 type  2   force =    -0.00032020    0.00731998    0.00158397
     atom    7 type  1   force =     0.00432676   -0.00937573   -0.00145490
     atom    8 type  2   force =     0.00178272   -0.00881121    0.00323923
     atom    9 type  2   force =     0.00996964    0.00491629    0.00555924
     atom   10 type  1   force =    -0.00215351    0.02015047   -0.03351198
     atom   11 type  2   force =    -0.01350054    0.00495748   -0.03429558
     atom   12 type  2   force =    -0.00488383   -0.00071280   -0.00001170
     atom   13 type  1   force =     0.00408138    0.00572830   -0.00131490
     atom   14 type  2   force =     0.00586514   -0.00170576    0.00859128
     atom   15 type  2   force =    -0.00895870    0.00421533   -0.00916356
     atom   16 type  1   force =    -0.00030250    0.00749327    0.00377491
     atom   17 type  2   force =     0.00523965    0.00092945    0.00184256
     atom   18 type  2   force =    -0.00214733   -0.00287173    0.01030017
     atom   19 type  1   force =     0.00114812   -0.00500400    0.00248108
     atom   20 type  2   force =     0.00146267   -0.00449394   -0.00419427
     atom   21 type  1   force =    -0.01156522    0.00047913   -0.00155010
     atom   22 type  2   force =     0.00228387   -0.00112778   -0.00749955
     atom   23 type  2   force =    -0.00409380    0.00100165   -0.00001423
     atom   24 type  1   force =    -0.00610845   -0.00897752   -0.00762298
     atom   25 type  2   force =     0.01423920    0.01541039   -0.00071077
     atom   26 type  2   force =    -0.00267650   -0.00342710   -0.01154751
     atom   27 type  1   force =     0.00201679    0.00045421    0.00714123
     atom   28 type  2   force =    -0.00026535   -0.00431637   -0.00511915
     atom   29 type  2   force =     0.00349239    0.00086158   -0.00378018
     atom   30 type  1   force =    -0.00148926   -0.00357981   -0.00700525
     atom   31 type  2   force =     0.00037685    0.00060498    0.01071642
     atom   32 type  2   force =    -0.00230653    0.00220324    0.00277760
     atom   33 type  1   force =     0.00374137    0.01104021    0.00983639
     atom   34 type  2   force =    -0.08630177   -0.07878441    0.00166526
     atom   35 type  2   force =    -0.00216367    0.01031365    0.00472973
     atom   36 type  3   force =     0.10004123    0.02921293    0.07424323
     The non-local contrib.  to forces
     atom    1 type  1   force =    -0.00356955    0.02256296   -0.00793060
     atom    2 type  2   force =    -0.00506575   -0.00520270   -0.27262783
     atom    3 type  2   force =    -0.01027351   -0.00055568    0.26016348
     atom    4 type  1   force =    -0.00395440    0.01988640    0.00229489
     atom    5 type  2   force =     0.00634922   -0.03351721   -0.25564517
     atom    6 type  2   force =    -0.00171385    0.00850219    0.26480667
     atom    7 type  1   force =    -0.02061854    0.00017314   -0.02022578
     atom    8 type  2   force =    -0.00559598   -0.00496919   -0.25255079
     atom    9 type  2   force =     0.00582048   -0.00946183    0.27257694
     atom   10 type  1   force =     0.00666366   -0.00008973    0.01439278
     atom   11 type  2   force =     0.02492719   -0.00704535   -0.24482911
     atom   12 type  2   force =    -0.01412439   -0.02079776    0.25582763
     atom   13 type  1   force =     0.00397551    0.02407895   -0.00775628
     atom   14 type  2   force =     0.00750434   -0.00781346   -0.26503838
     atom   15 type  2   force =    -0.00977385   -0.00172749    0.25919390
     atom   16 type  1   force =    -0.00240702    0.03194888   -0.03196442
     atom   17 type  2   force =     0.00226488   -0.02756117   -0.25134651
     atom   18 type  2   force =    -0.00322988   -0.00149867    0.27298256
     atom   19 type  1   force =     0.02082522   -0.00203144   -0.01498627
     atom   20 type  2   force =    -0.00249402   -0.02107573    0.26473808
     atom   21 type  1   force =     0.01464594    0.02010983    0.01090880
     atom   22 type  2   force =     0.00030837    0.00347072   -0.26438928
     atom   23 type  2   force =     0.00136395   -0.01279746    0.26412514
     atom   24 type  1   force =    -0.00055706    0.01967332   -0.00941322
     atom   25 type  2   force =     0.00659089    0.00418985   -0.26266334
     atom   26 type  2   force =     0.00326454   -0.01681595    0.26439959
     atom   27 type  1   force =    -0.00595981    0.00823661    0.00992602
     atom   28 type  2   force =    -0.00263920   -0.02610363   -0.27702054
     atom   29 type  2   force =     0.00769764   -0.00125619    0.26507391
     atom   30 type  1   force =     0.00436845    0.02686910    0.02337652
     atom   31 type  2   force =    -0.01142609    0.00438936   -0.26085661
     atom   32 type  2   force =     0.00572568   -0.01195868    0.26932779
     atom   33 type  1   force =     0.02798332    0.00139345   -0.01285824
     atom   34 type  2   force =    -0.37915107   -0.16008492    0.10246004
     atom   35 type  2   force =     0.00246889   -0.00893525    0.26657317
     atom   36 type  3   force =     1.31274209    0.55500938   -1.01092852
     The ionic contribution  to forces
     atom    1 type  1   force =    -0.36346284    1.28742696    4.72816248
     atom    2 type  2   force =    -0.59068209    1.64793835   38.90947014
     atom    3 type  2   force =    -0.18286002    0.48424434  -37.02767097
     atom    4 type  1   force =     0.00313989   -0.47755269   -0.79424225
     atom    5 type  2   force =    -1.16285102    1.22965701   38.46603091
     atom    6 type  2   force =     0.21956032   -0.59752780  -38.45998094
     atom    7 type  1   force =    -4.16127464   -3.72934549   -0.34757977
     atom    8 type  2   force =    -1.39212385   -2.61930819   35.90040080
     atom    9 type  2   force =     0.25522473   -0.35413367  -38.86743299
     atom   10 type  1   force =    -1.22654201    1.66862356   -0.35977992
     atom   11 type  2   force =    -3.65393000   -0.82259654   37.10069236
     atom   12 type  2   force =     0.10468312    0.63194508  -38.77144645
     atom   13 type  1   force =     0.57396778    1.36342694    1.94611200
     atom   14 type  2   force =    -0.30553926    0.40891055   38.35212792
     atom   15 type  2   force =     0.10103786    0.17939334  -37.38538958
     atom   16 type  1   force =    -0.26168943    3.30023829   -0.36268255
     atom   17 type  2   force =     0.84034010    1.35722452   37.79107581
     atom   18 type  2   force =    -0.12766222   -0.62366717  -38.95175611
     atom   19 type  1   force =     2.76744098   -2.84063359   -0.77822912
     atom   20 type  2   force =     0.12264563   -0.33983303  -39.15039324
     atom   21 type  1   force =    -0.69840365    0.67139637   -0.65948449
     atom   22 type  2   force =     0.44666034   -1.58369220   38.10726293
     atom   23 type  2   force =    -0.02894705    0.58105723  -38.96818597
     atom   24 type  1   force =     0.04547845    2.00460090    4.36565912
     atom   25 type  2   force =     0.92410049    0.68321369   39.00900605
     atom   26 type  2   force =    -0.14063497    0.36538362  -37.95281007
     atom   27 type  1   force =     0.35138540   -0.14575162   -3.04757587
     atom   28 type  2   force =     0.21052568    0.67000245   37.93710202
     atom   29 type  2   force =    -0.17856250   -0.43647562  -37.78862870
     atom   30 type  1   force =     1.23361809   -2.30822556   -4.36593585
     atom   31 type  2   force =     1.93564000   -0.66274321   36.92543261
     atom   32 type  2   force =    -0.27477526   -0.24222141  -39.27528147
     atom   33 type  1   force =     1.41339503   -0.27062256    0.11572643
     atom   34 type  2   force =     6.00627552    1.25823612   34.94895840
     atom   35 type  2   force =    -0.02353277    0.50888891  -38.76125839
     atom   36 type  3   force =    -2.78164582   -2.24747789   47.47252475
     The local contribution  to forces
     atom    1 type  1   force =     0.37295183   -1.32188304   -4.72030995
     atom    2 type  2   force =     0.58807595   -1.63316884  -38.65704003
     atom    3 type  2   force =     0.17913393   -0.47005717   36.77365919
     atom    4 type  1   force =     0.00455275    0.45721357    0.78999398
     atom    5 type  2   force =     1.15788799   -1.20347101  -38.23622773
     atom    6 type  2   force =    -0.21837776    0.59734523   38.21753226
     atom    7 type  1   force =     4.18619567    3.71988585    0.36574829
     atom    8 type  2   force =     1.39890083    2.61405925  -35.66569606
     atom    9 type  2   force =    -0.25098753    0.36809782   38.62116463
     atom   10 type  1   force =     1.21761561   -1.64816618    0.31101810
     atom   11 type  2   force =     3.61548203    0.83467011  -36.91083498
     atom   12 type  2   force =    -0.09650716   -0.61324830   38.53600852
     atom   13 type  1   force =    -0.57380884   -1.38188057   -1.94007721
     atom   14 type  2   force =     0.30438465   -0.40268949  -38.09942019
     atom   15 type  2   force =    -0.10079075   -0.17368588   37.13738266
     atom   16 type  1   force =     0.26391286   -3.32473062    0.39799156
     atom   17 type  2   force =    -0.83735111   -1.33024368  -37.55844841
     atom   18 type  2   force =     0.12868777    0.62280349   38.71003886
     atom   19 type  1   force =    -2.78705380    2.83774109    0.79509164
     atom   20 type  2   force =    -0.11894747    0.35565479   38.90249193
     atom   21 type  1   force =     0.67230596   -0.69096293    0.64647315
     atom   22 type  2   force =    -0.44455492    1.57962829  -37.87156013
     atom   23 type  2   force =     0.02361399   -0.56827387   38.72479880
     atom   24 type  1   force =    -0.05121702   -2.03336374   -4.36437199
     atom   25 type  2   force =    -0.91646228   -0.67166022  -38.76813362
     atom   26 type  2   force =     0.13506024   -0.35317604   37.69779280
     atom   27 type  1   force =    -0.34347651    0.13791522    3.04432832
     atom   28 type  2   force =    -0.20836591   -0.65009524  -37.68651262
     atom   29 type  2   force =     0.17493942    0.43893388   37.54030505
     atom   30 type  1   force =    -1.23952802    2.27784860    4.33477699
     atom   31 type  2   force =    -1.92439923    0.65897709  -36.67494237
     atom   32 type  2   force =     0.26725583    0.25582082   39.02948990
     atom   33 type  1   force =    -1.43760718    0.28037644   -0.09382651
     atom   34 type  2   force =    -5.73570273   -1.18565178  -35.04984879
     atom   35 type  2   force =     0.01915194   -0.49036931   38.52029513
     atom   36 type  3   force =     1.58381667    1.72793046  -46.39800644
     The core correction contribution to forces
     atom    1 type  1   force =     0.00000000    0.00000000    0.00000000
     atom    2 type  2   force =     0.00000609    0.00007543    0.02098339
     atom    3 type  2   force =     0.00042004    0.00012925   -0.02069249
     atom    4 type  1   force =     0.00000000    0.00000000    0.00000000
     atom    5 type  2   force =    -0.00060906    0.00182724    0.02047311
     atom    6 type  2   force =     0.00025193   -0.00103928   -0.02086960
     atom    7 type  1   force =     0.00000000    0.00000000    0.00000000
     atom    8 type  2   force =     0.00054039    0.00130358    0.02081184
     atom    9 type  2   force =    -0.00009459    0.00047816   -0.02088493
     atom   10 type  1   force =     0.00000000    0.00000000    0.00000000
     atom   11 type  2   force =    -0.00006157   -0.00000380    0.02040131
     atom   12 type  2   force =     0.00114086    0.00143659   -0.02054433
     atom   13 type  1   force =     0.00000000    0.00000000    0.00000000
     atom   14 type  2   force =    -0.00042434   -0.00008747    0.02069251
     atom   15 type  2   force =     0.00063337    0.00020588   -0.02045389
     atom   16 type  1   force =     0.00000000    0.00000000    0.00000000
     atom   17 type  2   force =     0.00000089    0.00145763    0.02035055
     atom   18 type  2   force =     0.00006147   -0.00052509   -0.02105998
     atom   19 type  1   force =     0.00000000    0.00000000    0.00000000
     atom   20 type  2   force =     0.00029201    0.00081891   -0.02116841
     atom   21 type  1   force =     0.00000000    0.00000000    0.00000000
     atom   22 type  2   force =    -0.00006182   -0.00047903    0.02086908
     atom   23 type  2   force =    -0.00014028    0.00103528   -0.02087189
     atom   24 type  1   force =     0.00000000    0.00000000    0.00000000
     atom   25 type  2   force =     0.00004118   -0.00027567    0.02078438
     atom   26 type  2   force =    -0.00040892    0.00109687   -0.02100121
     atom   27 type  1   force =     0.00000000    0.00000000    0.00000000
     atom   28 type  2   force =     0.00017855    0.00183302    0.02109061
     atom   29 type  2   force =    -0.00061914   -0.00037225   -0.02061909
     atom   30 type  1   force =     0.00000000    0.00000000    0.00000000
     atom   31 type  2   force =     0.00056864   -0.00007761    0.02080069
     atom   32 type  2   force =    -0.00053637    0.00062243   -0.02089377
     atom   33 type  1   force =     0.00000000    0.00000000    0.00000000
     atom   34 type  2   force =     0.02225998    0.00877931   -0.00028681
     atom   35 type  2   force =    -0.00029694    0.00078272   -0.02100831
     atom   36 type  3   force =    -0.01478831   -0.00613374    0.01062282
     The Hubbard contrib.    to forces
     atom    1 type  1   force =     0.00000000    0.00000000    0.00000000
     atom    2 type  2   force =     0.00000000    0.00000000    0.00000000
     atom    3 type  2   force =     0.00000000    0.00000000    0.00000000
     atom    4 type  1   force =     0.00000000    0.00000000    0.00000000
     atom    5 type  2   force =     0.00000000    0.00000000    0.00000000
     atom    6 type  2   force =     0.00000000    0.00000000    0.00000000
     atom    7 type  1   force =     0.00000000    0.00000000    0.00000000
     atom    8 type  2   force =     0.00000000    0.00000000    0.00000000
     atom    9 type  2   force =     0.00000000    0.00000000    0.00000000
     atom   10 type  1   force =     0.00000000    0.00000000    0.00000000
     atom   11 type  2   force =     0.00000000    0.00000000    0.00000000
     atom   12 type  2   force =     0.00000000    0.00000000    0.00000000
     atom   13 type  1   force =     0.00000000    0.00000000    0.00000000
     atom   14 type  2   force =     0.00000000    0.00000000    0.00000000
     atom   15 type  2   force =     0.00000000    0.00000000    0.00000000
     atom   16 type  1   force =     0.00000000    0.00000000    0.00000000
     atom   17 type  2   force =     0.00000000    0.00000000    0.00000000
     atom   18 type  2   force =     0.00000000    0.00000000    0.00000000
     atom   19 type  1   force =     0.00000000    0.00000000    0.00000000
     atom   20 type  2   force =     0.00000000    0.00000000    0.00000000
     atom   21 type  1   force =     0.00000000    0.00000000    0.00000000
     atom   22 type  2   force =     0.00000000    0.00000000    0.00000000
     atom   23 type  2   force =     0.00000000    0.00000000    0.00000000
     atom   24 type  1   force =     0.00000000    0.00000000    0.00000000
     atom   25 type  2   force =     0.00000000    0.00000000    0.00000000
     atom   26 type  2   force =     0.00000000    0.00000000    0.00000000
     atom   27 type  1   force =     0.00000000    0.00000000    0.00000000
     atom   28 type  2   force =     0.00000000    0.00000000    0.00000000
     atom   29 type  2   force =     0.00000000    0.00000000    0.00000000
     atom   30 type  1   force =     0.00000000    0.00000000    0.00000000
     atom   31 type  2   force =     0.00000000    0.00000000    0.00000000
     atom   32 type  2   force =     0.00000000    0.00000000    0.00000000
     atom   33 type  1   force =     0.00000000    0.00000000    0.00000000
     atom   34 type  2   force =     0.00000000    0.00000000    0.00000000
     atom   35 type  2   force =     0.00000000    0.00000000    0.00000000
     atom   36 type  3   force =     0.00000000    0.00000000    0.00000000
     The SCF correction term to forces
     atom    1 type  1   force =    -0.00014783    0.00015407    0.00042768
     atom    2 type  2   force =     0.00007794   -0.00006878    0.00028721
     atom    3 type  2   force =     0.00003483    0.00007916    0.00006099
     atom    4 type  1   force =     0.00005523    0.00010709    0.00045336
     atom    5 type  2   force =    -0.00002999    0.00007487    0.00019914
     atom    6 type  2   force =    -0.00003881    0.00004042    0.00008730
     atom    7 type  1   force =     0.00002631   -0.00008844    0.00059408
     atom    8 type  2   force =     0.00006337    0.00010413    0.00026515
     atom    9 type  2   force =     0.00000858   -0.00006340    0.00012733
     atom   10 type  1   force =     0.00011126   -0.00021640    0.00084879
     atom   11 type  2   force =     0.00008386   -0.00006615    0.00026657
     atom   12 type  2   force =    -0.00007422   -0.00004762    0.00013464
     atom   13 type  1   force =    -0.00005103    0.00010377    0.00039830
     atom   14 type  2   force =    -0.00005820   -0.00002511    0.00022114
     atom   15 type  2   force =    -0.00006328    0.00003028    0.00009507
     atom   16 type  1   force =    -0.00011686    0.00003752    0.00042205
     atom   17 type  2   force =    -0.00001307    0.00005294    0.00020284
     atom   18 type  2   force =    -0.00000243    0.00001650    0.00008655
     atom   19 type  1   force =    -0.00006225   -0.00007926    0.00059656
     atom   20 type  2   force =    -0.00003144   -0.00005809    0.00012909
     atom   21 type  1   force =    -0.00011143   -0.00006336    0.00054415
     atom   22 type  2   force =    -0.00006606   -0.00005478    0.00030956
     atom   23 type  2   force =     0.00001764   -0.00001873    0.00011140
     atom   24 type  1   force =     0.00018922    0.00011278    0.00049482
     atom   25 type  2   force =    -0.00002904   -0.00005646    0.00028748
     atom   26 type  2   force =     0.00004465    0.00008519    0.00006312
     atom   27 type  1   force =     0.00006975    0.00005478    0.00045448
     atom   28 type  2   force =     0.00003757    0.00004783    0.00021310
     atom   29 type  2   force =     0.00003901    0.00003255    0.00008037
     atom   30 type  1   force =     0.00005426   -0.00007117    0.00076881
     atom   31 type  2   force =    -0.00000443    0.00006013    0.00027383
     atom   32 type  2   force =     0.00002564   -0.00005913    0.00012687
     atom   33 type  1   force =    -0.00002776   -0.00010633    0.00078643
     atom   34 type  2   force =     0.00001858   -0.00006234    0.00037416
     atom   35 type  2   force =     0.00004725   -0.00005262    0.00011984
     atom   36 type  3   force =    -0.00008136   -0.00011450    0.00002235

     Total force =     0.191513     Total SCF correction =     0.002333
     Energy error            =      5.2E-02 Ry
     Gradient error          =      1.0E-01 Ry/Bohr

     number of scf cycles    =   2
     number of bfgs steps    =   1

     energy             old  =   -2246.2070633613 Ry
     energy             new  =   -2246.2590056558 Ry

     CASE: energy            _new < energy            _old

     new trust radius        =       0.1749775152 bohr
     new conv_thr            =       0.0000001000 Ry


ATOMIC_POSITIONS (angstrom)
Mo            6.5883830595        1.7633885926        2.8281851207
S             8.1627022469        0.8259601143        4.4387358120
S             8.1754372790        0.8234082491        1.2700001904
Mo            8.0982957444        4.4939995121        2.7136735345
S             6.5003591472        3.7163302781        4.3398824156
S             6.5534035783        3.5236894281        1.1211937010
Mo            6.4979481683        7.2021960006        2.6687870109
S             8.0826199321        6.3318973306        4.2483458914
S             8.0951145438        6.3122026331        1.0964059787
Mo            8.1543290940        9.9429187756        2.7766939638
S             6.4777786857        8.9441312872        4.3441242600
S             6.6129480265        9.0496095878        1.1463082856
Mo            3.4266015519        1.7562836764        2.7705577222
S             4.9848756510        0.8156958936        4.3660808740
S             5.0443681646        0.8518513369        1.2144890077
Mo            4.9794738037        4.5253829708        2.6383761528
S             3.4348994186        3.6723419810        4.2818237730
S             3.4344305818        3.5424651845        1.0729980301
Mo            3.4573806557        7.2105618792        2.6268966226
S             4.9840525566        6.3206732368        1.0338236215
Mo            4.9901254542        9.9011317020        2.7318505910
S             3.4771109498        8.9410858517        4.3198428631
S             3.4028575850        9.0683976212        1.1044895991
Mo            0.2860605120        1.7330501994        2.8292705428
S             1.8722132926        0.8169238473        4.4038173769
S             1.8546781941        0.8475283303        1.1995322732
Mo            1.8627409645        4.4962114682        2.6694321778
S             0.2723549130        3.6507221261        4.3327685022
S             0.2357745329        3.5281442484        1.1674124462
Mo            0.2743252865        7.2153945337        2.6777383944
S             1.9028394760        6.3125951943        4.2420227373
S             1.8560509398        6.3148245545        1.0516192259
Mo            1.8622179619        9.9588210999        2.7526869745
S             0.1742030736        8.9706927261        4.4548651319
S             0.2717821286        9.0550395274        1.1637627674
O             8.5376187467        8.5456509875        5.4278292474



     Writing config-only to output data dir ./MoS2-V-O.save/
     NEW-OLD atomic charge density approx. for the potential

     negative rho (up, down):  1.615E-04 0.000E+00

     total cpu time spent up to now is      212.6 secs

     Self-consistent Calculation

     iteration #  1     ecut=    80.00 Ry     beta= 0.70
     Davidson diagonalization with overlap
     ethr =  1.00E-06,  avg # of iterations = 17.0

     negative rho (up, down):  8.863E-05 0.000E+00

     total cpu time spent up to now is      227.1 secs

     total energy              =   -2246.29595892 Ry
     estimated scf accuracy    <       0.01592408 Ry

     iteration #  2     ecut=    80.00 Ry     beta= 0.70
     Davidson diagonalization with overlap
     ethr =  5.10E-06,  avg # of iterations =  5.0

     negative rho (up, down):  8.951E-05 0.000E+00

     total cpu time spent up to now is      239.8 secs

     total energy              =   -2246.29929216 Ry
     estimated scf accuracy    <       0.00783455 Ry

     iteration #  3     ecut=    80.00 Ry     beta= 0.70
     Davidson diagonalization with overlap
     ethr =  2.51E-06,  avg # of iterations =  3.0

     negative rho (up, down):  7.398E-05 0.000E+00

     total cpu time spent up to now is      257.1 secs

     total energy              =   -2246.29968460 Ry
     estimated scf accuracy    <       0.00090111 Ry

     iteration #  4     ecut=    80.00 Ry     beta= 0.70
     Davidson diagonalization with overlap
     ethr =  2.89E-07,  avg # of iterations =  4.0

     negative rho (up, down):  7.145E-05 0.000E+00

     total cpu time spent up to now is      274.1 secs

     total energy              =   -2246.29979845 Ry
     estimated scf accuracy    <       0.00010146 Ry

     iteration #  5     ecut=    80.00 Ry     beta= 0.70
     Davidson diagonalization with overlap
     ethr =  3.25E-08,  avg # of iterations =  5.0

     negative rho (up, down):  7.314E-05 0.000E+00

     total cpu time spent up to now is      289.9 secs

     total energy              =   -2246.29980923 Ry
     estimated scf accuracy    <       0.00001493 Ry

     iteration #  6     ecut=    80.00 Ry     beta= 0.70
     Davidson diagonalization with overlap
     ethr =  4.79E-09,  avg # of iterations =  6.0

     negative rho (up, down):  7.630E-05 0.000E+00

     total cpu time spent up to now is      301.2 secs

     total energy              =   -2246.29981350 Ry
     estimated scf accuracy    <       0.00000386 Ry

     iteration #  7     ecut=    80.00 Ry     beta= 0.70
     Davidson diagonalization with overlap
     ethr =  1.24E-09,  avg # of iterations =  2.0

     negative rho (up, down):  8.471E-05 0.000E+00

     total cpu time spent up to now is      313.4 secs

     total energy              =   -2246.29981384 Ry
     estimated scf accuracy    <       0.00000177 Ry

     iteration #  8     ecut=    80.00 Ry     beta= 0.70
     Davidson diagonalization with overlap
     ethr =  5.67E-10,  avg # of iterations =  2.0

     negative rho (up, down):  1.023E-04 0.000E+00

     total cpu time spent up to now is      327.1 secs

     total energy              =   -2246.29981419 Ry
     estimated scf accuracy    <       0.00000047 Ry

     iteration #  9     ecut=    80.00 Ry     beta= 0.70
     Davidson diagonalization with overlap
     ethr =  1.51E-10,  avg # of iterations =  5.0

     negative rho (up, down):  1.355E-04 0.000E+00

     total cpu time spent up to now is      340.0 secs

     total energy              =   -2246.29981431 Ry
     estimated scf accuracy    <       0.00000013 Ry

     iteration # 10     ecut=    80.00 Ry     beta= 0.70
     Davidson diagonalization with overlap
     ethr =  4.17E-11,  avg # of iterations =  4.0

     negative rho (up, down):  2.078E-04 0.000E+00

     total cpu time spent up to now is      343.6 secs

     End of self-consistent calculation

          k = 0.0000 0.0000 0.0000 (105382 PWs)   bands (ev):

   -63.1082 -62.9665 -62.9499 -62.9231 -62.9191 -62.9135 -62.8985 -62.8892
   -62.8844 -62.8606 -62.7705 -62.7589 -37.3926 -37.3532 -37.2793 -37.2522
   -37.2238 -37.2097 -37.1955 -37.1764 -37.1597 -37.1498 -37.1323 -37.1226
   -37.1143 -37.1095 -37.1058 -37.0986 -37.0932 -37.0697 -37.0655 -37.0541
   -37.0528 -37.0380 -37.0296 -37.0228 -37.0054 -36.9735 -36.9711 -36.9622
   -36.9474 -36.9334 -36.9216 -36.9096 -36.8928 -36.8705 -36.8375 -36.8053
   -22.3637 -16.0125 -15.2458 -15.1991 -15.0626 -14.9614 -14.8255 -14.6005
   -14.5618 -14.5161 -14.5123 -14.4426 -14.4187 -14.3671 -14.3102 -14.2296
   -14.2110 -14.2027 -14.0924 -14.0476 -13.9676 -13.9182 -13.8673 -13.4935
    -8.1426  -7.8871  -7.6078  -7.5296  -7.4980  -7.3688  -7.2947  -7.2462
    -7.2338  -7.1164  -6.9471  -6.8855  -6.8588  -6.7784  -6.7528  -6.6439
    -6.5380  -6.4837  -6.3685  -6.3030  -6.2253  -6.1303  -5.9627  -5.9162
    -5.8860  -5.8713  -5.8122  -5.8063  -5.7516  -5.7099  -5.6883  -5.6113
    -5.5612  -5.5163  -5.4581  -5.3947  -5.3071  -5.2139  -5.1573  -5.1123
    -5.0461  -5.0279  -4.9444  -4.7726  -4.7284  -4.5524  -4.4747  -4.4087
    -4.3565  -4.3477  -4.2175  -4.1414  -4.0825  -3.9740  -3.9172  -3.8749
    -3.8253  -3.7418  -3.7358  -3.6632  -3.6404  -3.5930  -3.5564  -3.5418
    -3.4615  -3.4332  -3.4013  -3.3073  -3.0898  -2.9987  -2.9447  -2.8926
    -2.8594  -2.7933  -2.7885  -2.7371  -2.7338  -2.6905  -2.4594  -2.3400
    -2.2080  -2.1088  -2.0659  -1.8861  -1.1879  -0.8684  -0.7635  -0.2487
    -0.2172  -0.1353  -0.0500  -0.0005   0.0454   0.1361   0.1724   0.2152
     0.2253   0.3275   0.3860   0.4298   0.4475   0.4872   0.5265   0.5405
     0.5816   0.6522   0.6880   0.7192   0.7614   0.8346   0.8482   0.9129
     0.9401   0.9949   1.1472

     the Fermi energy is    -1.5370 ev

!    total energy              =   -2246.29981428 Ry
     estimated scf accuracy    <       0.00000003 Ry
     smearing contrib. (-TS)   =      -0.00001560 Ry
     internal energy E=F+TS    =   -2246.29979868 Ry

     The total energy is F=E-TS. E is the sum of the following terms:
     one-electron contribution =  -18444.76389865 Ry
     hartree contribution      =    9210.39351692 Ry
     xc contribution           =    -392.13229043 Ry
     ewald contribution        =    7390.06079315 Ry
     one-center paw contrib.   =      -9.85791966 Ry

     convergence has been achieved in  10 iterations

     negative rho (up, down):  2.078E-04 0.000E+00

     Forces acting on atoms (cartesian axes, Ry/au):

     atom    1 type  1   force =    -0.00301183   -0.00128001   -0.00489365
     atom    2 type  2   force =    -0.00259472    0.00366776   -0.00281523
     atom    3 type  2   force =    -0.00943865    0.01955127   -0.02354959
     atom    4 type  1   force =     0.00533363    0.00055132    0.00000795
     atom    5 type  2   force =     0.00116149   -0.00571813   -0.00471065
     atom    6 type  2   force =    -0.00062407    0.00447913    0.00379086
     atom    7 type  1   force =     0.00180974   -0.00442085   -0.00329827
     atom    8 type  2   force =     0.00119716   -0.00986148    0.00227116
     atom    9 type  2   force =     0.00721847    0.00257364   -0.00097187
     atom   10 type  1   force =    -0.00626939   -0.00188346   -0.00314428
     atom   11 type  2   force =    -0.00934152    0.00675666   -0.02821408
     atom   12 type  2   force =    -0.00647233   -0.00276204   -0.00659269
     atom   13 type  1   force =     0.00343715    0.00204046    0.00076365
     atom   14 type  2   force =     0.00297927   -0.00222091    0.00343474
     atom   15 type  2   force =    -0.00639928    0.00277369   -0.00622133
     atom   16 type  1   force =    -0.00005440    0.00386904    0.00241087
     atom   17 type  2   force =     0.00464340    0.00150986    0.00267158
     atom   18 type  2   force =    -0.00100784   -0.00002393    0.00796133
     atom   19 type  1   force =     0.00017334   -0.00574996    0.00575786
     atom   20 type  2   force =     0.00218176   -0.00304592   -0.00406196
     atom   21 type  1   force =    -0.00049954    0.00471819    0.00214061
     atom   22 type  2   force =    -0.00350607   -0.00046540   -0.00717867
     atom   23 type  2   force =    -0.00398681   -0.00203153   -0.00462426
     atom   24 type  1   force =    -0.00227270   -0.00123771   -0.00046548
     atom   25 type  2   force =     0.00818773    0.01043610   -0.00379713
     atom   26 type  2   force =    -0.00071231   -0.00009330   -0.01057675
     atom   27 type  1   force =     0.00115517    0.00084035    0.00556527
     atom   28 type  2   force =    -0.00047640   -0.00554307   -0.00579826
     atom   29 type  2   force =     0.00357952    0.00056011   -0.00258810
     atom   30 type  1   force =    -0.01054753   -0.00618625    0.00931612
     atom   31 type  2   force =     0.00049489    0.00089579    0.00460984
     atom   32 type  2   force =     0.00211387    0.00049709   -0.00011530
     atom   33 type  1   force =    -0.00549273    0.00198379    0.03182442
     atom   34 type  2   force =    -0.01947507   -0.03008608   -0.07665351
     atom   35 type  2   force =     0.00195089    0.01012934   -0.00048733
     atom   36 type  3   force =     0.04456574    0.00477644    0.11823214
     The non-local contrib.  to forces
     atom    1 type  1   force =    -0.00052602    0.02004716   -0.00904970
     atom    2 type  2   force =    -0.00148977   -0.00762734   -0.27138145
     atom    3 type  2   force =    -0.00620996    0.00406598    0.25057235
     atom    4 type  1   force =    -0.00375868    0.01656603    0.00138512
     atom    5 type  2   force =     0.00731292   -0.03352213   -0.25593254
     atom    6 type  2   force =    -0.00266100    0.00585872    0.26675793
     atom    7 type  1   force =    -0.01672026   -0.00017569   -0.02235025
     atom    8 type  2   force =    -0.00517942   -0.01037451   -0.26072835
     atom    9 type  2   force =     0.00517457   -0.01117917    0.27043814
     atom   10 type  1   force =     0.01990906   -0.00071107    0.02503983
     atom   11 type  2   force =    -0.00020297   -0.00033635   -0.25738889
     atom   12 type  2   force =    -0.01463009   -0.02101598    0.25580092
     atom   13 type  1   force =     0.00408748    0.02590732   -0.00798440
     atom   14 type  2   force =     0.00595113   -0.00850567   -0.26843470
     atom   15 type  2   force =    -0.00747739   -0.00497137    0.26109333
     atom   16 type  1   force =    -0.00310185    0.03283350   -0.03347707
     atom   17 type  2   force =     0.00203698   -0.02648175   -0.25085119
     atom   18 type  2   force =    -0.00185256    0.00077141    0.27130705
     atom   19 type  1   force =     0.02166331   -0.00052593   -0.01615855
     atom   20 type  2   force =    -0.00194164   -0.01828638    0.26508932
     atom   21 type  1   force =     0.00830875    0.02333361    0.00974182
     atom   22 type  2   force =    -0.00559342    0.00340023   -0.26216943
     atom   23 type  2   force =     0.00100371   -0.01394429    0.26190352
     atom   24 type  1   force =    -0.00246029    0.01647950   -0.00881435
     atom   25 type  2   force =     0.00177555   -0.00040801   -0.26313782
     atom   26 type  2   force =     0.00654839   -0.01328748    0.26443164
     atom   27 type  1   force =    -0.00546761    0.00719688    0.00870073
     atom   28 type  2   force =    -0.00219891   -0.02661601   -0.27849140
     atom   29 type  2   force =     0.00776700   -0.00248318    0.26680068
     atom   30 type  1   force =     0.00763118    0.03362296    0.02667890
     atom   31 type  2   force =    -0.01145038    0.00465822   -0.26355289
[...]
     atom   28 type  2   force =     0.00201341   -0.01302438   -0.27764126
     atom   29 type  2   force =    -0.00154020   -0.00841691    0.27049010
     atom   30 type  1   force =    -0.00031195    0.03015753    0.01885751
     atom   31 type  2   force =    -0.00734424    0.00293905   -0.27119931
     atom   32 type  2   force =     0.00609949   -0.01245019    0.26794519
     atom   33 type  1   force =    -0.01103848   -0.00142467    0.02038790
     atom   34 type  2   force =    -0.00146451   -0.00775128    0.29453706
     atom   35 type  2   force =    -0.00077115   -0.01490663    0.27695242
     atom   36 type  3   force =     0.00032114    0.02423123   -2.32002687
     The ionic contribution  to forces
     atom    1 type  1   force =    -0.53404451    1.22110996    1.45199965
     atom    2 type  2   force =    -0.70419386    1.08869143   38.25029977
     atom    3 type  2   force =     0.06109692    0.13106688  -38.32535847
     atom    4 type  1   force =    -0.35861395   -0.21968172   -0.81874953
     atom    5 type  2   force =    -0.93187491    1.13533312   38.12275196
     atom    6 type  2   force =     0.12489034   -0.34482960  -38.49393344
     atom    7 type  1   force =    -3.31727397   -2.47062903    1.08666111
     atom    8 type  2   force =    -1.79432370   -0.82900693   37.56722449
     atom    9 type  2   force =     0.22642100   -0.10254488  -38.82214439
     atom   10 type  1   force =    -1.37875538    0.24444467   -1.42693260
     atom   11 type  2   force =    -1.41395726   -1.49562349   37.83707890
     atom   12 type  2   force =     0.10845134    0.28905187  -38.76657934
     atom   13 type  1   force =     0.52963366    1.18608273    1.69922392
     atom   14 type  2   force =     0.00751187    0.27919025   38.31179004
     atom   15 type  2   force =    -0.04601680    0.00579399  -37.91497992
     atom   16 type  1   force =    -0.00863303    3.29634877    1.16420484
     atom   17 type  2   force =     0.95780683    1.14228772   38.25750163
     atom   18 type  2   force =    -0.16078849   -0.34312298  -38.42015198
     atom   19 type  1   force =     3.28639891   -2.47957236    1.41822036
     atom   20 type  2   force =    -0.04563918   -0.12267790  -38.98438400
     atom   21 type  1   force =    -0.02106319    0.04576789   -0.04444344
     atom   22 type  2   force =     1.42187191   -1.48919758   37.86725946
     atom   23 type  2   force =    -0.14793628    0.25609695  -38.64976986
     atom   24 type  1   force =     0.01787777    1.33166346    1.17503731
     atom   25 type  2   force =     0.69325986    1.09385516   38.30138613
     atom   26 type  2   force =    -0.02591628    0.12038889  -38.23215559
     atom   27 type  1   force =     0.38136251   -0.21762797    0.07577087
     atom   28 type  2   force =    -0.02426711    0.46200834   37.88351939
     atom   29 type  2   force =     0.03460889   -0.12804159  -37.98904051
     atom   30 type  1   force =     0.02366399   -1.75370676   -2.37371194
     atom   31 type  2   force =     1.78309668   -0.81496433   37.64808272
     atom   32 type  2   force =    -0.17331163   -0.09946689  -38.66653679
     atom   33 type  1   force =     1.41901856    0.26384167   -1.07952021
     atom   34 type  2   force =    -0.01445271   -0.39056444   28.63115098
     atom   35 type  2   force =     0.03846244    0.15003551  -38.20164876
     atom   36 type  3   force =    -0.01437125   -0.44180080   50.46087725
     The local contribution  to forces
     atom    1 type  1   force =     0.53747684   -1.24485765   -1.44738240
     atom    2 type  2   force =     0.70459803   -1.07775027  -38.00018747
     atom    3 type  2   force =    -0.05843587   -0.12164468   38.08137356
     atom    4 type  1   force =     0.35718214    0.21568328    0.81646910
     atom    5 type  2   force =     0.92756488   -1.11251354  -37.88714113
     atom    6 type  2   force =    -0.12533919    0.34731289   38.24922206
     atom    7 type  1   force =     3.33180371    2.46572104   -1.06484251
     atom    8 type  2   force =     1.78566826    0.82460651  -37.31717496
     atom    9 type  2   force =    -0.22094524    0.11523862   38.57487383
     atom   10 type  1   force =     1.36801125   -0.24301881    1.40665083
     atom   11 type  2   force =     1.41068791    1.49256080  -37.59426739
     atom   12 type  2   force =    -0.10127764   -0.27585908   38.52587775
     atom   13 type  1   force =    -0.53326707   -1.21156607   -1.69434098
     atom   14 type  2   force =    -0.00707764   -0.26843326  -38.06000059
     atom   15 type  2   force =     0.04577843    0.00556324   37.67097183
     atom   16 type  1   force =     0.00873544   -3.32883175   -1.12828703
     atom   17 type  2   force =    -0.95276792   -1.12020681  -38.02249777
     atom   18 type  2   force =     0.16063455    0.34597455   38.17606057
     atom   19 type  1   force =    -3.30151077    2.47475450   -1.39570448
     atom   20 type  2   force =     0.04495031    0.13436899   38.74038160
     atom   21 type  1   force =     0.02027541   -0.07699065    0.03282227
     atom   22 type  2   force =    -1.41805790    1.48603795  -37.62379249
     atom   23 type  2   force =     0.14006272   -0.24310828   38.40788775
     atom   24 type  1   force =    -0.01741087   -1.34494456   -1.17363143
     atom   25 type  2   force =    -0.69391879   -1.08297709  -38.05142770
     atom   26 type  2   force =     0.02338153   -0.11104377   37.98762969
     atom   27 type  1   force =    -0.37956915    0.21460573   -0.07865120
     atom   28 type  2   force =     0.02352196   -0.44993334  -37.62764894
     atom   29 type  2   force =    -0.03366606    0.13593453   37.73986003
     atom   30 type  1   force =    -0.02331142    1.72415203    2.35525240
     atom   31 type  2   force =    -1.77494759    0.81096420  -37.39756007
     atom   32 type  2   force =     0.16846533    0.11200042   38.41836363
     atom   33 type  1   force =    -1.40747247   -0.26201475    1.05902213
     atom   34 type  2   force =     0.01518779    0.39995028  -28.91850900
     atom   35 type  2   force =    -0.03808420   -0.13633784   37.94607469
     atom   36 type  3   force =     0.01384618    0.41789366  -48.16426262
     The core correction contribution to forces
     atom    1 type  1   force =     0.00000000    0.00000000    0.00000000
     atom    2 type  2   force =    -0.00002615    0.00044988    0.02121857
     atom    3 type  2   force =     0.00021718    0.00051065   -0.02084765
     atom    4 type  1   force =     0.00000000    0.00000000    0.00000000
     atom    5 type  2   force =    -0.00035683    0.00107647    0.02046754
     atom    6 type  2   force =     0.00009772   -0.00037926   -0.02087802
     atom    7 type  1   force =     0.00000000    0.00000000    0.00000000
     atom    8 type  2   force =    -0.00043814    0.00008847    0.02126376
     atom    9 type  2   force =     0.00052708    0.00077359   -0.02097769
     atom   10 type  1   force =     0.00000000    0.00000000    0.00000000
     atom   11 type  2   force =     0.00008080   -0.00043173    0.02103216
     atom   12 type  2   force =     0.00058187    0.00088027   -0.02075667
     atom   13 type  1   force =     0.00000000    0.00000000    0.00000000
     atom   14 type  2   force =     0.00000638    0.00022248    0.02113172
     atom   15 type  2   force =    -0.00000985    0.00049230   -0.02071529
     atom   16 type  1   force =     0.00000000    0.00000000    0.00000000
     atom   17 type  2   force =     0.00049243    0.00105479    0.02050972
     atom   18 type  2   force =    -0.00021803   -0.00027302   -0.02088762
     atom   19 type  1   force =     0.00000000    0.00000000    0.00000000
     atom   20 type  2   force =    -0.00001779    0.00055413   -0.02126470
     atom   21 type  1   force =     0.00000000    0.00000000    0.00000000
     atom   22 type  2   force =    -0.00002853   -0.00037180    0.02102655
     atom   23 type  2   force =    -0.00061473    0.00093282   -0.02072921
     atom   24 type  1   force =     0.00000000    0.00000000    0.00000000
     atom   25 type  2   force =    -0.00001778    0.00050789    0.02123511
     atom   26 type  2   force =    -0.00018264    0.00049258   -0.02083414
     atom   27 type  1   force =     0.00000000    0.00000000    0.00000000
     atom   28 type  2   force =    -0.00013989    0.00087891    0.02128236
     atom   29 type  2   force =     0.00012298    0.00021285   -0.02089354
     atom   30 type  1   force =     0.00000000    0.00000000    0.00000000
     atom   31 type  2   force =     0.00036211    0.00019599    0.02129014
     atom   32 type  2   force =    -0.00051107    0.00063948   -0.02095540
     atom   33 type  1   force =     0.00000000    0.00000000    0.00000000
     atom   34 type  2   force =     0.00005448    0.00031869   -0.00961321
     atom   35 type  2   force =     0.00006450    0.00083620   -0.02132008
     atom   36 type  3   force =    -0.00000190   -0.00027211    0.02458661
     The Hubbard contrib.    to forces
     atom    1 type  1   force =     0.00000000    0.00000000    0.00000000
     atom    2 type  2   force =     0.00000000    0.00000000    0.00000000
     atom    3 type  2   force =     0.00000000    0.00000000    0.00000000
     atom    4 type  1   force =     0.00000000    0.00000000    0.00000000
     atom    5 type  2   force =     0.00000000    0.00000000    0.00000000
     atom    6 type  2   force =     0.00000000    0.00000000    0.00000000
     atom    7 type  1   force =     0.00000000    0.00000000    0.00000000
     atom    8 type  2   force =     0.00000000    0.00000000    0.00000000
     atom    9 type  2   force =     0.00000000    0.00000000    0.00000000
     atom   10 type  1   force =     0.00000000    0.00000000    0.00000000
     atom   11 type  2   force =     0.00000000    0.00000000    0.00000000
     atom   12 type  2   force =     0.00000000    0.00000000    0.00000000
     atom   13 type  1   force =     0.00000000    0.00000000    0.00000000
     atom   14 type  2   force =     0.00000000    0.00000000    0.00000000
     atom   15 type  2   force =     0.00000000    0.00000000    0.00000000
     atom   16 type  1   force =     0.00000000    0.00000000    0.00000000
     atom   17 type  2   force =     0.00000000    0.00000000    0.00000000
     atom   18 type  2   force =     0.00000000    0.00000000    0.00000000
     atom   19 type  1   force =     0.00000000    0.00000000    0.00000000
     atom   20 type  2   force =     0.00000000    0.00000000    0.00000000
     atom   21 type  1   force =     0.00000000    0.00000000    0.00000000
     atom   22 type  2   force =     0.00000000    0.00000000    0.00000000
     atom   23 type  2   force =     0.00000000    0.00000000    0.00000000
     atom   24 type  1   force =     0.00000000    0.00000000    0.00000000
     atom   25 type  2   force =     0.00000000    0.00000000    0.00000000
     atom   26 type  2   force =     0.00000000    0.00000000    0.00000000
     atom   27 type  1   force =     0.00000000    0.00000000    0.00000000
     atom   28 type  2   force =     0.00000000    0.00000000    0.00000000
     atom   29 type  2   force =     0.00000000    0.00000000    0.00000000
     atom   30 type  1   force =     0.00000000    0.00000000    0.00000000
     atom   31 type  2   force =     0.00000000    0.00000000    0.00000000
     atom   32 type  2   force =     0.00000000    0.00000000    0.00000000
     atom   33 type  1   force =     0.00000000    0.00000000    0.00000000
     atom   34 type  2   force =     0.00000000    0.00000000    0.00000000
     atom   35 type  2   force =     0.00000000    0.00000000    0.00000000
     atom   36 type  3   force =     0.00000000    0.00000000    0.00000000
     The SCF correction term to forces
     atom    1 type  1   force =     0.00000140    0.00001813   -0.00005579
     atom    2 type  2   force =    -0.00000707    0.00002006   -0.00004059
     atom    3 type  2   force =    -0.00000689    0.00000575   -0.00001141
     atom    4 type  1   force =    -0.00002388   -0.00002846   -0.00006825
     atom    5 type  2   force =    -0.00000537   -0.00000656   -0.00002866
     atom    6 type  2   force =     0.00000150    0.00000140   -0.00002494
     atom    7 type  1   force =    -0.00001243   -0.00001189   -0.00007579
     atom    8 type  2   force =    -0.00000119   -0.00001137   -0.00002040
     atom    9 type  2   force =    -0.00001088   -0.00000357   -0.00003249
     atom   10 type  1   force =    -0.00002420    0.00003201   -0.00009961
     atom   11 type  2   force =    -0.00002227   -0.00000013   -0.00002126
     atom   12 type  2   force =     0.00000060    0.00000103   -0.00002731
     atom   13 type  1   force =     0.00001274    0.00001196   -0.00004695
     atom   14 type  2   force =    -0.00000785    0.00000886   -0.00002315
     atom   15 type  2   force =     0.00000230    0.00001119   -0.00001632
     atom   16 type  1   force =    -0.00002962   -0.00002221   -0.00005834
     atom   17 type  2   force =     0.00000050   -0.00000396   -0.00002410
     atom   18 type  2   force =     0.00001315    0.00000075   -0.00000625
     atom   19 type  1   force =     0.00001702   -0.00002255   -0.00004813
     atom   20 type  2   force =    -0.00000150   -0.00001101   -0.00001573
     atom   21 type  1   force =    -0.00000658    0.00001324   -0.00005226
     atom   22 type  2   force =    -0.00000254    0.00000068   -0.00002419
     atom   23 type  2   force =    -0.00000102    0.00000188   -0.00000499
     atom   24 type  1   force =     0.00000909    0.00001383   -0.00006065
     atom   25 type  2   force =     0.00000766    0.00001174   -0.00003146
     atom   26 type  2   force =    -0.00000300    0.00000266   -0.00000139
     atom   27 type  1   force =     0.00000216   -0.00001255   -0.00004242
     atom   28 type  2   force =     0.00001544   -0.00000449   -0.00002174
     atom   29 type  2   force =    -0.00000144    0.00000029   -0.00001226
     atom   30 type  1   force =     0.00000826   -0.00003505   -0.00006159
     atom   31 type  2   force =     0.00001429   -0.00001029   -0.00001575
     atom   32 type  2   force =     0.00001058   -0.00000965   -0.00001139
     atom   33 type  1   force =     0.00003446    0.00000978   -0.00006771
     atom   34 type  2   force =     0.00001597   -0.00001123   -0.00002513
     atom   35 type  2   force =     0.00000337    0.00000515   -0.00002665
     atom   36 type  3   force =     0.00001150   -0.00003617    0.00001971

     Total force =     0.006571     Total SCF correction =     0.000272
     Energy error            =      9.2E-05 Ry
     Gradient error          =      2.5E-03 Ry/Bohr

     bfgs converged in  24 scf cycles and  23 bfgs steps
     (criteria: energy <  1.0E-04 Ry, force <  1.0E-02 Ry/Bohr)

     End of BFGS Geometry Optimization

     Final energy             =   -2246.4498465126 Ry

     File ./MoS2-V-O.bfgs deleted, as requested
Begin final coordinates

ATOMIC_POSITIONS (angstrom)
Mo            6.5283962956        1.7438093333        2.7565705187
S             8.0920274207        0.8325579971        4.3701436195
S             8.1053713081        0.8482213563        1.1622753827
Mo            8.0807512328        4.4859381691        2.7062510878
S             6.4888962568        3.6511874203        4.3048059112
S             6.5136130398        3.5458108206        1.1088127682
Mo            6.4853614583        7.1724784521        2.6660986081
S             8.0485415478        6.2908885979        4.2999817340
S             8.0907150926        6.3053336783        1.0940559680
Mo            8.0800500687        9.9405723268        2.7493118453
S             6.4948876213        8.9370638876        4.3206208877
S             6.5416788937        9.0100400234        1.1130079152
Mo            3.3900493183        1.7488160563        2.7620364203
S             4.9597041862        0.8011239988        4.3476779806
S             4.9581082247        0.8252260044        1.1724172866
Mo            4.9589500932        4.5212457666        2.6590475398
S             3.4363493521        3.6553220419        4.3164796563
S             3.3973142879        3.5520624499        1.1148304149
Mo            3.4336825077        7.1721281416        2.6732991029
S             4.9581684306        6.2983849385        1.0509747439
Mo            4.9610730164        9.8867395061        2.7320826252
S             3.4278717631        8.9422378486        4.3239889437
S             3.3763838992        9.0124669800        1.1229732322
Mo            0.2291071200        1.7303989536        2.7714446474
S             1.8229144290        0.8401033845        4.3759952531
S             1.8149809785        0.8496455289        1.1694801173
Mo            1.8351517918        4.4845118245        2.7220778725
S             0.2211996007        3.5976004801        4.3189473389
S             0.2349643290        3.5499829026        1.1522507919
Mo            0.2295641765        7.1711005974        2.7185116715
S             1.8628339625        6.2960446640        4.3087409371
S             1.8267740763        6.2977208099        1.1065413203
Mo            1.8393055177        9.9430025595        2.7562804001
S             0.2312875224        9.0062757818        4.2605397348
S             0.2350547426        9.0399334175        1.1793152048
O             9.6872723384        8.9952252662        5.7584533373
End final coordinates



     Writing all to output data dir ./MoS2-V-O.save/
 
     init_run     :      4.71s CPU      5.26s WALL (       1 calls)
     electrons    :   2272.31s CPU   2570.60s WALL (      24 calls)
     update_pot   :     70.25s CPU     74.90s WALL (      23 calls)
     forces       :     65.18s CPU     74.30s WALL (      24 calls)

     Called by init_run:
     wfcinit      :      0.49s CPU      0.53s WALL (       1 calls)
     potinit      :      2.47s CPU      2.78s WALL (       1 calls)
     hinit0       :      0.44s CPU      0.46s WALL (       1 calls)

     Called by electrons:
     c_bands      :    324.46s CPU    332.58s WALL (     226 calls)
     sum_band     :    126.67s CPU    162.61s WALL (     226 calls)
     v_of_rho     :    213.01s CPU    258.86s WALL (     244 calls)
     newd         :     72.49s CPU    107.10s WALL (     244 calls)
     PAW_pot      :      9.64s CPU      9.68s WALL (     267 calls)
     mix_rho      :   1549.55s CPU   1725.74s WALL (     226 calls)

     Called by c_bands:
     init_us_2    :      5.17s CPU      5.58s WALL (     476 calls)
     init_us_2:cp :      5.17s CPU      5.58s WALL (     476 calls)
     regterg      :    307.40s CPU    315.09s WALL (     226 calls)

     Called by *egterg:
     rdiaghg      :     21.28s CPU     21.49s WALL (    1197 calls)
     h_psi        :    199.51s CPU    201.25s WALL (    1227 calls)
     s_psi        :     18.94s CPU     19.00s WALL (    1227 calls)
     g_psi        :      0.97s CPU      0.99s WALL (    1000 calls)

     Called by h_psi:
     h_psi:calbec :     21.67s CPU     21.81s WALL (    1227 calls)
     vloc_psi     :    156.68s CPU    158.15s WALL (    1227 calls)
     add_vuspsi   :     18.64s CPU     18.75s WALL (    1227 calls)

     General routines
     calbec       :     31.27s CPU     31.48s WALL (    1572 calls)
     fft          :    144.34s CPU    167.33s WALL (   16281 calls)
     ffts         :    689.95s CPU    859.78s WALL (  380640 calls)
     fftw         :     98.98s CPU     99.83s WALL (  138766 calls)
     interpolate  :      3.02s CPU      3.46s WALL (     244 calls)
 
     Parallel routines
 
     PWSCF        :  40m22.52s CPU  45m39.88s WALL

 
   This run was terminated on:  21:53:36   1Nov2023            

=------------------------------------------------------------------------------=
   JOB DONE.
=------------------------------------------------------------------------------=
