
     Program PWSCF v.7.2 starts on  1Nov2023 at 12:24:29 

     This program is part of the open-source Quantum ESPRESSO suite
     for quantum simulation of materials; please cite
         "P. Giannozzi et al., J. Phys.:Condens. Matter 21 395502 (2009);
         "P. Giannozzi et al., J. Phys.:Condens. Matter 29 465901 (2017);
         "P. Giannozzi et al., J. Chem. Phys. 152 154105 (2020);
          URL http://www.quantum-espresso.org", 
     in publications or presentations arising from this work. More details at
     http://www.quantum-espresso.org/quote

     Parallel version (MPI & OpenMP), running on      48 processor cores
     Number of MPI processes:                48
     Threads/MPI process:                     1

     MPI processes distributed on     1 nodes
     48899 MiB available memory on the printing compute node when the environment starts
 
     Waiting for input...
     Reading input from standard input
Warning: card &CELL ignored
Warning: card CELL_DYNAMICS = 'BFGS', ignored
Warning: card CELL_DOFREE = '2DXY' ignored
Warning: card / ignored

     Current dimensions of program PWSCF are:
     Max number of different atomic species (ntypx) = 10
     Max number of k-points (npk) =  40000
     Max angular momentum in pseudopotentials (lmaxx) =  4
     file O.pbe-n-kjpaw_psl.0.1.UPF: wavefunction(s)  2P renormalized

     IMPORTANT: XC functional enforced from input :
     Exchange-correlation= RVV10
                           (   1   4  13   4  26   0   0)
     Any further DFT definition will be discarded
     Please, verify this is what you really want


     gamma-point specific algorithms are used
     signal trapping enabled: kill the code with -SIGUSR1 to stop cleanly the simulation 
 
     R & G space division:  proc/nbgrp/npool/nimage =      48
     Subspace diagonalization in iterative solution of the eigenvalue problem:
     one sub-group per band group will be used
     scalapack distributed-memory algorithm (size of sub-group:  2*  2 procs)

 
     Parallelization info
     --------------------
     sticks:   dense  smooth     PW     G-vecs:    dense   smooth      PW
     Min         396     194     47               101632    35090    4376
     Max         398     196     50               101674    35128    4410
     Sum       19091    9389   2349              4879585  1685513  210763
 
     Using Slab Decomposition
 


     bravais-lattice index     =            0
     lattice parameter (alat)  =      17.8707  a.u.
     unit-cell volume          =   17436.2743 (a.u.)^3
     number of atoms/cell      =           36
     number of atomic types    =            3
     number of electrons       =       312.00
     number of Kohn-Sham states=          187
     kinetic-energy cutoff     =      80.0000  Ry
     charge density cutoff     =     650.0000  Ry
     scf convergence threshold =      1.0E-06
     mixing beta               =       0.7000
     number of iterations used =            8  local-TF  mixing
     energy convergence thresh.=      1.0E-04
     force convergence thresh. =      1.0E-02
     Exchange-correlation= RVV10
                           (   1   4  13   4  26   0   0)
     nstep                     =          200


     celldm(1)=  17.870686  celldm(2)=   0.000000  celldm(3)=   0.000000
     celldm(4)=   0.000000  celldm(5)=   0.000000  celldm(6)=   0.000000

     crystal axes: (cart. coord. in units of alat)
               a(1) = (   1.000000   0.000000   0.000000 )  
               a(2) = (   0.000000   1.155671   0.000000 )  
               a(3) = (   0.000000   0.000000   2.643601 )  

     reciprocal axes: (cart. coord. in units 2 pi/alat)
               b(1) = (  1.000000  0.000000  0.000000 )  
               b(2) = (  0.000000  0.865298  0.000000 )  
               b(3) = (  0.000000  0.000000  0.378272 )  


     PseudoPot. # 1 for Mo read from file:
     ../pseudo/Mo_ONCV_PBE-1.0.oncvpsp.upf
     MD5 check sum: 1b5d28e075c9ccadda658a603575cd1f
     Pseudo is Norm-conserving, Zval = 14.0
     Generated using ONCVPSP code by D. R. Hamann
     Using radial grid of 1526 points,  6 beta functions with: 
                l(1) =   0
                l(2) =   0
                l(3) =   1
                l(4) =   1
                l(5) =   2
                l(6) =   2

     PseudoPot. # 2 for S  read from file:
     ../pseudo/s_pbe_v1.4.uspp.F.UPF
     MD5 check sum: 88d86576ff6df21479756cfb9bdac1df
     Pseudo is Ultrasoft + core correction, Zval =  6.0
     Generated by new atomic code, or converted to UPF format
     Using radial grid of  907 points,  6 beta functions with: 
                l(1) =   0
                l(2) =   0
                l(3) =   1
                l(4) =   1
                l(5) =   2
                l(6) =   2
     Q(r) pseudized with  8 coefficients,  rinner =    1.300   1.300   1.300
                                                       1.300   1.300

     PseudoPot. # 3 for O  read from file:
     ../pseudo/O.pbe-n-kjpaw_psl.0.1.UPF
     MD5 check sum: 0234752ac141de4415c5fc33072bef88
     Pseudo is Projector augmented-wave + core cor, Zval =  6.0
     Generated using "atomic" code by A. Dal Corso  v.5.0.99 svn rev. 10869
     Shape of augmentation charge: BESSEL
     Using radial grid of 1095 points,  4 beta functions with: 
                l(1) =   0
                l(2) =   0
                l(3) =   1
                l(4) =   1
     Q(r) pseudized with 0 coefficients 


     atomic species   valence    mass     pseudopotential
        Mo            14.00    95.94000     Mo( 1.00)
        S              6.00    32.06500     S ( 1.00)
        O              6.00    15.99940     O ( 1.00)

     No symmetry found



   Cartesian axes

     site n.     atom                  positions (alat units)
         1           Mo  tau(   1) = (   0.6952221   0.1890506   0.2985846  )
         2           S   tau(   2) = (   0.8646417   0.0856217   0.4689279  )
         3           S   tau(   3) = (   0.8663890   0.0857843   0.1351291  )
         4           Mo  tau(   4) = (   0.8560186   0.4753274   0.2873942  )
         5           S   tau(   5) = (   0.6873294   0.3936244   0.4596353  )
         6           S   tau(   6) = (   0.6929804   0.3713468   0.1185692  )
         7           Mo  tau(   7) = (   0.6862796   0.7633098   0.2825370  )
         8           S   tau(   8) = (   0.8545980   0.6708292   0.4486168  )
         9           S   tau(   9) = (   0.8545123   0.6666874   0.1146125  )
        10           Mo  tau(  10) = (   0.8629403   1.0471007   0.3006803  )
        11           S   tau(  11) = (   0.6868280   0.9456650   0.4634891  )
        12           S   tau(  12) = (   0.6998113   0.9568511   0.1205389  )
        13           Mo  tau(  13) = (   0.3618216   0.1847309   0.2935964  )
        14           S   tau(  14) = (   0.5260962   0.0863870   0.4600448  )
        15           S   tau(  15) = (   0.5348379   0.0894875   0.1297123  )
        16           Mo  tau(  16) = (   0.5265817   0.4772436   0.2784130  )
        17           S   tau(  17) = (   0.3624753   0.3882513   0.4525556  )
        18           S   tau(  18) = (   0.3635411   0.3752055   0.1119148  )
        19           Mo  tau(  19) = (   0.3652268   0.7630864   0.2781795  )
        20           S   tau(  20) = (   0.5269494   0.6690381   0.1096838  )
        21           Mo  tau(  21) = (   0.5300192   1.0470394   0.2900995  )
        22           S   tau(  22) = (   0.3670346   0.9457522   0.4574073  )
        23           S   tau(  23) = (   0.3604225   0.9585725   0.1159032  )
        24           Mo  tau(  24) = (   0.0313099   0.1847895   0.3013130  )
        25           S   tau(  25) = (   0.1956761   0.0838230   0.4650863  )
        26           S   tau(  26) = (   0.1967693   0.0903508   0.1278874  )
        27           Mo  tau(  27) = (   0.1967578   0.4753919   0.2813011  )
        28           S   tau(  28) = (   0.0287851   0.3864324   0.4586755  )
        29           S   tau(  29) = (   0.0244514   0.3729871   0.1239344  )
        30           Mo  tau(  30) = (   0.0286728   0.7631204   0.2856894  )
        31           S   tau(  31) = (   0.2011512   0.6675435   0.4465001  )
        32           S   tau(  32) = (   0.1969214   0.6672839   0.1104564  )
        33           Mo  tau(  33) = (   0.1950294   1.0511147   0.2932237  )
        34           S   tau(  34) = (   0.0312912   0.9612169   0.4667423  )
        35           S   tau(  35) = (   0.0292670   0.9563028   0.1216485  )
        36           O   tau(  36) = (   0.6666667   0.1284079   0.5407634  )

     number of k points=     1  Gaussian smearing, width (Ry)=  0.0100
                       cart. coord. in units 2pi/alat
        k(    1) = (   0.0000000   0.0000000   0.0000000), wk =   2.0000000

     Dense  grid:  2439793 G-vectors     FFT dimensions: ( 150, 180, 384)

     Smooth grid:   842757 G-vectors     FFT dimensions: ( 108, 120, 270)

     Estimated max dynamical RAM per process >     269.22 MB

     Estimated total dynamical RAM >      12.62 GB

     Initial potential from superposition of free atoms

     starting charge     311.9873, renormalised to     312.0000

     negative rho (up, down):  2.743E-04 0.000E+00


---------------------------------------------------------------------------------
Carrying out rVV10 run using the following parameters:
Nqs =      20    Nr_points =    1024   r_max =   100.000
b_value =  6.30000    beta =  0.00901
     q_mesh =  0.00010000  0.00030000  0.00058939  0.00100810
               0.00161396  0.00249058  0.00375900  0.00559430
               0.00824984  0.01209221  0.01765183  0.02569619
               0.03733578  0.05417739  0.07854596  0.11380545
               0.16482331  0.23864234  0.34545298  0.50000000

Gradients computed in Reciprocal space

---------------------------------------------------------------------------------


     Starting wfcs are  216 randomized atomic wfcs
     Checking if some PAW data can be deallocated... 

     total cpu time spent up to now is        5.3 secs

     Self-consistent Calculation

     iteration #  1     ecut=    80.00 Ry     beta= 0.70
     Davidson diagonalization with overlap
     ethr =  1.00E-02,  avg # of iterations =  2.0

     Threshold (ethr) on eigenvalues was too large:
     Diagonalizing with lowered threshold

     Davidson diagonalization with overlap
     ethr =  4.19E-04,  avg # of iterations =  3.0

     negative rho (up, down):  4.151E-08 0.000E+00

     total cpu time spent up to now is       22.8 secs

     total energy              =   -2246.17986171 Ry
     estimated scf accuracy    <       1.55513742 Ry

     iteration #  2     ecut=    80.00 Ry     beta= 0.70
     Davidson diagonalization with overlap
     ethr =  4.98E-04,  avg # of iterations =  3.0

     total cpu time spent up to now is       27.7 secs

     total energy              =   -2246.16529018 Ry
     estimated scf accuracy    <       0.77014977 Ry

     iteration #  3     ecut=    80.00 Ry     beta= 0.70
     Davidson diagonalization with overlap
     ethr =  2.47E-04,  avg # of iterations =  5.0

     total cpu time spent up to now is       31.6 secs

     total energy              =   -2246.15488689 Ry
     estimated scf accuracy    <       0.24529652 Ry

     iteration #  4     ecut=    80.00 Ry     beta= 0.70
     Davidson diagonalization with overlap
     c_bands:  1 eigenvalues not converged
     ethr =  7.86E-05,  avg # of iterations = 20.0

     total cpu time spent up to now is       36.4 secs

     total energy              =   -2246.19031710 Ry
     estimated scf accuracy    <       0.03521538 Ry

     iteration #  5     ecut=    80.00 Ry     beta= 0.70
     Davidson diagonalization with overlap
     ethr =  1.13E-05,  avg # of iterations = 19.0

     total cpu time spent up to now is       41.3 secs

     total energy              =   -2246.19222167 Ry
     estimated scf accuracy    <       0.01916117 Ry

     iteration #  6     ecut=    80.00 Ry     beta= 0.70
     Davidson diagonalization with overlap
     ethr =  6.14E-06,  avg # of iterations =  2.0

     total cpu time spent up to now is       44.9 secs

     total energy              =   -2246.19147772 Ry
     estimated scf accuracy    <       0.01234571 Ry

     iteration #  7     ecut=    80.00 Ry     beta= 0.70
     Davidson diagonalization with overlap
     ethr =  3.96E-06,  avg # of iterations =  2.0

     total cpu time spent up to now is       48.6 secs

     total energy              =   -2246.19054317 Ry
     estimated scf accuracy    <       0.00764795 Ry

     iteration #  8     ecut=    80.00 Ry     beta= 0.70
     Davidson diagonalization with overlap
     ethr =  2.45E-06,  avg # of iterations =  2.0

     negative rho (up, down):  5.014E-03 0.000E+00

     total cpu time spent up to now is       54.6 secs

     total energy              =   -2246.18909385 Ry
     estimated scf accuracy    <       0.00485339 Ry

     iteration #  9     ecut=    80.00 Ry     beta= 0.70
     Davidson diagonalization with overlap
     ethr =  1.56E-06,  avg # of iterations =  2.0

     negative rho (up, down):  1.960E-02 0.000E+00

     total cpu time spent up to now is       60.4 secs

     total energy              =   -2246.18881690 Ry
     estimated scf accuracy    <       0.00246285 Ry

     iteration # 10     ecut=    80.00 Ry     beta= 0.70
     Davidson diagonalization with overlap
     ethr =  7.89E-07,  avg # of iterations =  2.0

     negative rho (up, down):  2.569E-02 0.000E+00

     total cpu time spent up to now is       66.8 secs

     total energy              =   -2246.18880801 Ry
     estimated scf accuracy    <       0.00122871 Ry

     iteration # 11     ecut=    80.00 Ry     beta= 0.70
     Davidson diagonalization with overlap
     ethr =  3.94E-07,  avg # of iterations =  2.0

     negative rho (up, down):  2.103E-02 0.000E+00

     total cpu time spent up to now is       74.0 secs

     total energy              =   -2246.18884180 Ry
     estimated scf accuracy    <       0.00032090 Ry

     iteration # 12     ecut=    80.00 Ry     beta= 0.70
     Davidson diagonalization with overlap
     ethr =  1.03E-07,  avg # of iterations =  5.0

     negative rho (up, down):  6.357E-03 0.000E+00

     total cpu time spent up to now is       80.8 secs

     total energy              =   -2246.18880665 Ry
     estimated scf accuracy    <       0.00005917 Ry

     iteration # 13     ecut=    80.00 Ry     beta= 0.70
     Davidson diagonalization with overlap
     ethr =  1.90E-08,  avg # of iterations = 10.0

     negative rho (up, down):  2.041E-03 0.000E+00

     total cpu time spent up to now is       89.7 secs

     total energy              =   -2246.18884385 Ry
     estimated scf accuracy    <       0.00000704 Ry

     iteration # 14     ecut=    80.00 Ry     beta= 0.70
     Davidson diagonalization with overlap
     ethr =  2.26E-09,  avg # of iterations =  5.0

     negative rho (up, down):  5.377E-04 0.000E+00

     total cpu time spent up to now is       97.9 secs

     total energy              =   -2246.18884808 Ry
     estimated scf accuracy    <       0.00000168 Ry

     iteration # 15     ecut=    80.00 Ry     beta= 0.70
     Davidson diagonalization with overlap
     ethr =  5.37E-10,  avg # of iterations =  4.0

     negative rho (up, down):  1.876E-04 0.000E+00

     total cpu time spent up to now is      101.6 secs

     End of self-consistent calculation

          k = 0.0000 0.0000 0.0000 (105382 PWs)   bands (ev):

   -63.1125 -62.9058 -62.8901 -62.8613 -62.8482 -62.8418 -62.8157 -62.8037
   -62.7966 -62.7789 -62.7712 -62.7653 -37.4394 -37.3066 -37.2395 -37.1957
   -37.1642 -37.1569 -37.1286 -37.1194 -37.1069 -37.0904 -37.0862 -37.0756
   -37.0584 -37.0564 -37.0490 -37.0338 -37.0172 -37.0159 -36.9982 -36.9807
   -36.9715 -36.9606 -36.9570 -36.9522 -36.9436 -36.9373 -36.9240 -36.9224
   -36.9036 -36.8947 -36.8835 -36.8667 -36.8485 -36.8195 -36.7675 -36.7302
   -22.7770 -15.9351 -15.3257 -15.2095 -15.0890 -14.9727 -14.7416 -14.7150
   -14.5307 -14.4778 -14.4380 -14.4209 -14.3727 -14.3208 -14.2143 -14.1938
   -14.1617 -14.1131 -14.1037 -13.9296 -13.8679 -13.8390 -13.8219 -13.5873
    -8.9290  -8.1659  -7.9473  -7.4961  -7.3957  -7.2949  -7.2678  -7.1875
    -7.1191  -7.0215  -6.9274  -6.8180  -6.7554  -6.7376  -6.6990  -6.5883
    -6.4642  -6.4394  -6.4241  -6.2776  -6.1936  -6.0121  -5.9568  -5.8653
    -5.8491  -5.8248  -5.7456  -5.7056  -5.6690  -5.6404  -5.6299  -5.5500
    -5.5118  -5.4540  -5.4367  -5.3001  -5.2269  -5.1978  -5.1098  -5.0468
    -5.0013  -4.9846  -4.9034  -4.8226  -4.7003  -4.5322  -4.4807  -4.3701
    -4.3177  -4.2394  -4.2324  -4.1467  -4.0367  -3.9535  -3.8839  -3.8276
    -3.7048  -3.6934  -3.6555  -3.6205  -3.6061  -3.5562  -3.5194  -3.4897
    -3.4614  -3.4190  -3.3725  -3.2615  -3.1113  -3.0224  -2.9153  -2.8810
    -2.8391  -2.7599  -2.7136  -2.7011  -2.6449  -2.5864  -2.4877  -2.2787
    -2.0544  -1.9722  -1.8984  -1.1753  -0.9377  -0.8192  -0.7166  -0.2329
    -0.1408  -0.1240  -0.0031   0.0274   0.1050   0.1526   0.2134   0.2424
     0.2950   0.3377   0.4297   0.4989   0.5123   0.5421   0.5542   0.5914
     0.6472   0.6984   0.7109   0.7684   0.7947   0.8502   0.9282   0.9597
     1.0391   1.1452   1.2582

     the Fermi energy is    -1.0582 ev

!    total energy              =   -2246.18884932 Ry
     estimated scf accuracy    <       0.00000035 Ry
     smearing contrib. (-TS)   =      -0.00553223 Ry
     internal energy E=F+TS    =   -2246.18331708 Ry

     The total energy is F=E-TS. E is the sum of the following terms:
     one-electron contribution =  -18502.94281418 Ry
     hartree contribution      =    9239.97148661 Ry
     xc contribution           =    -392.18659453 Ry
     ewald contribution        =    7418.83850114 Ry
     one-center paw contrib.   =      -9.86389612 Ry

     convergence has been achieved in  15 iterations

     negative rho (up, down):  1.876E-04 0.000E+00

     Forces acting on atoms (cartesian axes, Ry/au):

     atom    1 type  1   force =     0.04533747    0.00656867   -0.02291272
     atom    2 type  2   force =     0.08512519   -0.00555347   -0.04787946
     atom    3 type  2   force =    -0.01214145    0.01103117   -0.00199302
     atom    4 type  1   force =    -0.00056471    0.01560302    0.00276997
     atom    5 type  2   force =     0.00005414    0.02725150   -0.02070817
     atom    6 type  2   force =     0.00312062   -0.00246286   -0.00116895
     atom    7 type  1   force =     0.00568327   -0.01542795   -0.00989471
     atom    8 type  2   force =     0.00226357   -0.00208489    0.02012731
     atom    9 type  2   force =     0.01190882    0.00478708    0.01067777
     atom   10 type  1   force =    -0.00891378    0.01728079   -0.02073735
     atom   11 type  2   force =     0.00640001   -0.00247486   -0.00498305
     atom   12 type  2   force =    -0.00328916   -0.00083237    0.00416541
     atom   13 type  1   force =     0.01974760    0.04275954   -0.02713713
     atom   14 type  2   force =    -0.09334122   -0.07633587    0.03514583
     atom   15 type  2   force =    -0.01283643    0.00524008   -0.00844504
     atom   16 type  1   force =    -0.00498901    0.00489717    0.00131291
     atom   17 type  2   force =     0.00157409    0.00092882    0.00406406
     atom   18 type  2   force =    -0.00760198   -0.00637904    0.01291486
     atom   19 type  1   force =     0.00692853   -0.01066438   -0.00416917
     atom   20 type  2   force =     0.00353981   -0.00211045    0.00054856
     atom   21 type  1   force =     0.01310854    0.00140639   -0.00169539
     atom   22 type  2   force =    -0.00443188   -0.00390979   -0.00247059
     atom   23 type  2   force =    -0.00418303    0.00159875    0.00662737
     atom   24 type  1   force =     0.00637360   -0.01467314   -0.02648817
     atom   25 type  2   force =     0.00292487    0.01188540    0.01159223
     atom   26 type  2   force =    -0.01077704   -0.00006044   -0.00460297
     atom   27 type  1   force =    -0.00236828    0.00193950    0.00174841
     atom   28 type  2   force =     0.00129481   -0.00118275   -0.00269593
     atom   29 type  2   force =     0.00388288   -0.00034141   -0.00573849
     atom   30 type  1   force =    -0.00376757    0.00989826   -0.00618051
     atom   31 type  2   force =     0.00074705    0.00138881    0.01764254
     atom   32 type  2   force =    -0.00792545    0.00631887    0.00892169
     atom   33 type  1   force =     0.01265068   -0.00225880   -0.00619341
     atom   34 type  2   force =     0.00336433   -0.04166140   -0.00850688
     atom   35 type  2   force =    -0.00707565    0.00433237    0.01285930
     atom   36 type  3   force =    -0.05182325    0.01329768    0.08348290
     The non-local contrib.  to forces
     atom    1 type  1   force =     0.01630955    0.02056527   -0.04013468
     atom    2 type  2   force =    -0.04388919   -0.00418744   -0.26488440
     atom    3 type  2   force =    -0.02237513    0.00184874    0.26927329
     atom    4 type  1   force =     0.00021165    0.00255416    0.00269762
     atom    5 type  2   force =     0.00492737    0.02472322   -0.25795389
     atom    6 type  2   force =     0.00012109   -0.00377651    0.27042672
     atom    7 type  1   force =    -0.01800680    0.00149213   -0.02354615
     atom    8 type  2   force =     0.00437574   -0.00281677   -0.25425724
     atom    9 type  2   force =     0.00568076   -0.00633120    0.27809080
     atom   10 type  1   force =     0.01334379   -0.00439540   -0.00297824
     atom   11 type  2   force =     0.01452853    0.00598095   -0.26120241
     atom   12 type  2   force =    -0.01828878   -0.01688275    0.26177285
     atom   13 type  1   force =     0.00108324    0.01408931    0.00368450
     atom   14 type  2   force =     0.46503089    0.14266709   -0.04665528
     atom   15 type  2   force =    -0.00819319   -0.00685974    0.25577573
     atom   16 type  1   force =     0.00507588    0.03557360   -0.03333514
     atom   17 type  2   force =     0.00619746   -0.03200683   -0.25117567
     atom   18 type  2   force =    -0.00690228   -0.00930855    0.27428578
     atom   19 type  1   force =     0.01013382   -0.00087897   -0.01661409
     atom   20 type  2   force =     0.00144100   -0.02271497    0.26650591
     atom   21 type  1   force =    -0.00808664    0.03564041    0.00424294
     atom   22 type  2   force =    -0.01641043    0.00609499   -0.25585308
     atom   23 type  2   force =     0.00663922   -0.01487132    0.26647123
     atom   24 type  1   force =    -0.00469227    0.00471349    0.00220657
     atom   25 type  2   force =    -0.01672313    0.00590643   -0.25221558
     atom   26 type  2   force =    -0.00153181   -0.01355633    0.26254416
     atom   27 type  1   force =    -0.00383027    0.00909000    0.00962998
     atom   28 type  2   force =     0.00325067   -0.01817615   -0.26740030
     atom   29 type  2   force =     0.00537822    0.00870237    0.25813069
     atom   30 type  1   force =     0.00198661    0.01667204    0.00902502
     atom   31 type  2   force =    -0.00639380    0.00385597   -0.25307752
     atom   32 type  2   force =    -0.00230285   -0.00959027    0.27430757
     atom   33 type  1   force =    -0.01423367    0.00027663    0.00189576
     atom   34 type  2   force =    -0.00585239   -0.03378891   -0.27114431
     atom   35 type  2   force =    -0.00172985   -0.01020029    0.27050874
     atom   36 type  3   force =    -1.37253917   -0.48228519   -1.19805528
     The ionic contribution  to forces
     atom    1 type  1   force =     1.27398867    2.15968930   -2.50994342
     atom    2 type  2   force =     3.61172850   -0.54859494   37.62979651
     atom    3 type  2   force =     0.16958492   -0.07131476  -37.20496355
     atom    4 type  1   force =     0.77034743    1.87879958   -0.91597569
     atom    5 type  2   force =    -0.76742328    4.09368423   37.87480729
     atom    6 type  2   force =     0.38095564   -0.14538817  -38.98461353
     atom    7 type  1   force =    -2.57325050   -3.17206216    1.41417509
     atom    8 type  2   force =    -0.80650915    0.15890566   37.20510591
     atom    9 type  2   force =     0.41039205    0.01271034  -38.52802212
     atom   10 type  1   force =     0.26430188   -2.13318334    3.29663749
     atom   11 type  2   force =    -0.46864133   -3.16476316   38.69910397
     atom   12 type  2   force =     0.47455843    0.37460561  -38.63412201
     atom   13 type  1   force =    -1.35981972    1.42406501    0.44324577
     atom   14 type  2   force =    -6.53811700   -2.00344981   34.62296772
     atom   15 type  2   force =    -0.11260046   -0.15585648  -38.07169483
     atom   16 type  1   force =    -0.58518421    5.35815142   -1.24505007
     atom   17 type  2   force =     0.11000896    2.25088269   37.59812319
     atom   18 type  2   force =    -0.32268140   -0.44126680  -39.25264724
     atom   19 type  1   force =     2.42305651   -2.67600770   -0.30190118
     atom   20 type  2   force =     0.17294039   -0.14908695  -39.01529404
     atom   21 type  1   force =    -1.11706010   -2.08450560   -1.64803147
     atom   22 type  2   force =     0.00742129   -2.33585758   38.19429153
     atom   23 type  2   force =    -0.21172507    0.47070461  -38.89825471
     atom   24 type  1   force =     0.76394865    1.46994069    3.96517182
     atom   25 type  2   force =     0.45338995    0.16426223   39.01723211
     atom   26 type  2   force =    -0.33710706    0.02740910  -38.02083166
     atom   27 type  1   force =    -0.08150148    0.99728421   -3.29573647
     atom   28 type  2   force =     0.55821160    1.57233784   37.95536002
     atom   29 type  2   force =    -0.12682966   -0.23833756  -37.91211071
     atom   30 type  1   force =    -0.10345274   -1.10454868   -0.92339158
     atom   31 type  2   force =     1.18864808    0.01595491   37.18375336
     atom   32 type  2   force =    -0.49403566    0.02499250  -39.09545512
     atom   33 type  1   force =     0.62590495   -1.51972894    0.84865395
     atom   34 type  2   force =     0.59435338   -1.94239584   39.17059777
     atom   35 type  2   force =    -0.19975403    0.30166692  -38.38816978
     atom   36 type  3   force =     1.95195159    1.13030161   47.72718569
     The local contribution  to forces
     atom    1 type  1   force =    -1.24491467   -2.17367899    2.52689138
     atom    2 type  2   force =    -3.48416514    0.54692464  -37.43372304
     atom    3 type  2   force =    -0.16048474    0.08072373   36.95458532
     atom    4 type  1   force =    -0.77119059   -1.86591431    0.91553979
     atom    5 type  2   force =     0.76305276   -4.09016758  -37.65875993
     atom    6 type  2   force =    -0.37820047    0.14691756   38.73420008
     atom    7 type  1   force =     2.59688716    3.15537919   -1.40107746
     atom    8 type  2   force =     0.80457017   -0.15863171  -36.95145117
     atom    9 type  2   force =    -0.40407658   -0.00199083   38.28150097
     atom   10 type  1   force =    -0.28662818    2.15497368   -3.31473407
     atom   11 type  2   force =     0.46110980    3.15713485  -38.46393846
     atom   12 type  2   force =    -0.46106482   -0.35986424   38.39726866
     atom   13 type  1   force =     1.37842833   -1.39531233   -0.47459806
     atom   14 type  2   force =     6.00567047    1.79278124  -34.54891143
     atom   15 type  2   force =     0.10746855    0.16756108   37.82778484
     atom   16 type  1   force =     0.57503204   -5.38910903    1.27921250
     atom   17 type  2   force =    -0.11432606   -2.21981567  -37.36352631
     atom   18 type  2   force =     0.32179086    0.44442734   39.01220770
     atom   19 type  1   force =    -2.42633259    2.66642439    0.31367639
     atom   20 type  2   force =    -0.17099511    0.16879800   38.77040132
     atom   21 type  1   force =     1.13824647    2.05016182    1.64168841
     atom   22 type  2   force =     0.00402059    2.32654969  -37.96171113
     atom   23 type  2   force =     0.20145016   -0.45550867   38.65918775
     atom   24 type  1   force =    -0.75286899   -1.48939590   -3.99425446
     atom   25 type  2   force =    -0.43481357   -0.15786205  -38.77403350
     atom   26 type  2   force =     0.32817590   -0.01462872   37.77448570
     atom   27 type  1   force =     0.08306621   -1.00447322    3.28721883
     atom   28 type  2   force =    -0.56011746   -1.55695734  -37.71159625
     atom   29 type  2   force =     0.12585093    0.23027740   37.66841927
     atom   30 type  1   force =     0.09781235    1.09784229    0.90750365
     atom   31 type  2   force =    -1.18185246   -0.01832423  -36.93393840
     atom   32 type  2   force =     0.48864576   -0.00964020   38.85099244
     atom   33 type  1   force =    -0.59891727    1.51723927   -0.85722055
     atom   34 type  2   force =    -0.58579891    1.93361918  -38.92935355
     atom   35 type  2   force =     0.19455400   -0.28806415   38.15152835
     atom   36 type  3   force =    -0.64664344   -0.63996894  -46.45829618
     The core correction contribution to forces
     atom    1 type  1   force =     0.00000000    0.00000000    0.00000000
     atom    2 type  2   force =     0.00135173    0.00032008    0.02066033
     atom    3 type  2   force =     0.00112958   -0.00020829   -0.02087425
     atom    4 type  1   force =     0.00000000    0.00000000    0.00000000
     atom    5 type  2   force =    -0.00049618   -0.00114472    0.02087107
     atom    6 type  2   force =     0.00021717   -0.00021696   -0.02121678
     atom    7 type  1   force =     0.00000000    0.00000000    0.00000000
     atom    8 type  2   force =    -0.00015881    0.00044093    0.02038939
     atom    9 type  2   force =    -0.00005123    0.00037621   -0.02103778
     atom   10 type  1   force =     0.00000000    0.00000000    0.00000000
     atom   11 type  2   force =    -0.00063951   -0.00066795    0.02072105
     atom   12 type  2   force =     0.00144484    0.00132170   -0.02079164
     atom   13 type  1   force =     0.00000000    0.00000000    0.00000000
     atom   14 type  2   force =    -0.02589903   -0.00834900    0.00767342
     atom   15 type  2   force =     0.00044606    0.00040361   -0.02035397
     atom   16 type  1   force =     0.00000000    0.00000000    0.00000000
     atom   17 type  2   force =    -0.00027152    0.00176306    0.02027522
     atom   18 type  2   force =     0.00018004   -0.00023691   -0.02101771
     atom   19 type  1   force =     0.00000000    0.00000000    0.00000000
     atom   20 type  2   force =     0.00004972    0.00092799   -0.02121178
     atom   21 type  1   force =     0.00000000    0.00000000    0.00000000
     atom   22 type  2   force =     0.00057943   -0.00061424    0.02042473
     atom   23 type  2   force =    -0.00054153    0.00121838   -0.02081840
     atom   24 type  1   force =     0.00000000    0.00000000    0.00000000
     atom   25 type  2   force =     0.00109832   -0.00042701    0.02027399
     atom   26 type  2   force =    -0.00025531    0.00073388   -0.02082026
     atom   27 type  1   force =     0.00000000    0.00000000    0.00000000
     atom   28 type  2   force =    -0.00007851    0.00152636    0.02060790
     atom   29 type  2   force =    -0.00047186   -0.00095809   -0.02028413
     atom   30 type  1   force =     0.00000000    0.00000000    0.00000000
     atom   31 type  2   force =     0.00038111   -0.00008287    0.02049977
     atom   32 type  2   force =    -0.00017160    0.00057665   -0.02104818
     atom   33 type  1   force =     0.00000000    0.00000000    0.00000000
     atom   34 type  2   force =     0.00065452    0.00101379    0.02103684
     atom   35 type  2   force =    -0.00008643    0.00090242   -0.02106350
     atom   36 type  3   force =     0.01531121    0.00518783    0.01232238
     The Hubbard contrib.    to forces
     atom    1 type  1   force =     0.00000000    0.00000000    0.00000000
     atom    2 type  2   force =     0.00000000    0.00000000    0.00000000
     atom    3 type  2   force =     0.00000000    0.00000000    0.00000000
     atom    4 type  1   force =     0.00000000    0.00000000    0.00000000
     atom    5 type  2   force =     0.00000000    0.00000000    0.00000000
     atom    6 type  2   force =     0.00000000    0.00000000    0.00000000
     atom    7 type  1   force =     0.00000000    0.00000000    0.00000000
     atom    8 type  2   force =     0.00000000    0.00000000    0.00000000
     atom    9 type  2   force =     0.00000000    0.00000000    0.00000000
     atom   10 type  1   force =     0.00000000    0.00000000    0.00000000
     atom   11 type  2   force =     0.00000000    0.00000000    0.00000000
     atom   12 type  2   force =     0.00000000    0.00000000    0.00000000
     atom   13 type  1   force =     0.00000000    0.00000000    0.00000000
     atom   14 type  2   force =     0.00000000    0.00000000    0.00000000
     atom   15 type  2   force =     0.00000000    0.00000000    0.00000000
     atom   16 type  1   force =     0.00000000    0.00000000    0.00000000
     atom   17 type  2   force =     0.00000000    0.00000000    0.00000000
     atom   18 type  2   force =     0.00000000    0.00000000    0.00000000
     atom   19 type  1   force =     0.00000000    0.00000000    0.00000000
     atom   20 type  2   force =     0.00000000    0.00000000    0.00000000
     atom   21 type  1   force =     0.00000000    0.00000000    0.00000000
     atom   22 type  2   force =     0.00000000    0.00000000    0.00000000
     atom   23 type  2   force =     0.00000000    0.00000000    0.00000000
     atom   24 type  1   force =     0.00000000    0.00000000    0.00000000
     atom   25 type  2   force =     0.00000000    0.00000000    0.00000000
     atom   26 type  2   force =     0.00000000    0.00000000    0.00000000
     atom   27 type  1   force =     0.00000000    0.00000000    0.00000000
     atom   28 type  2   force =     0.00000000    0.00000000    0.00000000
     atom   29 type  2   force =     0.00000000    0.00000000    0.00000000
     atom   30 type  1   force =     0.00000000    0.00000000    0.00000000
     atom   31 type  2   force =     0.00000000    0.00000000    0.00000000
     atom   32 type  2   force =     0.00000000    0.00000000    0.00000000
     atom   33 type  1   force =     0.00000000    0.00000000    0.00000000
     atom   34 type  2   force =     0.00000000    0.00000000    0.00000000
     atom   35 type  2   force =     0.00000000    0.00000000    0.00000000
     atom   36 type  3   force =     0.00000000    0.00000000    0.00000000
     The SCF correction term to forces
     atom    1 type  1   force =    -0.00004597   -0.00000666    0.00026735
     atom    2 type  2   force =     0.00009940   -0.00001555    0.00026450
     atom    3 type  2   force =     0.00000403   -0.00001799   -0.00002048
     atom    4 type  1   force =     0.00006691    0.00016384    0.00050159
     atom    5 type  2   force =    -0.00000642    0.00015660    0.00032063
     atom    6 type  2   force =     0.00002731    0.00000148    0.00002791
     atom    7 type  1   force =     0.00005352   -0.00023685    0.00054716
     atom    8 type  2   force =    -0.00001428    0.00001725    0.00033376
     atom    9 type  2   force =    -0.00003607    0.00002281    0.00013925
     atom   10 type  1   force =     0.00006884   -0.00011390    0.00033081
     atom   11 type  2   force =     0.00004264   -0.00015930    0.00032615
     atom   12 type  2   force =     0.00006128   -0.00001244    0.00003090
     atom   13 type  1   force =     0.00005586   -0.00008220    0.00052400
     atom   14 type  2   force =    -0.00002644    0.00001487    0.00006474
     atom   15 type  2   force =     0.00004271   -0.00000813    0.00003653
     atom   16 type  1   force =     0.00008739    0.00028143    0.00047896
     atom   17 type  2   force =    -0.00003464    0.00010581    0.00036098
     atom   18 type  2   force =     0.00001092    0.00000614    0.00007969
     atom   19 type  1   force =     0.00007090   -0.00020185    0.00066305
     atom   20 type  2   force =     0.00010393   -0.00003427    0.00014049
     atom   21 type  1   force =     0.00000892    0.00011001    0.00039807
     atom   22 type  2   force =    -0.00004266   -0.00008239    0.00037070
     atom   23 type  2   force =    -0.00000571    0.00005601    0.00003484
     atom   24 type  1   force =    -0.00001367    0.00006883    0.00038124
     atom   25 type  2   force =    -0.00002658    0.00000605    0.00032855
     atom   26 type  2   force =    -0.00005866   -0.00001811    0.00001243
     atom   27 type  1   force =    -0.00010264    0.00003877    0.00062941
     atom   28 type  2   force =     0.00002861    0.00008679    0.00032605
     atom   29 type  2   force =    -0.00004465   -0.00002528    0.00009972
     atom   30 type  1   force =    -0.00011368   -0.00006714    0.00067574
     atom   31 type  2   force =    -0.00003578   -0.00001473    0.00039867
     atom   32 type  2   force =    -0.00006100   -0.00001956    0.00011833
     atom   33 type  1   force =    -0.00010323   -0.00004550    0.00047077
     atom   34 type  2   force =     0.00000784   -0.00010937    0.00034970
     atom   35 type  2   force =    -0.00005923    0.00002772    0.00004884
     atom   36 type  3   force =     0.00009666    0.00006261    0.00031963

     Total force =     0.223314     Total SCF correction =     0.002205

     BFGS Geometry Optimization
     Energy error            =      0.0E+00 Ry
     Gradient error          =      9.3E-02 Ry/Bohr

     number of scf cycles    =   1
     number of bfgs steps    =   0

     energy             new  =   -2246.1888493151 Ry

     new trust radius        =       0.1255984787 bohr
     new conv_thr            =       0.0000010000 Ry


ATOMIC_POSITIONS (angstrom)
Mo            6.5985399645        1.7912822188        2.8115181439
S             8.2217556488        0.8067652527        4.4092016358
S             8.1868081075        0.8170791885        1.2768287631
Mo            8.0948637335        4.5033137062        2.7192841978
S             6.4999379056        3.7368323618        4.3357023560
S             6.5550011608        3.5104342645        1.1206616442
Mo            6.4929891518        7.2102731653        2.6666484297
S             8.0829255554        6.3427677176        4.2531124797
S             8.0872195259        6.3072355292        1.0895134336
Mo            8.1559020799        9.9113250153        2.8324880254
S             6.4985543363        8.9416171775        4.3804686180
S             6.6162066499        9.0482707405        1.1421115442
Mo            3.4321096424        1.7695832237        2.7621108111
S             4.9257714438        0.7765460070        4.3691314655
S             5.0510410083        0.8490350393        1.2221895368
Mo            4.9771166102        4.5157694738        2.6335793085
S             3.4286746335        3.6720911958        4.2818601885
S             3.4338977887        3.5448530536        1.0651859333
Mo            3.4575281628        7.2106811900        2.6284706317
S             4.9851073820        6.3258154855        1.0375440158
Mo            5.0192006626        9.9023442808        2.7425037972
S             3.4686128676        8.9416822967        4.3242839310
S             3.4062156020        9.0658360066        1.0995753499
Mo            0.2994632512        1.7397448395        2.8354277748
S             1.8520099879        0.7989834911        4.4043437845
S             1.8550970687        0.8543939366        1.2069650672
Mo            1.8594380670        4.4966931016        2.6611225972
S             0.2728990318        3.6537729400        4.3361574749
S             0.2332859382        3.5270685620        1.1689812055
Mo            0.2691584409        7.2218840303        2.6984258419
S             1.9026335689        6.3135337611        4.2317801515
S             1.8580442486        6.3136876116        1.0492804395
Mo            1.8510411133        9.9389438489        2.7696688377
S             0.2976932286        9.0679515627        4.4093678166
S             0.2730271281        9.0458183079        1.1572056308
O             6.2770829819        1.2213590491        5.1580467138



     Writing config-only to output data dir ./MoS2-V-O.save/
     NEW-OLD atomic charge density approx. for the potential

     negative rho (up, down):  1.611E-04 0.000E+00

     total cpu time spent up to now is      108.8 secs

     Self-consistent Calculation

     iteration #  1     ecut=    80.00 Ry     beta= 0.70
     Davidson diagonalization with overlap
     ethr =  1.00E-06,  avg # of iterations = 15.0

     negative rho (up, down):  5.605E-04 0.000E+00

     total cpu time spent up to now is      122.1 secs

     total energy              =   -2246.22761178 Ry
     estimated scf accuracy    <       0.01087734 Ry

     iteration #  2     ecut=    80.00 Ry     beta= 0.70
     Davidson diagonalization with overlap
     ethr =  3.49E-06,  avg # of iterations =  5.0

     negative rho (up, down):  8.478E-04 0.000E+00

     total cpu time spent up to now is      141.6 secs

     total energy              =   -2246.22847494 Ry
     estimated scf accuracy    <       0.00258301 Ry

     iteration #  3     ecut=    80.00 Ry     beta= 0.70
     Davidson diagonalization with overlap
     ethr =  8.28E-07,  avg # of iterations =  4.0

     negative rho (up, down):  1.229E-03 0.000E+00

     total cpu time spent up to now is      155.1 secs

     total energy              =   -2246.22873754 Ry
     estimated scf accuracy    <       0.00091451 Ry

     iteration #  4     ecut=    80.00 Ry     beta= 0.70
     Davidson diagonalization with overlap
     ethr =  2.93E-07,  avg # of iterations =  2.0

     negative rho (up, down):  1.356E-03 0.000E+00

     total cpu time spent up to now is      167.0 secs

     total energy              =   -2246.22877645 Ry
     estimated scf accuracy    <       0.00013908 Ry

     iteration #  5     ecut=    80.00 Ry     beta= 0.70
     Davidson diagonalization with overlap
     ethr =  4.46E-08,  avg # of iterations =  5.0

     negative rho (up, down):  1.267E-03 0.000E+00

     total cpu time spent up to now is      178.4 secs

     total energy              =   -2246.22879196 Ry
     estimated scf accuracy    <       0.00002978 Ry

     iteration #  6     ecut=    80.00 Ry     beta= 0.70
     Davidson diagonalization with overlap
     ethr =  9.54E-09,  avg # of iterations =  5.0

     negative rho (up, down):  1.081E-03 0.000E+00

     total cpu time spent up to now is      190.7 secs

     total energy              =   -2246.22879500 Ry
     estimated scf accuracy    <       0.00000729 Ry

     iteration #  7     ecut=    80.00 Ry     beta= 0.70
     Davidson diagonalization with overlap
     ethr =  2.34E-09,  avg # of iterations = 14.0

     negative rho (up, down):  8.490E-04 0.000E+00

     total cpu time spent up to now is      200.8 secs

     total energy              =   -2246.22879551 Ry
     estimated scf accuracy    <       0.00000201 Ry

     iteration #  8     ecut=    80.00 Ry     beta= 0.70
     Davidson diagonalization with overlap
     ethr =  6.45E-10,  avg # of iterations =  2.0

     negative rho (up, down):  1.868E-04 0.000E+00

     total cpu time spent up to now is      204.1 secs

     End of self-consistent calculation

          k = 0.0000 0.0000 0.0000 (105382 PWs)   bands (ev):

   -63.1447 -62.9183 -62.9009 -62.8852 -62.8730 -62.8720 -62.8391 -62.8271
   -62.8203 -62.8062 -62.7945 -62.7889 -37.4392 -37.3538 -37.2547 -37.2115
   -37.1832 -37.1797 -37.1485 -37.1347 -37.1245 -37.1181 -37.1094 -37.0873
   -37.0811 -37.0781 -37.0725 -37.0560 -37.0434 -37.0395 -37.0205 -37.0065
   -36.9981 -36.9851 -36.9841 -36.9760 -36.9689 -36.9603 -36.9466 -36.9427
   -36.9247 -36.9168 -36.9118 -36.8954 -36.8718 -36.8453 -36.7931 -36.7561
   -21.9584 -15.9611 -15.2350 -15.1774 -15.1068 -14.9889 -14.7408 -14.6879
   -14.5523 -14.5019 -14.4685 -14.4310 -14.4021 -14.3415 -14.2347 -14.2111
   -14.1804 -14.1376 -14.1218 -13.9286 -13.9057 -13.8575 -13.8386 -13.5973
    -8.5036  -7.9532  -7.7092  -7.4938  -7.3834  -7.3158  -7.2857  -7.1948
    -7.1378  -6.9848  -6.9199  -6.8397  -6.7719  -6.7365  -6.6998  -6.6049
    -6.4796  -6.4568  -6.4250  -6.2839  -6.1796  -6.0186  -5.9865  -5.8796
    -5.8670  -5.8422  -5.7707  -5.7299  -5.6975  -5.6607  -5.6537  -5.5533
    -5.5193  -5.4685  -5.4518  -5.3165  -5.2238  -5.2014  -5.1228  -5.0651
    -5.0224  -4.9792  -4.9241  -4.8379  -4.7320  -4.5446  -4.4507  -4.3866
    -4.3275  -4.2580  -4.2332  -4.1534  -4.0752  -3.9622  -3.8826  -3.8360
    -3.7191  -3.7096  -3.6586  -3.6364  -3.5997  -3.5570  -3.5330  -3.5109
    -3.4859  -3.4389  -3.3931  -3.2695  -3.0874  -3.0425  -2.9323  -2.9031
    -2.8771  -2.7771  -2.7388  -2.7243  -2.6718  -2.6061  -2.4837  -2.3012
    -2.0839  -2.0232  -1.9265  -1.2519  -0.8949  -0.8331  -0.7420  -0.2479
    -0.1669  -0.1465  -0.0196   0.0199   0.0836   0.1398   0.2111   0.2305
     0.2893   0.2970   0.4172   0.4811   0.5076   0.5269   0.5372   0.5796
     0.6237   0.6856   0.7032   0.7430   0.7747   0.8305   0.9088   0.9490
     1.0273   1.1148   1.2594

     the Fermi energy is    -1.0773 ev

!    total energy              =   -2246.22879374 Ry
     estimated scf accuracy    <       0.00000083 Ry
     smearing contrib. (-TS)   =      -0.00226168 Ry
     internal energy E=F+TS    =   -2246.22653206 Ry

     The total energy is F=E-TS. E is the sum of the following terms:
     one-electron contribution =  -18495.50120891 Ry
     hartree contribution      =    9236.09775295 Ry
     xc contribution           =    -392.13014220 Ry
     ewald contribution        =    7415.17228151 Ry
     one-center paw contrib.   =      -9.86521541 Ry

     convergence has been achieved in   8 iterations

     negative rho (up, down):  1.868E-04 0.000E+00

     Forces acting on atoms (cartesian axes, Ry/au):

     atom    1 type  1   force =     0.02276680   -0.00454892    0.01564396
     atom    2 type  2   force =     0.05079142    0.00362228   -0.03426958
     atom    3 type  2   force =    -0.00801418    0.00936660   -0.01390693
     atom    4 type  1   force =     0.00201492    0.01076679    0.00057799
     atom    5 type  2   force =     0.00129673    0.01553813   -0.01742283
     atom    6 type  2   force =     0.00359263    0.00233155   -0.00343416
     atom    7 type  1   force =     0.00600897   -0.00979292   -0.00193552
     atom    8 type  2   force =     0.00247857    0.00042241    0.01511206
     atom    9 type  2   force =     0.01090262    0.00411372    0.00575560
     atom   10 type  1   force =    -0.00193279    0.00561832   -0.01302685
     atom   11 type  2   force =     0.00723162   -0.00113619   -0.00693374
     atom   12 type  2   force =    -0.00309285   -0.00105844   -0.00009752
     atom   13 type  1   force =     0.01384778    0.02543886   -0.01267519
     atom   14 type  2   force =    -0.03996729   -0.04662858    0.05858920
     atom   15 type  2   force =    -0.00408053    0.00632253   -0.00655781
     atom   16 type  1   force =    -0.00331288    0.00297425   -0.00192140
     atom   17 type  2   force =     0.00235552    0.00218245    0.00368416
     atom   18 type  2   force =    -0.00689010   -0.00112230    0.00631026
     atom   19 type  1   force =     0.00380894   -0.00784361    0.00026979
     atom   20 type  2   force =     0.00292650   -0.00300528   -0.00317095
     atom   21 type  1   force =     0.00703308   -0.00369814   -0.00452873
     atom   22 type  2   force =    -0.00210934   -0.00461293   -0.00429250
     atom   23 type  2   force =    -0.00111874    0.00049163    0.00440431
     atom   24 type  1   force =     0.01158069   -0.00519962   -0.01761977
     atom   25 type  2   force =     0.00364742    0.01183311    0.00047187
     atom   26 type  2   force =    -0.00319917   -0.00153907   -0.00742294
     atom   27 type  1   force =    -0.00061638    0.00232080    0.00418542
     atom   28 type  2   force =     0.00026562   -0.00315660   -0.00528696
     atom   29 type  2   force =     0.00210115    0.00209051   -0.00596020
     atom   30 type  1   force =    -0.00169990    0.00305603    0.00225132
     atom   31 type  2   force =     0.00012917    0.00156233    0.01163255
     atom   32 type  2   force =    -0.00643233    0.00536016    0.00629627
     atom   33 type  1   force =     0.00779736    0.00034263    0.00165437
     atom   34 type  2   force =     0.00113223   -0.03153824   -0.01269629
     atom   35 type  2   force =    -0.00524793    0.00613009    0.00726003
     atom   36 type  3   force =    -0.07599534    0.00299566    0.02906072
     The non-local contrib.  to forces
     atom    1 type  1   force =     0.02506770    0.02189955   -0.04051933
     atom    2 type  2   force =    -0.02408497   -0.01599722   -0.26743032
     atom    3 type  2   force =    -0.01825747    0.00308802    0.26363338
     atom    4 type  1   force =     0.00082552    0.00486338    0.00057560
     atom    5 type  2   force =     0.00361642    0.01363281   -0.25684444
     atom    6 type  2   force =     0.00203740   -0.00137102    0.27032062
     atom    7 type  1   force =    -0.01844198    0.00158491   -0.02460678
     atom    8 type  2   force =     0.00546617   -0.00225167   -0.25740965
     atom    9 type  2   force =     0.00457693   -0.00576092    0.27473287
     atom   10 type  1   force =     0.01173000   -0.00295871   -0.00228610
     atom   11 type  2   force =     0.01490888    0.00506629   -0.26369204
     atom   12 type  2   force =    -0.01731555   -0.01810569    0.25985871
     atom   13 type  1   force =     0.00252993    0.01804256    0.00239504
     atom   14 type  2   force =     0.51063048    0.17997768   -0.07164375
     atom   15 type  2   force =    -0.00225912   -0.00546870    0.25853306
     atom   16 type  1   force =     0.00325704    0.03517890   -0.03151861
     atom   17 type  2   force =     0.00784257   -0.02780014   -0.25190614
     atom   18 type  2   force =    -0.00659208   -0.00653625    0.27067928
     atom   19 type  1   force =     0.01069390    0.00055058   -0.01830125
     atom   20 type  2   force =     0.00122931   -0.02305265    0.26459010
     atom   21 type  1   force =    -0.00692577    0.03852163    0.00487648
     atom   22 type  2   force =    -0.01653097    0.00396748   -0.25805166
     atom   23 type  2   force =     0.00966466   -0.01618606    0.26672297
     atom   24 type  1   force =    -0.00544753    0.00123768   -0.00098314
     atom   25 type  2   force =    -0.01898346    0.00137622   -0.25913587
     atom   26 type  2   force =     0.00615749   -0.01247529    0.26318351
     atom   27 type  1   force =    -0.00409058    0.00736530    0.00775849
     atom   28 type  2   force =     0.00277798   -0.01879393   -0.27008416
     atom   29 type  2   force =     0.00353034    0.00989832    0.25866435
     atom   30 type  1   force =     0.00124488    0.01780668    0.00893177
     atom   31 type  2   force =    -0.00671958    0.00395241   -0.25751229
     atom   32 type  2   force =    -0.00072125   -0.00931466    0.27322614
     atom   33 type  1   force =    -0.01476467   -0.00148611    0.00077401
     atom   34 type  2   force =    -0.00758202   -0.02588337   -0.27610176
     atom   35 type  2   force =    -0.00117041   -0.00844864    0.26835518
     atom   36 type  3   force =    -1.39999359   -0.48365184   -1.17219039
     The ionic contribution  to forces
     atom    1 type  1   force =     0.58945951    1.80303760   -1.87242338
     atom    2 type  2   force =     2.93447750   -0.44058420   37.63739392
     atom    3 type  2   force =     0.17158841   -0.12459593  -37.34325448
     atom    4 type  1   force =     0.86525053    1.69222907   -0.72511934
     atom    5 type  2   force =    -0.80838189    3.76538462   37.79807293
     atom    6 type  2   force =     0.33059129   -0.08821946  -38.95969017
     atom    7 type  1   force =    -2.60543947   -2.89626042    1.31535738
     atom    8 type  2   force =    -0.79569004    0.21572763   37.37855562
     atom    9 type  2   force =     0.41854182   -0.00078621  -38.53971215
     atom   10 type  1   force =     0.20116944   -2.26839298    3.10142977
     atom   11 type  2   force =    -0.41646522   -3.09246230   38.65769505
     atom   12 type  2   force =     0.42150805    0.34162235  -38.60325195
     atom   13 type  1   force =    -1.19488639    0.97701489    0.01303942
     atom   14 type  2   force =    -5.79799592   -1.79600778   34.82656616
     atom   15 type  2   force =    -0.07065745   -0.20578944  -37.94075060
     atom   16 type  1   force =    -0.48519536    5.19762102   -1.11876934
     atom   17 type  2   force =     0.13363750    2.19813420   37.70811084
     atom   18 type  2   force =    -0.30447010   -0.32446701  -39.28600443
     atom   19 type  1   force =     2.38043455   -2.50899693   -0.31004968
     atom   20 type  2   force =     0.15148687   -0.13530551  -39.07429593
     atom   21 type  1   force =    -1.11069568   -1.88891732   -1.59246165
     atom   22 type  2   force =     0.03593086   -2.33756903   38.13331668
     atom   23 type  2   force =    -0.16390679    0.46952069  -38.82210243
     atom   24 type  1   force =     1.00180366    1.67032464    3.43578014
     atom   25 type  2   force =     0.49636160    0.17110077   38.96398566
     atom   26 type  2   force =    -0.20443671   -0.04574763  -37.98663009
     atom   27 type  1   force =    -0.19765079    1.06880899   -3.10025823
     atom   28 type  2   force =     0.51562965    1.46009966   37.92459149
     atom   29 type  2   force =    -0.15527692   -0.17171219  -37.89900569
     atom   30 type  1   force =    -0.01704710   -1.14758189   -0.95706972
     atom   31 type  2   force =     1.17677329    0.03455168   37.26016293
     atom   32 type  2   force =    -0.47362839    0.02774987  -39.04495073
     atom   33 type  1   force =     0.67916783   -1.34666637    0.92535211
     atom   34 type  2   force =     0.52764272   -1.78854933   39.09422726
     atom   35 type  2   force =    -0.15331275    0.31271432  -38.31845220
     atom   36 type  3   force =     1.92368190    1.20296993   47.32061482
     The local contribution  to forces
     atom    1 type  1   force =    -0.59188507   -1.82933115    1.92912036
     atom    2 type  2   force =    -2.85927083    0.45916837  -37.42493459
     atom    3 type  2   force =    -0.16220105    0.13111498   37.08656679
     atom    4 type  1   force =    -0.86376551   -1.68605440    0.72586650
     atom    5 type  2   force =     0.80656572   -3.76243903  -37.57904359
     atom    6 type  2   force =    -0.32917587    0.09230037   38.70717241
     atom    7 type  1   force =     2.62996131    2.88497821   -1.29172287
     atom    8 type  2   force =     0.79296333   -0.21341820  -37.12604366
     atom    9 type  2   force =    -0.41218522    0.01036463   38.29184491
     atom   10 type  1   force =    -0.21445827    2.27641833   -3.11126078
     atom   11 type  2   force =     0.40944250    3.08670600  -38.42126832
     atom   12 type  2   force =    -0.40863636   -0.32596810   38.36418422
     atom   13 type  1   force =     1.20565239   -0.96985745   -0.02734137
     atom   14 type  2   force =     5.27519804    1.57933827  -34.70436910
     atom   15 type  2   force =     0.06848109    0.21722422   37.69612200
     atom   16 type  1   force =     0.47848871   -5.22955138    1.14899730
     atom   17 type  2   force =    -0.13889906   -2.16961530  -37.47240505
     atom   18 type  2   force =     0.30398686    0.33015861   39.04274257
     atom   19 type  1   force =    -2.38753384    2.50066922    0.32954144
     atom   20 type  2   force =    -0.14987874    0.15438740   38.82782484
     atom   21 type  1   force =     1.12429125    1.84634811    1.58377960
     atom   22 type  2   force =    -0.02224364    2.32944120  -37.89959276
     atom   23 type  2   force =     0.15371365   -0.45411626   38.58080229
     atom   24 type  1   force =    -0.98421256   -1.67674305   -3.45150804
     atom   25 type  2   force =    -0.47510091   -0.16052283  -38.72439331
     atom   26 type  2   force =     0.19561432    0.05601125   37.73708777
     atom   27 type  1   force =     0.20099517   -1.07368061    3.09756285
     atom   28 type  2   force =    -0.51794098   -1.44586524  -37.67998826
     atom   29 type  2   force =     0.15433250    0.16491117   37.65480788
     atom   30 type  1   force =     0.01422824    1.13287362    0.95142903
     atom   31 type  2   force =    -1.17034639   -0.03681530  -37.01120661
     atom   32 type  2   force =     0.46813821   -0.01361550   38.79922881
     atom   33 type  1   force =    -0.65661393    1.34850965   -0.92343866
     atom   34 type  2   force =    -0.51955297    1.78211041  -38.85158762
     atom   35 type  2   force =     0.14935419   -0.29902619   38.07858308
     atom   36 type  3   force =    -0.61538674   -0.72165541  -46.13099083
     The core correction contribution to forces
     atom    1 type  1   force =     0.00000000    0.00000000    0.00000000
     atom    2 type  2   force =    -0.00006444    0.00091625    0.02126148
     atom    3 type  2   force =     0.00099487   -0.00031532   -0.02079094
     atom    4 type  1   force =     0.00000000    0.00000000    0.00000000
     atom    5 type  2   force =    -0.00050711   -0.00080721    0.02094779
     atom    6 type  2   force =     0.00008628   -0.00025221   -0.02121976
     atom    7 type  1   force =     0.00000000    0.00000000    0.00000000
     atom    8 type  2   force =    -0.00018600    0.00047094    0.02053405
     atom    9 type  2   force =     0.00002780    0.00032625   -0.02099605
     atom   10 type  1   force =     0.00000000    0.00000000    0.00000000
     atom   11 type  2   force =    -0.00060520   -0.00062598    0.02083874
     atom   12 type  2   force =     0.00137295    0.00132108   -0.02074813
     atom   13 type  1   force =     0.00000000    0.00000000    0.00000000
     atom   14 type  2   force =    -0.02803614   -0.01006021    0.00849440
     atom   15 type  2   force =     0.00021252    0.00029277   -0.02039943
     atom   16 type  1   force =     0.00000000    0.00000000    0.00000000
     atom   17 type  2   force =    -0.00036481    0.00155397    0.02039276
     atom   18 type  2   force =     0.00015857   -0.00021740   -0.02103032
     atom   19 type  1   force =     0.00000000    0.00000000    0.00000000
     atom   20 type  2   force =     0.00005488    0.00094191   -0.02118302
     atom   21 type  1   force =     0.00000000    0.00000000    0.00000000
     atom   22 type  2   force =     0.00062247   -0.00050783    0.02051411
     atom   23 type  2   force =    -0.00063560    0.00126256   -0.02084380
     atom   24 type  1   force =     0.00000000    0.00000000    0.00000000
     atom   25 type  2   force =     0.00132081   -0.00016822    0.02046363
     atom   26 type  2   force =    -0.00052273    0.00064205   -0.02083567
     atom   27 type  1   force =     0.00000000    0.00000000    0.00000000
     atom   28 type  2   force =    -0.00008120    0.00143585    0.02068023
     atom   29 type  2   force =    -0.00041767   -0.00096717   -0.02026706
     atom   30 type  1   force =     0.00000000    0.00000000    0.00000000
     atom   31 type  2   force =     0.00037016   -0.00005712    0.02063146
     atom   32 type  2   force =    -0.00025418    0.00055189   -0.02102176
     atom   33 type  1   force =     0.00000000    0.00000000    0.00000000
     atom   34 type  2   force =     0.00066785    0.00072445    0.02121752
     atom   35 type  2   force =    -0.00009064    0.00084381   -0.02100078
     atom   36 type  3   force =     0.01581751    0.00529129    0.01230928
     The Hubbard contrib.    to forces
     atom    1 type  1   force =     0.00000000    0.00000000    0.00000000
     atom    2 type  2   force =     0.00000000    0.00000000    0.00000000
     atom    3 type  2   force =     0.00000000    0.00000000    0.00000000
     atom    4 type  1   force =     0.00000000    0.00000000    0.00000000
     atom    5 type  2   force =     0.00000000    0.00000000    0.00000000
     atom    6 type  2   force =     0.00000000    0.00000000    0.00000000
     atom    7 type  1   force =     0.00000000    0.00000000    0.00000000
     atom    8 type  2   force =     0.00000000    0.00000000    0.00000000
     atom    9 type  2   force =     0.00000000    0.00000000    0.00000000
     atom   10 type  1   force =     0.00000000    0.00000000    0.00000000
     atom   11 type  2   force =     0.00000000    0.00000000    0.00000000
     atom   12 type  2   force =     0.00000000    0.00000000    0.00000000
     atom   13 type  1   force =     0.00000000    0.00000000    0.00000000
     atom   14 type  2   force =     0.00000000    0.00000000    0.00000000
     atom   15 type  2   force =     0.00000000    0.00000000    0.00000000
     atom   16 type  1   force =     0.00000000    0.00000000    0.00000000
     atom   17 type  2   force =     0.00000000    0.00000000    0.00000000
     atom   18 type  2   force =     0.00000000    0.00000000    0.00000000
     atom   19 type  1   force =     0.00000000    0.00000000    0.00000000
     atom   20 type  2   force =     0.00000000    0.00000000    0.00000000
     atom   21 type  1   force =     0.00000000    0.00000000    0.00000000
     atom   22 type  2   force =     0.00000000    0.00000000    0.00000000
     atom   23 type  2   force =     0.00000000    0.00000000    0.00000000
     atom   24 type  1   force =     0.00000000    0.00000000    0.00000000
     atom   25 type  2   force =     0.00000000    0.00000000    0.00000000
     atom   26 type  2   force =     0.00000000    0.00000000    0.00000000
     atom   27 type  1   force =     0.00000000    0.00000000    0.00000000
     atom   28 type  2   force =     0.00000000    0.00000000    0.00000000
     atom   29 type  2   force =     0.00000000    0.00000000    0.00000000
     atom   30 type  1   force =     0.00000000    0.00000000    0.00000000
     atom   31 type  2   force =     0.00000000    0.00000000    0.00000000
     atom   32 type  2   force =     0.00000000    0.00000000    0.00000000
     atom   33 type  1   force =     0.00000000    0.00000000    0.00000000
     atom   34 type  2   force =     0.00000000    0.00000000    0.00000000
     atom   35 type  2   force =     0.00000000    0.00000000    0.00000000
     atom   36 type  3   force =     0.00000000    0.00000000    0.00000000
     The SCF correction term to forces
     atom    1 type  1   force =     0.00012139   -0.00015688   -0.00051110
     atom    2 type  2   force =    -0.00026910    0.00011715   -0.00053748
     atom    3 type  2   force =    -0.00014220    0.00007291   -0.00003909
     atom    4 type  1   force =    -0.00029888   -0.00027321   -0.00072219
     atom    5 type  2   force =     0.00000031   -0.00023499   -0.00053293
     atom    6 type  2   force =     0.00005026   -0.00012807    0.00000532
     atom    7 type  1   force =    -0.00007416   -0.00009756   -0.00094067
     atom    8 type  2   force =    -0.00007816   -0.00010825   -0.00050171
     atom    9 type  2   force =    -0.00006198   -0.00003198   -0.00009139
     atom   10 type  1   force =    -0.00037723    0.00054974   -0.00088716
     atom   11 type  2   force =    -0.00005261    0.00017785   -0.00048459
     atom   12 type  2   force =    -0.00002521    0.00006997   -0.00011779
     atom   13 type  1   force =     0.00054859    0.00023691   -0.00074569
     atom   14 type  2   force =     0.00023299    0.00012151   -0.00043592
     atom   15 type  2   force =     0.00013917    0.00006174   -0.00004026
     atom   16 type  1   force =     0.00013346   -0.00027623   -0.00060817
     atom   17 type  2   force =     0.00013605   -0.00009222   -0.00048567
     atom   18 type  2   force =     0.00002339   -0.00006220   -0.00005426
     atom   19 type  1   force =     0.00021106   -0.00006842   -0.00089813
     atom   20 type  2   force =     0.00003092    0.00002162   -0.00008435
     atom   21 type  1   force =     0.00036002    0.00034750   -0.00070057
     atom   22 type  2   force =     0.00010869    0.00005330   -0.00045629
     atom   23 type  2   force =     0.00004207    0.00000874   -0.00015212
     atom   24 type  1   force =    -0.00056614   -0.00002084   -0.00088615
     atom   25 type  2   force =     0.00004611    0.00004522   -0.00042565
     atom   26 type  2   force =    -0.00001482    0.00002860   -0.00020588
     atom   27 type  1   force =     0.00012656   -0.00017483   -0.00085510
     atom   28 type  2   force =    -0.00012309   -0.00003490   -0.00046368
     atom   29 type  2   force =    -0.00007036   -0.00004157   -0.00013709
     atom   30 type  1   force =    -0.00012919   -0.00004433   -0.00101717
     atom   31 type  2   force =     0.00004842   -0.00007130   -0.00042034
     atom   32 type  2   force =     0.00003001   -0.00001339   -0.00016360
     atom   33 type  1   force =     0.00000485   -0.00001649   -0.00101051
     atom   34 type  2   force =    -0.00004662    0.00005766   -0.00042910
     atom   35 type  2   force =    -0.00003159    0.00004485   -0.00020267
     atom   36 type  3   force =    -0.00011769    0.00003975   -0.00065957

     Total force =     0.155476     Total SCF correction =     0.003684
     Energy error            =      4.0E-02 Ry
     Gradient error          =      7.6E-02 Ry/Bohr

     number of scf cycles    =   2
     number of bfgs steps    =   1

     energy             old  =   -2246.1888493151 Ry
     energy             new  =   -2246.2287937389 Ry

     CASE: energy            _new < energy            _old

     new trust radius        =       0.1381583266 bohr
     new conv_thr            =       0.0000000760 Ry


ATOMIC_POSITIONS (angstrom)
Mo            6.6208684326        1.7897432284        2.8167504498
S             8.2685733766        0.8079303638        4.3794000625
S             8.1796621791        0.8248402443        1.2679957429
Mo            8.0959839156        4.5127815135        2.7201538085
S             6.5007368973        3.7513811288        4.3212306513
S             6.5577703138        3.5113921087        1.1183538671
Mo            6.4977075076        7.2014305510        2.6636206134
S             8.0848566910        6.3426348106        4.2660697996
S             8.0960791419        6.3106333146        1.0950116371
Mo            8.1530593619        9.9179744876        2.8206851695
S             6.5041505319        8.9404631682        4.3753186144
S             6.6137100238        9.0474711784        1.1428311596
Mo            3.4442268298        1.7930551667        2.7493251128
S             4.8840021868        0.7339043803        4.4113467203
S             5.0461581604        0.8538612751        1.2166208326
Mo            4.9741682508        4.5184946525        2.6326559352
S             3.4304019812        3.6735925868        4.2848614464
S             3.4282845894        3.5429774000        1.0714399068
Mo            3.4611409930        7.2039152432        2.6278551108
S             4.9875496828        6.3235925561        1.0357175437
Mo            5.0259305864        9.9003575093        2.7394316867
S             3.4665008749        8.9381448657        4.3212105698
S             3.4047527747        9.0664340633        1.1034940609
Mo            0.3077002738        1.7338377184        2.8197553842
S             1.8547758643        0.8084047940        4.4067986256
S             1.8511355095        0.8534463380        1.2015885338
Mo            1.8586202149        4.4984676578        2.6639957660
S             0.2733027556        3.6516314336        4.3324369912
S             0.2352902869        3.5282764838        1.1642821913
Mo            0.2674197571        7.2255941740        2.6986396673
S             1.9028518478        6.3147439194        4.2421560473
S             1.8526490457        6.3181301255        1.0547791699
Mo            1.8581503691        9.9387298877        2.7695170939
S             0.2990111650        9.0409744019        4.4000531889
S             0.2685113688        9.0503577317        1.1640270123
O             6.2211599369        1.2256681701        5.1913374030



     Writing config-only to output data dir ./MoS2-V-O.save/
     NEW-OLD atomic charge density approx. for the potential

     negative rho (up, down):  1.708E-04 0.000E+00

     total cpu time spent up to now is      211.6 secs

     Self-consistent Calculation

     iteration #  1     ecut=    80.00 Ry     beta= 0.70
     Davidson diagonalization with overlap
     ethr =  1.00E-06,  avg # of iterations = 15.0

     negative rho (up, down):  3.131E-04 0.000E+00

     total cpu time spent up to now is      230.4 secs

     total energy              =   -2246.25846365 Ry
     estimated scf accuracy    <       0.00959954 Ry

     iteration #  2     ecut=    80.00 Ry     beta= 0.70
     Davidson diagonalization with overlap
     ethr =  3.08E-06,  avg # of iterations =  5.0

     negative rho (up, down):  4.059E-04 0.000E+00

     total cpu time spent up to now is      245.9 secs

     total energy              =   -2246.25976191 Ry
     estimated scf accuracy    <       0.00333045 Ry

     iteration #  3     ecut=    80.00 Ry     beta= 0.70
     Davidson diagonalization with overlap
     ethr =  1.07E-06,  avg # of iterations =  4.0

     negative rho (up, down):  5.587E-04 0.000E+00

     total cpu time spent up to now is      263.2 secs

     total energy              =   -2246.26013616 Ry
     estimated scf accuracy    <       0.00041219 Ry

     iteration #  4     ecut=    80.00 Ry     beta= 0.70
     Davidson diagonalization with overlap
     ethr =  1.32E-07,  avg # of iterations =  2.0

     negative rho (up, down):  6.101E-04 0.000E+00

     total cpu time spent up to now is      275.6 secs

     total energy              =   -2246.26016286 Ry
     estimated scf accuracy    <       0.00006245 Ry

     iteration #  5     ecut=    80.00 Ry     beta= 0.70
     Davidson diagonalization with overlap
     c_bands:  1 eigenvalues not converged
     ethr =  2.00E-08,  avg # of iterations = 20.0

     negative rho (up, down):  5.820E-04 0.000E+00

     total cpu time spent up to now is      288.7 secs

     total energy              =   -2246.26017278 Ry
     estimated scf accuracy    <       0.00001790 Ry

     iteration #  6     ecut=    80.00 Ry     beta= 0.70
     Davidson diagonalization with overlap
     ethr =  5.74E-09,  avg # of iterations =  4.0

     negative rho (up, down):  5.241E-04 0.000E+00

     total cpu time spent up to now is      298.7 secs

     total energy              =   -2246.26017473 Ry
     estimated scf accuracy    <       0.00000285 Ry

     iteration #  7     ecut=    80.00 Ry     beta= 0.70
     Davidson diagonalization with overlap
     ethr =  9.14E-10,  avg # of iterations =  5.0

     negative rho (up, down):  4.463E-04 0.000E+00

     total cpu time spent up to now is      309.6 secs

     total energy              =   -2246.26017513 Ry
     estimated scf accuracy    <       0.00000070 Ry

     iteration #  8     ecut=    80.00 Ry     beta= 0.70
     Davidson diagonalization with overlap
     ethr =  2.23E-10,  avg # of iterations =  3.0

     negative rho (up, down):  3.580E-04 0.000E+00

     total cpu time spent up to now is      322.2 secs

     total energy              =   -2246.26017520 Ry
     estimated scf accuracy    <       0.00000030 Ry

     iteration #  9     ecut=    80.00 Ry     beta= 0.70
     Davidson diagonalization with overlap
     ethr =  9.56E-11,  avg # of iterations =  5.0

     negative rho (up, down):  2.984E-04 0.000E+00

     total cpu time spent up to now is      336.4 secs

     total energy              =   -2246.26017521 Ry
     estimated scf accuracy    <       0.00000011 Ry

     iteration # 10     ecut=    80.00 Ry     beta= 0.70
     Davidson diagonalization with overlap
     ethr =  3.38E-11,  avg # of iterations =  5.0

     negative rho (up, down):  1.855E-04 0.000E+00

     total cpu time spent up to now is      339.9 secs

     End of self-consistent calculation

          k = 0.0000 0.0000 0.0000 (105382 PWs)   bands (ev):

   -63.1754 -62.9173 -62.9064 -62.9013 -62.8966 -62.8944 -62.8526 -62.8415
   -62.8368 -62.8311 -62.8197 -62.8164 -37.4519 -37.3899 -37.2661 -37.2270
   -37.1985 -37.1970 -37.1624 -37.1418 -37.1384 -37.1296 -37.1237 -37.1020
   -37.0965 -37.0929 -37.0855 -37.0731 -37.0648 -37.0456 -37.0361 -37.0324
   -37.0245 -37.0141 -37.0047 -36.9961 -36.9902 -36.9780 -36.9644 -36.9614
   -36.9421 -36.9394 -36.9244 -36.9182 -36.8963 -36.8619 -36.8114 -36.7809
   -21.7050 -15.9853 -15.2573 -15.1610 -15.0815 -14.9923 -14.7587 -14.6210
   -14.5670 -14.5222 -14.4993 -14.4460 -14.4254 -14.3545 -14.2515 -14.2154
   -14.2035 -14.1574 -14.1365 -13.9398 -13.9323 -13.8760 -13.8441 -13.5334
    -8.2444  -7.8845  -7.6269  -7.4956  -7.3822  -7.3301  -7.2984  -7.1995
    -7.1531  -6.9822  -6.9199  -6.8589  -6.7989  -6.7437  -6.6778  -6.6279
    -6.5002  -6.4629  -6.4260  -6.2939  -6.1715  -6.0284  -6.0121  -5.8919
    -5.8867  -5.8543  -5.7978  -5.7456  -5.7159  -5.6760  -5.6716  -5.5635
    -5.5340  -5.4828  -5.4650  -5.3416  -5.2339  -5.1961  -5.1314  -5.0837
    -5.0469  -4.9640  -4.9398  -4.8462  -4.7706  -4.5568  -4.4256  -4.4156
    -4.3333  -4.2838  -4.2287  -4.1612  -4.1214  -3.9707  -3.8794  -3.8435
    -3.7314  -3.7247  -3.6718  -3.6384  -3.5995  -3.5616  -3.5481  -3.5280
    -3.5025  -3.4476  -3.4174  -3.2681  -3.0808  -3.0486  -2.9489  -2.9268
    -2.8986  -2.7971  -2.7673  -2.7316  -2.6947  -2.6174  -2.4766  -2.3210
    -2.1003  -2.0680  -1.9539  -1.3572  -0.8511  -0.8400  -0.7550  -0.2545
    -0.1933  -0.1683  -0.0319   0.0155   0.0585   0.1244   0.2028   0.2255
     0.2494   0.3034   0.4053   0.4650   0.4989   0.5094   0.5245   0.5693
     0.6080   0.6517   0.6930   0.7288   0.7608   0.8256   0.8916   0.9315
     1.0142   1.0854   1.2520

     the Fermi energy is    -1.1131 ev

!    total energy              =   -2246.26017526 Ry
     estimated scf accuracy    <       0.00000003 Ry
     smearing contrib. (-TS)   =      -0.00046988 Ry
     internal energy E=F+TS    =   -2246.25970538 Ry

     The total energy is F=E-TS. E is the sum of the following terms:
     one-electron contribution =  -18487.82980632 Ry
     hartree contribution      =    9232.18252605 Ry
     xc contribution           =    -392.10897428 Ry
     ewald contribution        =    7411.36072959 Ry
     one-center paw contrib.   =      -9.86418041 Ry

     convergence has been achieved in  10 iterations

     negative rho (up, down):  1.855E-04 0.000E+00

     Forces acting on atoms (cartesian axes, Ry/au):

     atom    1 type  1   force =     0.00183395   -0.00813048    0.03283211
     atom    2 type  2   force =     0.02325363    0.00698423   -0.01339356
     atom    3 type  2   force =    -0.00502516    0.00728256   -0.01850173
     atom    4 type  1   force =     0.00637688    0.00468773   -0.00253735
     atom    5 type  2   force =     0.00255458    0.00566761   -0.01071518
     atom    6 type  2   force =     0.00355284    0.00340578   -0.00130468
     atom    7 type  1   force =     0.00524659   -0.00419231    0.00286288
     atom    8 type  2   force =     0.00235770    0.00108936    0.00972394
     atom    9 type  2   force =     0.00905407    0.00375281    0.00163515
     atom   10 type  1   force =     0.00311223   -0.00294734   -0.00850881
     atom   11 type  2   force =     0.00729430    0.00022708   -0.00793453
     atom   12 type  2   force =    -0.00181290   -0.00210158   -0.00349864
     atom   13 type  1   force =     0.00617313    0.00113533    0.00303196
     atom   14 type  2   force =    -0.02721002   -0.02715220    0.05820399
     atom   15 type  2   force =     0.00527207    0.00662678   -0.00027938
     atom   16 type  1   force =    -0.00089737    0.00226955   -0.00415034
     atom   17 type  2   force =     0.00388182    0.00367698    0.00320954
     atom   18 type  2   force =    -0.00547404    0.00523865   -0.00079228
     atom   19 type  1   force =     0.00107480   -0.00504082    0.00225320
     atom   20 type  2   force =     0.00237586   -0.00312696   -0.00499639
     atom   21 type  1   force =    -0.00043770   -0.00487028   -0.00483474
     atom   22 type  2   force =     0.00071212   -0.00444929   -0.00462378
     atom   23 type  2   force =     0.00097780   -0.00108755    0.00239665
     atom   24 type  1   force =     0.01205305    0.00647496   -0.01503813
     atom   25 type  2   force =     0.00725045    0.01128240   -0.00754045
     atom   26 type  2   force =     0.00530122   -0.00273179   -0.00865196
     atom   27 type  1   force =     0.00103899    0.00254744    0.00487537
     atom   28 type  2   force =    -0.00056250   -0.00411259   -0.00641671
     atom   29 type  2   force =     0.00125986    0.00470105   -0.00510519
     atom   30 type  1   force =     0.00018654   -0.00275895    0.00638556
     atom   31 type  2   force =     0.00018245    0.00093287    0.00674661
     atom   32 type  2   force =    -0.00444795    0.00424037    0.00423734
     atom   33 type  1   force =     0.00323110    0.00154020    0.00469393
     atom   34 type  2   force =    -0.00060871   -0.01925686   -0.01293312
     atom   35 type  2   force =    -0.00236471    0.00651145    0.00281454
     atom   36 type  3   force =    -0.06676698    0.00168382   -0.00414581
     The non-local contrib.  to forces
     atom    1 type  1   force =     0.02876222    0.02088106   -0.04093471
     atom    2 type  2   force =    -0.00717447   -0.02914779   -0.27049670
     atom    3 type  2   force =    -0.01317011    0.00328635    0.26175412
     atom    4 type  1   force =     0.00132181    0.00854376   -0.00035236
     atom    5 type  2   force =     0.00216326    0.00327425   -0.25347524
     atom    6 type  2   force =     0.00364079   -0.00118048    0.27324776
     atom    7 type  1   force =    -0.01792150    0.00147639   -0.02549238
     atom    8 type  2   force =     0.00597983   -0.00242170   -0.26017912
     atom    9 type  2   force =     0.00253950   -0.00580574    0.27097818
     atom   10 type  1   force =     0.00931565   -0.00220445   -0.00043885
     atom   11 type  2   force =     0.01525702    0.00422604   -0.26457955
     atom   12 type  2   force =    -0.01507375   -0.01971890    0.25808875
     atom   13 type  1   force =     0.00720874    0.02077346    0.00321276
     atom   14 type  2   force =     0.53511929    0.20997613   -0.10769442
     atom   15 type  2   force =     0.00352701   -0.00522202    0.26333348
     atom   16 type  1   force =    -0.00067161    0.03392799   -0.02899930
     atom   17 type  2   force =     0.00848331   -0.02281447   -0.25133253
     atom   18 type  2   force =    -0.00532303   -0.00132056    0.26523194
     atom   19 type  1   force =     0.01063122    0.00225549   -0.02016962
     atom   20 type  2   force =     0.00097001   -0.02247154    0.26319604
     atom   21 type  1   force =    -0.00588615    0.04338022    0.00823501
     atom   22 type  2   force =    -0.01781763    0.00183327   -0.25845324
     atom   23 type  2   force =     0.01220824   -0.01791453    0.26689067
     atom   24 type  1   force =    -0.00383334   -0.00070349   -0.00351302
     atom   25 type  2   force =    -0.01707715   -0.00459582   -0.26374388
     atom   26 type  2   force =     0.01385927   -0.01054989    0.26366522
     atom   27 type  1   force =    -0.00422721    0.00524809    0.00621402
     atom   28 type  2   force =     0.00190005   -0.01831566   -0.27250301
     atom   29 type  2   force =     0.00259507    0.00961267    0.26032295
     atom   30 type  1   force =     0.00056933    0.01920330    0.00887227
     atom   31 type  2   force =    -0.00659132    0.00372174   -0.26089408
[...]
     atom   28 type  2   force =     0.00004545   -0.01367721   -0.27186926
     atom   29 type  2   force =     0.00157025   -0.00815062    0.26855813
     atom   30 type  1   force =     0.00048501    0.02064327    0.00917050
     atom   31 type  2   force =    -0.00153540    0.00610183   -0.26413163
     atom   32 type  2   force =     0.00390997   -0.01444357    0.26566548
     atom   33 type  1   force =    -0.00515942    0.00243561    0.00395425
     atom   34 type  2   force =    -0.00291049   -0.00215872   -0.27361853
     atom   35 type  2   force =     0.00503871   -0.01259943    0.26796186
     atom   36 type  3   force =    -1.39829175   -0.79874597   -1.14271527
     The ionic contribution  to forces
     atom    1 type  1   force =    -0.20203032    0.92760161    3.15750495
     atom    2 type  2   force =     1.72930231   -0.67952481   38.36077395
     atom    3 type  2   force =    -0.54981488   -0.17621300  -38.03201206
     atom    4 type  1   force =     0.34038723    0.79608271   -2.43041646
     atom    5 type  2   force =    -0.54970899    3.30228588   38.08489156
     atom    6 type  2   force =    -0.11736762   -0.76819872  -38.38332349
     atom    7 type  1   force =    -2.80234473   -1.97178603    0.96325467
     atom    8 type  2   force =    -0.92799017    0.33724992   37.97041375
     atom    9 type  2   force =     0.11005943    0.11302322  -39.04048315
     atom   10 type  1   force =    -0.57010955   -1.29596615    1.78106015
     atom   11 type  2   force =     0.03247933   -2.46975117   38.32001953
     atom   12 type  2   force =     0.11718163    0.76166713  -38.36974201
     atom   13 type  1   force =     0.65942591    1.58118883    0.66671965
     atom   14 type  2   force =    -4.70689219   -3.03885511   38.74945391
     atom   15 type  2   force =     0.41506571   -0.05599227  -35.54535970
     atom   16 type  1   force =    -0.56372933    3.98727175    0.43615169
     atom   17 type  2   force =     0.21996997    2.19516885   37.88228353
     atom   18 type  2   force =     0.30746753   -0.63509438  -38.71810117
     atom   19 type  1   force =     2.83020079   -2.29978319   -0.73228783
     atom   20 type  2   force =     0.14221759   -0.12045299  -39.28277042
     atom   21 type  1   force =     0.91746488   -0.55988017   -0.03403916
     atom   22 type  2   force =    -0.13831214   -2.61379877   38.32376100
     atom   23 type  2   force =     0.06009969    0.56569668  -39.06482591
     atom   24 type  1   force =     0.22508138    0.99269291   -2.72393606
     atom   25 type  2   force =    -0.68033159   -0.06957680   38.47624022
     atom   26 type  2   force =     0.19893180   -0.08623948  -38.94004436
     atom   27 type  1   force =     0.22612643    0.68703961   -2.47546844
     atom   28 type  2   force =     0.25040243    0.98205935   37.53499924
     atom   29 type  2   force =    -0.15978215   -0.21012518  -38.88450653
     atom   30 type  1   force =     0.03894684   -0.50305358   -1.00307843
     atom   31 type  2   force =     1.04120552    0.10559719   37.77281610
     atom   32 type  2   force =    -0.30306073    0.02271550  -39.15825905
     atom   33 type  1   force =     0.04334288   -1.02606278   -0.02011480
     atom   34 type  2   force =     0.03992341   -1.02811105   38.51318236
     atom   35 type  2   force =    -0.26171797    0.32106424  -38.31948852
     atom   36 type  3   force =     2.58790969    1.93006026   44.16473129
     The local contribution  to forces
     atom    1 type  1   force =     0.18586870   -0.95400468   -3.10600182
     atom    2 type  2   force =    -1.74616028    0.70843779  -38.12122043
     atom    3 type  2   force =     0.53444770    0.17938346   37.78472451
     atom    4 type  1   force =    -0.34504824   -0.81171187    2.42574145
     atom    5 type  2   force =     0.55339234   -3.30119201  -37.85991941
     atom    6 type  2   force =     0.10657980    0.75843848   38.13622270
     atom    7 type  1   force =     2.81329867    1.97420490   -0.93920648
     atom    8 type  2   force =     0.92655209   -0.33609401  -37.72503374
     atom    9 type  2   force =    -0.10531434   -0.10318759   38.79558823
     atom   10 type  1   force =     0.56427546    1.29343248   -1.78648107
     atom   11 type  2   force =    -0.04162770    2.46646327  -38.08491147
     atom   12 type  2   force =    -0.11329008   -0.74404923   38.12921943
     atom   13 type  1   force =    -0.66919852   -1.58362859   -0.67089544
     atom   14 type  2   force =     4.32414850    2.83347415  -38.51738278
     atom   15 type  2   force =    -0.40729144    0.07345753   35.29472783
     atom   16 type  1   force =     0.56389639   -4.02458042   -0.41211607
     atom   17 type  2   force =    -0.22278866   -2.17412469  -37.65446041
     atom   18 type  2   force =    -0.30455228    0.63267247   38.47642507
     atom   19 type  1   force =    -2.83781578    2.30054142    0.76046379
     atom   20 type  2   force =    -0.14085696    0.13238113   39.03953182
     atom   21 type  1   force =    -0.90394454    0.51614009    0.02230602
     atom   22 type  2   force =     0.16250632    2.59637417  -38.09179849
     atom   23 type  2   force =    -0.07148600   -0.54554062   38.81916933
     atom   24 type  1   force =    -0.22768108   -1.00148079    2.72255451
     atom   25 type  2   force =     0.67146946    0.10075520  -38.22651891
     atom   26 type  2   force =    -0.19695379    0.08282612   38.69279860
     atom   27 type  1   force =    -0.22284248   -0.69349770    2.46834450
     atom   28 type  2   force =    -0.25057246   -0.96975377  -37.28392275
     atom   29 type  2   force =     0.15864669    0.21739287   38.63710639
     atom   30 type  1   force =    -0.03920436    0.48249345    0.99403181
     atom   31 type  2   force =    -1.03950754   -0.11139744  -37.52939478
     atom   32 type  2   force =     0.30042953   -0.00895460   38.91358234
     atom   33 type  1   force =    -0.03840189    1.02346332    0.01650353
     atom   34 type  2   force =    -0.03802979    1.03161090  -38.26059274
     atom   35 type  2   force =     0.25705486   -0.30932124   38.07256548
     atom   36 type  3   force =    -1.20557858   -1.13847953  -43.03387427
     The core correction contribution to forces
     atom    1 type  1   force =     0.00000000    0.00000000    0.00000000
     atom    2 type  2   force =    -0.00105838    0.00106756    0.02118877
     atom    3 type  2   force =    -0.00128051    0.00012893   -0.02095387
     atom    4 type  1   force =     0.00000000    0.00000000    0.00000000
     atom    5 type  2   force =    -0.00021440    0.00015482    0.02041504
     atom    6 type  2   force =    -0.00051240   -0.00135724   -0.02094795
     atom    7 type  1   force =     0.00000000    0.00000000    0.00000000
     atom    8 type  2   force =    -0.00007418    0.00041205    0.02102086
     atom    9 type  2   force =     0.00044655    0.00062565   -0.02095228
     atom   10 type  1   force =     0.00000000    0.00000000    0.00000000
     atom   11 type  2   force =    -0.00006162   -0.00055056    0.02042328
     atom   12 type  2   force =     0.00041278    0.00152312   -0.02068597
     atom   13 type  1   force =     0.00000000    0.00000000    0.00000000
     atom   14 type  2   force =    -0.02239425   -0.01247947    0.01625485
     atom   15 type  2   force =     0.00095943    0.00099347   -0.02077569
     atom   16 type  1   force =     0.00000000    0.00000000    0.00000000
     atom   17 type  2   force =    -0.00003911    0.00127361    0.02008591
     atom   18 type  2   force =     0.00028274   -0.00079752   -0.02059808
     atom   19 type  1   force =     0.00000000    0.00000000    0.00000000
     atom   20 type  2   force =     0.00018354    0.00044764   -0.02121360
     atom   21 type  1   force =     0.00000000    0.00000000    0.00000000
     atom   22 type  2   force =     0.00057241   -0.00151838    0.02037181
     atom   23 type  2   force =    -0.00069201    0.00143475   -0.02097536
     atom   24 type  1   force =     0.00000000    0.00000000    0.00000000
     atom   25 type  2   force =    -0.00088130    0.00131399    0.02124215
     atom   26 type  2   force =     0.00027908   -0.00023910   -0.02109948
     atom   27 type  1   force =     0.00000000    0.00000000    0.00000000
     atom   28 type  2   force =    -0.00004294    0.00076941    0.02093321
     atom   29 type  2   force =    -0.00017986    0.00021215   -0.02074175
     atom   30 type  1   force =     0.00000000    0.00000000    0.00000000
     atom   31 type  2   force =     0.00003198   -0.00006739    0.02086750
     atom   32 type  2   force =    -0.00057962    0.00070834   -0.02086930
     atom   33 type  1   force =     0.00000000    0.00000000    0.00000000
     atom   34 type  2   force =     0.00018778   -0.00013896    0.02116342
     atom   35 type  2   force =    -0.00042207    0.00088683   -0.02096281
     atom   36 type  3   force =     0.01515435    0.00857999    0.01251536
     The Hubbard contrib.    to forces
     atom    1 type  1   force =     0.00000000    0.00000000    0.00000000
     atom    2 type  2   force =     0.00000000    0.00000000    0.00000000
     atom    3 type  2   force =     0.00000000    0.00000000    0.00000000
     atom    4 type  1   force =     0.00000000    0.00000000    0.00000000
     atom    5 type  2   force =     0.00000000    0.00000000    0.00000000
     atom    6 type  2   force =     0.00000000    0.00000000    0.00000000
     atom    7 type  1   force =     0.00000000    0.00000000    0.00000000
     atom    8 type  2   force =     0.00000000    0.00000000    0.00000000
     atom    9 type  2   force =     0.00000000    0.00000000    0.00000000
     atom   10 type  1   force =     0.00000000    0.00000000    0.00000000
     atom   11 type  2   force =     0.00000000    0.00000000    0.00000000
     atom   12 type  2   force =     0.00000000    0.00000000    0.00000000
     atom   13 type  1   force =     0.00000000    0.00000000    0.00000000
     atom   14 type  2   force =     0.00000000    0.00000000    0.00000000
     atom   15 type  2   force =     0.00000000    0.00000000    0.00000000
     atom   16 type  1   force =     0.00000000    0.00000000    0.00000000
     atom   17 type  2   force =     0.00000000    0.00000000    0.00000000
     atom   18 type  2   force =     0.00000000    0.00000000    0.00000000
     atom   19 type  1   force =     0.00000000    0.00000000    0.00000000
     atom   20 type  2   force =     0.00000000    0.00000000    0.00000000
     atom   21 type  1   force =     0.00000000    0.00000000    0.00000000
     atom   22 type  2   force =     0.00000000    0.00000000    0.00000000
     atom   23 type  2   force =     0.00000000    0.00000000    0.00000000
     atom   24 type  1   force =     0.00000000    0.00000000    0.00000000
     atom   25 type  2   force =     0.00000000    0.00000000    0.00000000
     atom   26 type  2   force =     0.00000000    0.00000000    0.00000000
     atom   27 type  1   force =     0.00000000    0.00000000    0.00000000
     atom   28 type  2   force =     0.00000000    0.00000000    0.00000000
     atom   29 type  2   force =     0.00000000    0.00000000    0.00000000
     atom   30 type  1   force =     0.00000000    0.00000000    0.00000000
     atom   31 type  2   force =     0.00000000    0.00000000    0.00000000
     atom   32 type  2   force =     0.00000000    0.00000000    0.00000000
     atom   33 type  1   force =     0.00000000    0.00000000    0.00000000
     atom   34 type  2   force =     0.00000000    0.00000000    0.00000000
     atom   35 type  2   force =     0.00000000    0.00000000    0.00000000
     atom   36 type  3   force =     0.00000000    0.00000000    0.00000000
     The SCF correction term to forces
     atom    1 type  1   force =    -0.00001431   -0.00008007    0.00000232
     atom    2 type  2   force =    -0.00001303   -0.00001672   -0.00000386
     atom    3 type  2   force =    -0.00000736   -0.00002559    0.00000504
     atom    4 type  1   force =    -0.00004532    0.00002373    0.00000839
     atom    5 type  2   force =    -0.00000041    0.00000017   -0.00000270
     atom    6 type  2   force =    -0.00000284    0.00000788   -0.00000530
     atom    7 type  1   force =    -0.00005601    0.00005450   -0.00005531
     atom    8 type  2   force =     0.00000673    0.00002858   -0.00001491
     atom    9 type  2   force =    -0.00001299    0.00002816    0.00000489
     atom   10 type  1   force =    -0.00000538   -0.00004895   -0.00003271
     atom   11 type  2   force =    -0.00001046    0.00001309   -0.00001627
     atom   12 type  2   force =    -0.00000976    0.00000447    0.00000955
     atom   13 type  1   force =     0.00003453   -0.00003381   -0.00000883
     atom   14 type  2   force =     0.00000980   -0.00001984    0.00000271
     atom   15 type  2   force =    -0.00000709   -0.00002428   -0.00001144
     atom   16 type  1   force =    -0.00004931    0.00007216   -0.00006532
     atom   17 type  2   force =     0.00000519   -0.00001038   -0.00001412
     atom   18 type  2   force =    -0.00000946   -0.00000150   -0.00000217
     atom   19 type  1   force =     0.00002797    0.00006799   -0.00000123
     atom   20 type  2   force =     0.00000214    0.00001814   -0.00000601
     atom   21 type  1   force =     0.00001063   -0.00004501    0.00000158
     atom   22 type  2   force =    -0.00000563    0.00000013   -0.00000658
     atom   23 type  2   force =     0.00000369    0.00000148   -0.00000293
     atom   24 type  1   force =     0.00002357   -0.00005083   -0.00001505
     atom   25 type  2   force =    -0.00001829   -0.00003342    0.00000906
     atom   26 type  2   force =     0.00000867   -0.00002076   -0.00001484
     atom   27 type  1   force =     0.00004441    0.00000466   -0.00004409
     atom   28 type  2   force =     0.00000163   -0.00000257    0.00001096
     atom   29 type  2   force =     0.00001676    0.00000725   -0.00002012
     atom   30 type  1   force =    -0.00005232    0.00004957    0.00003649
     atom   31 type  2   force =     0.00001888    0.00003210    0.00000659
     atom   32 type  2   force =     0.00002816    0.00000563   -0.00001820
     atom   33 type  1   force =     0.00002529   -0.00003176   -0.00001072
     atom   34 type  2   force =     0.00001379    0.00000346    0.00000495
     atom   35 type  2   force =     0.00000229   -0.00000419   -0.00000257
     atom   36 type  3   force =     0.00002337   -0.00006852    0.00002066

     Total force =     0.005488     Total SCF correction =     0.000278
     Energy error            =      7.8E-05 Ry
     Gradient error          =      1.9E-03 Ry/Bohr

     bfgs converged in  18 scf cycles and  17 bfgs steps
     (criteria: energy <  1.0E-04 Ry, force <  1.0E-02 Ry/Bohr)

     End of BFGS Geometry Optimization

     Final energy             =   -2246.3545118278 Ry

     File ./MoS2-V-O.bfgs deleted, as requested
Begin final coordinates

ATOMIC_POSITIONS (angstrom)
Mo            6.6547256876        1.8160273622        2.9177944163
S             8.3055203301        0.8648232658        4.3810932946
S             8.1172321587        0.8626332156        1.2119375095
Mo            8.1605517100        4.5367591515        2.6932521155
S             6.5869611099        3.8198855907        4.3368862470
S             6.5800373806        3.5361004999        1.1565733631
Mo            6.5550856624        7.1926910158        2.6638045106
S             8.1416420203        6.3402161728        4.2834737324
S             8.1628473069        6.3429854155        1.0822216126
Mo            8.1574519979        9.9507589541        2.7957637843
S             6.5542686055        8.9511122730        4.3543919685
S             6.6016087764        9.0457575546        1.1482659058
Mo            3.3924480411        1.7544536198        2.8024511344
S             4.5244137690        0.5279798216        4.6209374292
S             5.0656178201        0.8592422656        1.3644354983
Mo            5.0216941890        4.5385043539        2.6754766050
S             3.4774367044        3.6771542380        4.3173257896
S             3.4664208015        3.5467026041        1.1143865992
Mo            3.4826512110        7.1656186309        2.6331230854
S             5.0369326286        6.3041745133        1.0383558643
Mo            4.9774307627        9.8330994763        2.7836760978
S             3.4401182528        8.8565409908        4.3349195225
S             3.4203922494        9.0321780318        1.1061477027
Mo            0.3068878672        1.7566662315        2.7302606400
S             1.7933353895        0.8472621182        4.3644088942
S             1.8919206205        0.8294522087        1.1440251564
Mo            1.8959118352        4.5010909632        2.6773253535
S             0.3050362926        3.6327026123        4.2866783172
S             0.2910407431        3.5812051552        1.1033684627
Mo            0.2965732724        7.2249142091        2.7006849716
S             1.9178258438        6.2949133761        4.2667472102
S             1.8733458482        6.3257717059        1.0670253942
Mo            1.8709524011        9.9335180064        2.7527619548
S             0.3029307044        9.0099496548        4.3502834495
S             0.2701364847        9.0766248786        1.1609667434
O             5.8774672001        1.3257984950        4.8695172400
End final coordinates



     Writing all to output data dir ./MoS2-V-O.save/
 
     init_run     :      4.62s CPU      5.15s WALL (       1 calls)
     electrons    :   1566.38s CPU   1767.26s WALL (      18 calls)
     update_pot   :     52.05s CPU     55.46s WALL (      17 calls)
     forces       :     49.18s CPU     55.90s WALL (      18 calls)

     Called by init_run:
     wfcinit      :      0.50s CPU      0.55s WALL (       1 calls)
     potinit      :      2.37s CPU      2.63s WALL (       1 calls)
     hinit0       :      0.45s CPU      0.49s WALL (       1 calls)

     Called by electrons:
     c_bands      :    236.33s CPU    242.16s WALL (     160 calls)
     sum_band     :     89.40s CPU    115.20s WALL (     160 calls)
     v_of_rho     :    150.36s CPU    183.13s WALL (     172 calls)
     newd         :     51.50s CPU     75.59s WALL (     172 calls)
     PAW_pot      :      6.91s CPU      6.93s WALL (     189 calls)
     mix_rho      :   1050.04s CPU   1163.91s WALL (     160 calls)

     Called by c_bands:
     init_us_2    :      3.67s CPU      3.96s WALL (     338 calls)
     init_us_2:cp :      3.67s CPU      3.96s WALL (     338 calls)
     regterg      :    224.41s CPU    229.92s WALL (     160 calls)

     Called by *egterg:
     rdiaghg      :     16.55s CPU     16.71s WALL (     926 calls)
     h_psi        :    144.33s CPU    145.49s WALL (     950 calls)
     s_psi        :     13.94s CPU     13.99s WALL (     950 calls)
     g_psi        :      0.72s CPU      0.73s WALL (     789 calls)

     Called by h_psi:
     h_psi:calbec :     15.60s CPU     15.69s WALL (     950 calls)
     vloc_psi     :    113.19s CPU    114.18s WALL (     950 calls)
     add_vuspsi   :     13.70s CPU     13.77s WALL (     950 calls)

     General routines
     calbec       :     22.63s CPU     22.74s WALL (    1199 calls)
     fft          :    102.12s CPU    118.54s WALL (   11541 calls)
     ffts         :    472.44s CPU    582.37s WALL (  258078 calls)
     fftw         :     71.61s CPU     72.14s WALL (  100120 calls)
     interpolate  :      2.19s CPU      2.53s WALL (     172 calls)
 
     Parallel routines
 
     PWSCF        :  28m 0.08s CPU  31m35.50s WALL

 
   This run was terminated on:  12:56: 4   1Nov2023            

=------------------------------------------------------------------------------=
   JOB DONE.
=------------------------------------------------------------------------------=
