
     Program PWSCF v.7.2 starts on  4Nov2023 at  4:58:34 

     This program is part of the open-source Quantum ESPRESSO suite
     for quantum simulation of materials; please cite
         "P. Giannozzi et al., J. Phys.:Condens. Matter 21 395502 (2009);
         "P. Giannozzi et al., J. Phys.:Condens. Matter 29 465901 (2017);
         "P. Giannozzi et al., J. Chem. Phys. 152 154105 (2020);
          URL http://www.quantum-espresso.org", 
     in publications or presentations arising from this work. More details at
     http://www.quantum-espresso.org/quote

     Parallel version (MPI & OpenMP), running on      48 processor cores
     Number of MPI processes:                48
     Threads/MPI process:                     1

     MPI processes distributed on     1 nodes
     20429 MiB available memory on the printing compute node when the environment starts
 
     Waiting for input...
     Reading input from standard input
Warning: card &CELL ignored
Warning: card CELL_DYNAMICS = 'BFGS', ignored
Warning: card CELL_DOFREE = '2DXY' ignored
Warning: card / ignored

     Current dimensions of program PWSCF are:
     Max number of different atomic species (ntypx) = 10
     Max number of k-points (npk) =  40000
     Max angular momentum in pseudopotentials (lmaxx) =  4

     IMPORTANT: XC functional enforced from input :
     Exchange-correlation= RVV10
                           (   1   4  13   4  26   0   0)
     Any further DFT definition will be discarded
     Please, verify this is what you really want


     gamma-point specific algorithms are used
     signal trapping enabled: kill the code with -SIGUSR1 to stop cleanly the simulation 
 
     R & G space division:  proc/nbgrp/npool/nimage =      48
     Subspace diagonalization in iterative solution of the eigenvalue problem:
     one sub-group per band group will be used
     scalapack distributed-memory algorithm (size of sub-group:  2*  2 procs)

 
     Parallelization info
     --------------------
     sticks:   dense  smooth     PW     G-vecs:    dense   smooth      PW
     Min         243     194     47                49060    35090    4376
     Max         246     196     50                49086    35128    4410
     Sum       11735    9389   2349              2355467  1685513  210763
 
     Using Slab Decomposition
 


     bravais-lattice index     =            0
     lattice parameter (alat)  =      17.8707  a.u.
     unit-cell volume          =   17436.2743 (a.u.)^3
     number of atoms/cell      =           36
     number of atomic types    =            3
     number of electrons       =       307.00
     number of Kohn-Sham states=          185
     kinetic-energy cutoff     =      80.0000  Ry
     charge density cutoff     =     400.0000  Ry
     scf convergence threshold =      1.0E-06
     mixing beta               =       0.7000
     number of iterations used =            8  local-TF  mixing
     energy convergence thresh.=      1.0E-04
     force convergence thresh. =      1.0E-02
     Exchange-correlation= RVV10
                           (   1   4  13   4  26   0   0)
     nstep                     =          200


     celldm(1)=  17.870686  celldm(2)=   0.000000  celldm(3)=   0.000000
     celldm(4)=   0.000000  celldm(5)=   0.000000  celldm(6)=   0.000000

     crystal axes: (cart. coord. in units of alat)
               a(1) = (   1.000000   0.000000   0.000000 )  
               a(2) = (   0.000000   1.155671   0.000000 )  
               a(3) = (   0.000000   0.000000   2.643601 )  

     reciprocal axes: (cart. coord. in units 2 pi/alat)
               b(1) = (  1.000000  0.000000  0.000000 )  
               b(2) = (  0.000000  0.865298  0.000000 )  
               b(3) = (  0.000000  0.000000  0.378272 )  


     PseudoPot. # 1 for Mo read from file:
     ../pseudo/Mo_ONCV_PBE-1.0.oncvpsp.upf
     MD5 check sum: 1b5d28e075c9ccadda658a603575cd1f
     Pseudo is Norm-conserving, Zval = 14.0
     Generated using ONCVPSP code by D. R. Hamann
     Using radial grid of 1526 points,  6 beta functions with: 
                l(1) =   0
                l(2) =   0
                l(3) =   1
                l(4) =   1
                l(5) =   2
                l(6) =   2

     PseudoPot. # 2 for S  read from file:
     ../pseudo/s_pbe_v1.4.uspp.F.UPF
     MD5 check sum: 88d86576ff6df21479756cfb9bdac1df
     Pseudo is Ultrasoft + core correction, Zval =  6.0
     Generated by new atomic code, or converted to UPF format
     Using radial grid of  907 points,  6 beta functions with: 
                l(1) =   0
                l(2) =   0
                l(3) =   1
                l(4) =   1
                l(5) =   2
                l(6) =   2
     Q(r) pseudized with  8 coefficients,  rinner =    1.300   1.300   1.300
                                                       1.300   1.300

     PseudoPot. # 3 for H  read from file:
     ../pseudo/H_ONCV_PBE-1.0.oncvpsp.upf
     MD5 check sum: 1790becc920ee074925cf490c71280fe
     Pseudo is Norm-conserving, Zval =  1.0
     Generated using ONCVPSP code by D. R. Hamann
     Using radial grid of 1166 points,  2 beta functions with: 
                l(1) =   0
                l(2) =   0

     atomic species   valence    mass     pseudopotential
        Mo            14.00    95.94000     Mo( 1.00)
        S              6.00    32.06500     S ( 1.00)
        H              1.00     1.00794     H ( 1.00)

     No symmetry found



   Cartesian axes

     site n.     atom                  positions (alat units)
         1           Mo  tau(   1) = (   0.6952221   0.1890506   0.2985846  )
         2           S   tau(   2) = (   0.8646417   0.0856217   0.4689279  )
         3           S   tau(   3) = (   0.8663890   0.0857843   0.1351291  )
         4           Mo  tau(   4) = (   0.8560186   0.4753274   0.2873942  )
         5           S   tau(   5) = (   0.6873294   0.3936244   0.4596353  )
         6           S   tau(   6) = (   0.6929804   0.3713468   0.1185692  )
         7           Mo  tau(   7) = (   0.6862796   0.7633098   0.2825370  )
         8           S   tau(   8) = (   0.8545980   0.6708292   0.4486168  )
         9           S   tau(   9) = (   0.8545123   0.6666874   0.1146125  )
        10           Mo  tau(  10) = (   0.8629403   1.0471007   0.3006803  )
        11           S   tau(  11) = (   0.6868280   0.9456650   0.4634891  )
        12           S   tau(  12) = (   0.6998113   0.9568511   0.1205389  )
        13           Mo  tau(  13) = (   0.3618216   0.1847309   0.2935964  )
        14           S   tau(  14) = (   0.5260962   0.0863870   0.4600448  )
        15           S   tau(  15) = (   0.5348379   0.0894875   0.1297123  )
        16           Mo  tau(  16) = (   0.5265817   0.4772436   0.2784130  )
        17           S   tau(  17) = (   0.3624753   0.3882513   0.4525556  )
        18           S   tau(  18) = (   0.3635411   0.3752055   0.1119148  )
        19           Mo  tau(  19) = (   0.3652268   0.7630864   0.2781795  )
        20           S   tau(  20) = (   0.5269494   0.6690381   0.1096838  )
        21           Mo  tau(  21) = (   0.5300192   1.0470394   0.2900995  )
        22           S   tau(  22) = (   0.3670346   0.9457522   0.4574073  )
        23           S   tau(  23) = (   0.3604225   0.9585725   0.1159032  )
        24           Mo  tau(  24) = (   0.0313099   0.1847895   0.3013130  )
        25           S   tau(  25) = (   0.1956761   0.0838230   0.4650863  )
        26           S   tau(  26) = (   0.1967693   0.0903508   0.1278874  )
        27           Mo  tau(  27) = (   0.1967578   0.4753919   0.2813011  )
        28           S   tau(  28) = (   0.0287851   0.3864324   0.4586755  )
        29           S   tau(  29) = (   0.0244514   0.3729871   0.1239344  )
        30           Mo  tau(  30) = (   0.0286728   0.7631204   0.2856894  )
        31           S   tau(  31) = (   0.2011512   0.6675435   0.4465001  )
        32           S   tau(  32) = (   0.1969214   0.6672839   0.1104564  )
        33           Mo  tau(  33) = (   0.1950294   1.0511147   0.2932237  )
        34           S   tau(  34) = (   0.0312912   0.9612169   0.4667423  )
        35           S   tau(  35) = (   0.0292670   0.9563028   0.1216485  )
        36           H   tau(  36) = (   0.8888889   0.6420393   0.5656742  )

     number of k points=     1  Gaussian smearing, width (Ry)=  0.0100
                       cart. coord. in units 2pi/alat
        k(    1) = (   0.0000000   0.0000000   0.0000000), wk =   2.0000000

     Dense  grid:  1177734 G-vectors     FFT dimensions: ( 120, 135, 320)

     Smooth grid:   842757 G-vectors     FFT dimensions: ( 108, 120, 270)

     Estimated max dynamical RAM per process >     146.59 MB

     Estimated total dynamical RAM >       6.87 GB

     Initial potential from superposition of free atoms

     starting charge     306.9873, renormalised to     307.0000

     negative rho (up, down):  1.407E-04 0.000E+00


---------------------------------------------------------------------------------
Carrying out rVV10 run using the following parameters:
Nqs =      20    Nr_points =    1024   r_max =   100.000
b_value =  6.30000    beta =  0.00901
     q_mesh =  0.00010000  0.00030000  0.00058939  0.00100810
               0.00161396  0.00249058  0.00375900  0.00559430
               0.00824984  0.01209221  0.01765183  0.02569619
               0.03733578  0.05417739  0.07854596  0.11380545
               0.16482331  0.23864234  0.34545298  0.50000000

Gradients computed in Reciprocal space

---------------------------------------------------------------------------------


     Starting wfcs are  213 randomized atomic wfcs

     total cpu time spent up to now is        3.5 secs

     Self-consistent Calculation

     iteration #  1     ecut=    80.00 Ry     beta= 0.70
     Davidson diagonalization with overlap
     ethr =  1.00E-02,  avg # of iterations =  2.0

     Threshold (ethr) on eigenvalues was too large:
     Diagonalizing with lowered threshold

     Davidson diagonalization with overlap
     ethr =  3.75E-04,  avg # of iterations =  4.0

     negative rho (up, down):  1.575E-08 0.000E+00

     total cpu time spent up to now is       16.7 secs

     total energy              =   -2205.62097590 Ry
     estimated scf accuracy    <       1.43457639 Ry

     iteration #  2     ecut=    80.00 Ry     beta= 0.70
     Davidson diagonalization with overlap
     ethr =  4.67E-04,  avg # of iterations =  1.0

     total cpu time spent up to now is       19.1 secs

     total energy              =   -2205.42651574 Ry
     estimated scf accuracy    <       0.61007216 Ry

     iteration #  3     ecut=    80.00 Ry     beta= 0.70
     Davidson diagonalization with overlap
     ethr =  1.99E-04,  avg # of iterations =  2.0

     total cpu time spent up to now is       21.5 secs

     total energy              =   -2205.53522084 Ry
     estimated scf accuracy    <       0.07325183 Ry

     iteration #  4     ecut=    80.00 Ry     beta= 0.70
     Davidson diagonalization with overlap
     ethr =  2.39E-05,  avg # of iterations = 19.0

     total cpu time spent up to now is       24.7 secs

     total energy              =   -2205.53775698 Ry
     estimated scf accuracy    <       0.03656575 Ry

     iteration #  5     ecut=    80.00 Ry     beta= 0.70
     Davidson diagonalization with overlap
     ethr =  1.19E-05,  avg # of iterations =  1.0

     total cpu time spent up to now is       26.9 secs

     total energy              =   -2205.53699765 Ry
     estimated scf accuracy    <       0.02024037 Ry

     iteration #  6     ecut=    80.00 Ry     beta= 0.70
     Davidson diagonalization with overlap
     ethr =  6.59E-06,  avg # of iterations =  2.0

     total cpu time spent up to now is       29.2 secs

     total energy              =   -2205.53643317 Ry
     estimated scf accuracy    <       0.01525079 Ry

     iteration #  7     ecut=    80.00 Ry     beta= 0.70
     Davidson diagonalization with overlap
     ethr =  4.97E-06,  avg # of iterations =  1.0

     total cpu time spent up to now is       31.5 secs

     total energy              =   -2205.53450779 Ry
     estimated scf accuracy    <       0.01022191 Ry

     iteration #  8     ecut=    80.00 Ry     beta= 0.70
     Davidson diagonalization with overlap
     ethr =  3.33E-06,  avg # of iterations =  2.0

     negative rho (up, down):  8.322E-03 0.000E+00

     total cpu time spent up to now is       35.6 secs

     total energy              =   -2205.53373592 Ry
     estimated scf accuracy    <       0.00522436 Ry

     iteration #  9     ecut=    80.00 Ry     beta= 0.70
     Davidson diagonalization with overlap
     ethr =  1.70E-06,  avg # of iterations =  2.0

     negative rho (up, down):  2.730E-02 0.000E+00

     total cpu time spent up to now is       40.3 secs

     total energy              =   -2205.53333558 Ry
     estimated scf accuracy    <       0.00346282 Ry

     iteration # 10     ecut=    80.00 Ry     beta= 0.70
     Davidson diagonalization with overlap
     ethr =  1.13E-06,  avg # of iterations =  2.0

     negative rho (up, down):  3.107E-02 0.000E+00

     total cpu time spent up to now is       44.6 secs

     total energy              =   -2205.53336697 Ry
     estimated scf accuracy    <       0.00136872 Ry

     iteration # 11     ecut=    80.00 Ry     beta= 0.70
     Davidson diagonalization with overlap
     ethr =  4.46E-07,  avg # of iterations =  2.0

     negative rho (up, down):  2.112E-02 0.000E+00

     total cpu time spent up to now is       49.0 secs

     total energy              =   -2205.53336957 Ry
     estimated scf accuracy    <       0.00070927 Ry

     iteration # 12     ecut=    80.00 Ry     beta= 0.70
     Davidson diagonalization with overlap
     ethr =  2.31E-07,  avg # of iterations =  2.0

     negative rho (up, down):  4.471E-03 0.000E+00

     total cpu time spent up to now is       56.0 secs

     total energy              =   -2205.53345959 Ry
     estimated scf accuracy    <       0.00010998 Ry

     iteration # 13     ecut=    80.00 Ry     beta= 0.70
     Davidson diagonalization with overlap
     ethr =  3.58E-08,  avg # of iterations = 18.0

     negative rho (up, down):  2.345E-03 0.000E+00

     total cpu time spent up to now is       66.1 secs

     total energy              =   -2205.53350086 Ry
     estimated scf accuracy    <       0.00002589 Ry

     iteration # 14     ecut=    80.00 Ry     beta= 0.70
     Davidson diagonalization with overlap
     ethr =  8.43E-09,  avg # of iterations =  2.0

     negative rho (up, down):  9.235E-04 0.000E+00

     total cpu time spent up to now is       73.4 secs

     total energy              =   -2205.53350471 Ry
     estimated scf accuracy    <       0.00000689 Ry

     iteration # 15     ecut=    80.00 Ry     beta= 0.70
     Davidson diagonalization with overlap
     ethr =  2.25E-09,  avg # of iterations =  2.0

     negative rho (up, down):  4.796E-04 0.000E+00

     total cpu time spent up to now is       85.2 secs

     total energy              =   -2205.53350726 Ry
     estimated scf accuracy    <       0.00000346 Ry

     iteration # 16     ecut=    80.00 Ry     beta= 0.70
     Davidson diagonalization with overlap
     ethr =  1.13E-09,  avg # of iterations =  3.0

     negative rho (up, down):  3.550E-04 0.000E+00

     total cpu time spent up to now is       97.7 secs

     total energy              =   -2205.53350922 Ry
     estimated scf accuracy    <       0.00000101 Ry

     iteration # 17     ecut=    80.00 Ry     beta= 0.70
     Davidson diagonalization with overlap
     ethr =  3.28E-10,  avg # of iterations =  5.0

     negative rho (up, down):  1.370E-04 0.000E+00

     total cpu time spent up to now is      100.0 secs

     End of self-consistent calculation

          k = 0.0000 0.0000 0.0000 (105382 PWs)   bands (ev):

   -62.8464 -62.7994 -62.7793 -62.7734 -62.7639 -62.7543 -62.7401 -62.7337
   -62.6933 -62.5888 -62.5445 -62.5053 -37.1596 -37.0861 -37.0813 -37.0449
   -37.0358 -37.0311 -37.0079 -37.0031 -36.9915 -36.9819 -36.9752 -36.9615
   -36.9486 -36.9453 -36.9382 -36.9334 -36.9194 -36.9183 -36.9159 -36.9021
   -36.8818 -36.8714 -36.8551 -36.8387 -36.8221 -36.8018 -36.7727 -36.7595
   -36.7404 -36.7267 -36.7122 -36.6876 -36.6707 -36.6499 -36.5299 -36.5068
   -17.0329 -15.7770 -15.0893 -14.9610 -14.8432 -14.7646 -14.6274 -14.4041
   -14.3783 -14.3453 -14.2713 -14.2451 -14.2262 -14.1844 -14.1174 -14.0664
   -14.0221 -14.0030 -13.9333 -13.8333 -13.7692 -13.7337 -13.7028  -9.8025
    -7.6357  -7.3572  -7.3242  -7.2744  -7.1613  -7.0963  -7.0828  -7.0124
    -6.7683  -6.7334  -6.6911  -6.6034  -6.5624  -6.4748  -6.4519  -6.3369
    -6.2892  -6.1624  -6.1250  -5.9123  -5.8412  -5.8092  -5.7748  -5.6863
    -5.6675  -5.6441  -5.6030  -5.5752  -5.5367  -5.4655  -5.4473  -5.4269
    -5.3814  -5.3584  -5.1204  -5.0719  -5.0182  -4.9613  -4.8797  -4.8557
    -4.8306  -4.7661  -4.5893  -4.5383  -4.4321  -4.2162  -4.2113  -4.1536
    -4.1453  -3.9453  -3.9328  -3.8713  -3.7633  -3.7142  -3.6587  -3.6412
    -3.5897  -3.5075  -3.4486  -3.4269  -3.4076  -3.3838  -3.3372  -3.3140
    -3.2695  -3.1606  -3.0562  -2.8132  -2.7901  -2.7384  -2.6955  -2.6566
    -2.6285  -2.6053  -2.5772  -2.5088  -2.4714  -2.1757  -1.9405  -1.9078
    -1.8712  -0.6601  -0.6388  -0.1910  -0.1357  -0.0770  -0.0467   0.0090
     0.1787   0.2277   0.2776   0.3478   0.3672   0.4133   0.4760   0.4987
     0.5457   0.6152   0.6429   0.6694   0.7101   0.7573   0.8071   0.8424
     0.8848   0.8972   0.9176   0.9604   1.0157   1.0626   1.1227   1.3633
     1.4412

     the Fermi energy is    -0.7147 ev

!    total energy              =   -2205.53350851 Ry
     estimated scf accuracy    <       0.00000022 Ry
     smearing contrib. (-TS)   =      -0.00893324 Ry
     internal energy E=F+TS    =   -2205.52457527 Ry

     The total energy is F=E-TS. E is the sum of the following terms:
     one-electron contribution =  -18049.39819816 Ry
     hartree contribution      =    9012.28115078 Ry
     xc contribution           =    -385.47414085 Ry
     ewald contribution        =    7217.06661296 Ry

     convergence has been achieved in  17 iterations

     negative rho (up, down):  1.370E-04 0.000E+00

     Forces acting on atoms (cartesian axes, Ry/au):

     atom    1 type  1   force =     0.01237610   -0.02089402    0.00536638
     atom    2 type  2   force =    -0.01483636    0.01576772    0.00152633
     atom    3 type  2   force =    -0.01225891    0.00965337   -0.00342969
     atom    4 type  1   force =     0.01134367   -0.01433731   -0.00384307
     atom    5 type  2   force =    -0.00283921   -0.00927881   -0.00320115
     atom    6 type  2   force =     0.00456455    0.00965203    0.00105158
     atom    7 type  1   force =    -0.01275918   -0.00111197   -0.00716615
     atom    8 type  2   force =    -0.05109166    0.04580616   -0.24372835
     atom    9 type  2   force =     0.01373313    0.00530822    0.01443566
     atom   10 type  1   force =    -0.01102629    0.00718087   -0.02570625
     atom   11 type  2   force =     0.00316770    0.00671236   -0.00740894
     atom   12 type  2   force =    -0.00192983    0.00186956    0.00425352
     atom   13 type  1   force =     0.00590259    0.00651432   -0.00710422
     atom   14 type  2   force =     0.00760774    0.00036209    0.00998812
     atom   15 type  2   force =    -0.01206559    0.00117474   -0.00824709
     atom   16 type  1   force =     0.00162826    0.01008498   -0.00063828
     atom   17 type  2   force =     0.00529306    0.00098297    0.00255777
     atom   18 type  2   force =    -0.00518775   -0.00711933    0.01401756
     atom   19 type  1   force =    -0.00282040   -0.00994174    0.00024521
     atom   20 type  2   force =     0.00700412   -0.00295294    0.00208248
     atom   21 type  1   force =    -0.00619203    0.00545341    0.00124261
     atom   22 type  2   force =    -0.00280005   -0.00056690   -0.00109444
     atom   23 type  2   force =     0.00080753    0.00398347    0.00845632
     atom   24 type  1   force =    -0.00901258   -0.00167817   -0.02110861
     atom   25 type  2   force =     0.01694363    0.01825041    0.00726749
     atom   26 type  2   force =    -0.01116320   -0.00071844   -0.00353286
     atom   27 type  1   force =    -0.00677239   -0.00259755    0.00686754
     atom   28 type  2   force =     0.00180632   -0.00306771   -0.00598088
     atom   29 type  2   force =     0.00082987    0.00035398   -0.00336276
     atom   30 type  1   force =     0.00539119    0.01087385    0.00236398
     atom   31 type  2   force =     0.00661783    0.00087235    0.01436606
     atom   32 type  2   force =    -0.01172065    0.00555788    0.00838636
     atom   33 type  1   force =     0.01424246   -0.00812609   -0.00861865
     atom   34 type  2   force =     0.00310670   -0.03847195   -0.01195359
     atom   35 type  2   force =    -0.00882935    0.00791440    0.01540704
     atom   36 type  3   force =     0.06093897   -0.05346624    0.24624296
     The non-local contrib.  to forces
     atom    1 type  1   force =    -0.00666789    0.02914081   -0.01205854
     atom    2 type  2   force =    -0.00998587    0.00004371   -0.26979958
     atom    3 type  2   force =    -0.01428261   -0.00491934    0.27191983
     atom    4 type  1   force =    -0.00731374   -0.00101672   -0.00652377
     atom    5 type  2   force =     0.01195162   -0.03016130   -0.24706504
     atom    6 type  2   force =     0.00245901    0.01021374    0.26333489
     atom    7 type  1   force =    -0.04390145   -0.01406172   -0.01302016
     atom    8 type  2   force =     0.02844099   -0.01941518    0.01716882
     atom    9 type  2   force =     0.01288575   -0.00961922    0.28668680
     atom   10 type  1   force =     0.00271611    0.00637511   -0.00090081
     atom   11 type  2   force =     0.01110599    0.00430483   -0.25360002
     atom   12 type  2   force =    -0.01284071   -0.01871022    0.26316302
     atom   13 type  1   force =     0.00181494    0.02015190   -0.00613844
     atom   14 type  2   force =     0.01132070   -0.01125526   -0.26315495
     atom   15 type  2   force =    -0.01298471   -0.00502727    0.26101681
     atom   16 type  1   force =    -0.00189016    0.04460384   -0.01643765
     atom   17 type  2   force =     0.00122183   -0.02762564   -0.24908538
     atom   18 type  2   force =    -0.00554929   -0.00304430    0.27307240
     atom   19 type  1   force =     0.03144054   -0.00244361   -0.01232847
     atom   20 type  2   force =     0.00344378   -0.01638791    0.26498596
     atom   21 type  1   force =    -0.00249537    0.02284038    0.00439238
     atom   22 type  2   force =    -0.00906909    0.00433535   -0.25828598
     atom   23 type  2   force =     0.00667064   -0.01228251    0.26748801
     atom   24 type  1   force =     0.00974835    0.01244241   -0.01301372
     atom   25 type  2   force =     0.00923311    0.00450308   -0.25936371
     atom   26 type  2   force =    -0.00277316   -0.01404383    0.26398689
     atom   27 type  1   force =     0.00542698    0.00917483    0.00840295
     atom   28 type  2   force =    -0.00906819   -0.02019939   -0.26351535
     atom   29 type  2   force =     0.00171410    0.00184057    0.26647419
     atom   30 type  1   force =     0.00983757    0.01922312    0.00204777
     atom   31 type  2   force =    -0.01220008    0.00116605   -0.24430249
     atom   32 type  2   force =    -0.00856765   -0.00745450    0.27259426
     atom   33 type  1   force =     0.00038302    0.01044186    0.00572029
     atom   34 type  2   force =    -0.00112692   -0.04522836   -0.26631482
     atom   35 type  2   force =    -0.00172814   -0.01368323    0.27259637
     atom   36 type  3   force =    -0.02867075    0.02388266   -0.09248357
     The ionic contribution  to forces
     atom    1 type  1   force =     0.32484931    0.11434954    5.66222591
     atom    2 type  2   force =    -0.66828867    0.38719102   39.27820504
     atom    3 type  2   force =    -0.16539564    0.01021387  -36.08788350
     atom    4 type  1   force =     0.01917759    0.19613544    0.09441921
     atom    5 type  2   force =    -1.13440790    1.27510804   38.67118289
     atom    6 type  2   force =     0.32151643   -0.54061721  -38.06040064
     atom    7 type  1   force =    -2.90082199   -2.58161626    2.19463604
     atom    8 type  2   force =    -1.63385890    0.57731688   35.18674697
     atom    9 type  2   force =     0.33165960   -0.02658228  -38.11684823
     atom   10 type  1   force =    -1.11415140   -0.11204181    5.57150759
     atom   11 type  2   force =    -0.67510516   -1.42471796   39.09578136
     atom   12 type  2   force =     0.42208760    0.73255269  -37.87936593
     atom   13 type  1   force =     0.49055833    0.92564477    2.86307809
     atom   14 type  2   force =     0.03783573   -0.01590356   38.52429518
     atom   15 type  2   force =     0.14870701   -0.06797318  -36.79469056
     atom   16 type  1   force =    -0.15968668    3.83993087    0.36610160
     atom   17 type  2   force =     0.82727834    1.43520194   37.92336885
     atom   18 type  2   force =    -0.15745028   -0.66909138  -38.57135059
     atom   19 type  1   force =     2.74604868   -2.37264842    0.57210298
     atom   20 type  2   force =     0.20279293   -0.19170423  -38.51185555
     atom   21 type  1   force =    -0.01594206    0.14580257    1.15436907
     atom   22 type  2   force =     0.46825601   -1.65193835   38.42712574
     atom   23 type  2   force =    -0.08306847    0.68959658  -38.29038942
     atom   24 type  1   force =    -0.49787186    1.01452471    5.79559290
     atom   25 type  2   force =     0.68458900    0.27286544   39.27384127
     atom   26 type  2   force =    -0.27819811    0.06005377  -37.32467761
     atom   27 type  1   force =     0.21102735    0.26702065   -2.41791471
     atom   28 type  2   force =     0.20664605    0.71141458   38.10085484
     atom   29 type  2   force =    -0.24505412   -0.47409871  -37.31099303
     atom   30 type  1   force =    -0.06428410   -0.63839753   -0.55699122
     atom   31 type  2   force =     1.47419088   -0.02868325   37.23440411
     atom   32 type  2   force =    -0.44686856   -0.00010686  -38.67984222
     atom   33 type  1   force =     0.86226941   -0.74627823    2.04442082
     atom   34 type  2   force =     0.33210628   -1.22546723   39.30340460
     atom   35 type  2   force =    -0.28306963    0.52148616  -37.84624322
     atom   36 type  3   force =     0.41192700   -0.40854307    9.11178138
     The local contribution  to forces
     atom    1 type  1   force =    -0.30570215   -0.16432989   -5.64443917
     atom    2 type  2   force =     0.66323141   -0.37142183  -39.02734661
     atom    3 type  2   force =     0.16681239    0.00421941   35.83369316
     atom    4 type  1   force =    -0.00048653   -0.20923018   -0.09117248
     atom    5 type  2   force =     1.12080016   -1.25560751  -38.44691456
     atom    6 type  2   force =    -0.31931676    0.54107665   37.81918281
     atom    7 type  1   force =     2.93214812    2.59437953   -2.18806958
     atom    8 type  2   force =     1.55701802   -0.51446976  -35.44975737
     atom    9 type  2   force =    -0.33028559    0.04088758   37.86644600
     atom   10 type  1   force =     1.10041903    0.11273120   -5.59594364
     atom   11 type  2   force =     0.66793509    1.42731917  -38.86955364
     atom   12 type  2   force =    -0.41228964   -0.71339825   37.64146005
     atom   13 type  1   force =    -0.48654131   -0.93928562   -2.86373684
     atom   14 type  2   force =    -0.04091708    0.02743594  -38.27158322
     atom   15 type  2   force =    -0.14848291    0.07384143   36.54616942
     atom   16 type  1   force =     0.16334239   -3.87425054   -0.34977320
     atom   17 type  2   force =    -0.82332415   -1.40804327  -37.69161589
     atom   18 type  2   force =     0.15755834    0.66544607   38.33343341
     atom   19 type  1   force =    -2.78032575    2.36507617   -0.55901097
     atom   20 type  2   force =    -0.19907376    0.20459566   38.27031443
     atom   21 type  1   force =     0.01230501   -0.16319888   -1.15718418
     atom   22 type  2   force =    -0.46230788    1.64754822  -38.19011129
     atom   23 type  2   force =     0.07773092   -0.67434682   38.05235108
     atom   24 type  1   force =     0.47911086   -1.02859535   -5.80335324
     atom   25 type  2   force =    -0.67686040   -0.25873965  -39.02760198
     atom   26 type  2   force =     0.26989272   -0.04749229   37.07823116
     atom   27 type  1   force =    -0.22340061   -0.27875400    2.41684767
     atom   28 type  2   force =    -0.19651510   -0.69546459  -37.86330143
     atom   29 type  2   force =     0.24445603    0.47317209   37.06211514
     atom   30 type  1   force =     0.05966856    0.62994637    0.55791352
     atom   31 type  2   force =    -1.45647245    0.02834249  -36.99539592
     atom   32 type  2   force =     0.44338710    0.01261817   38.43680657
     atom   33 type  1   force =    -0.84849825    0.72769945   -2.05841887
     atom   34 type  2   force =    -0.32843484    1.23036591  -39.06947710
     atom   35 type  2   force =     0.27606515   -0.50106281   37.61043940
     atom   36 type  3   force =    -0.32232645    0.33119854   -8.77302640
     The core correction contribution to forces
     atom    1 type  1   force =     0.00000000    0.00000000    0.00000000
     atom    2 type  2   force =     0.00022609   -0.00003190    0.02067740
     atom    3 type  2   force =     0.00063281    0.00013771   -0.02097907
     atom    4 type  1   force =     0.00000000    0.00000000    0.00000000
     atom    5 type  2   force =    -0.00111698    0.00146730    0.01984233
     atom    6 type  2   force =    -0.00004773   -0.00103815   -0.02087499
     atom    7 type  1   force =     0.00000000    0.00000000    0.00000000
     atom    8 type  2   force =    -0.00273538    0.00240668    0.00228377
     atom    9 type  2   force =    -0.00049378    0.00062623   -0.02156572
     atom   10 type  1   force =     0.00000000    0.00000000    0.00000000
     atom   11 type  2   force =    -0.00071188   -0.00031392    0.02018864
     atom   12 type  2   force =     0.00114340    0.00141914   -0.02079531
     atom   13 type  1   force =     0.00000000    0.00000000    0.00000000
     atom   14 type  2   force =    -0.00061863    0.00007525    0.02064164
     atom   15 type  2   force =     0.00069339    0.00032119   -0.02056949
     atom   16 type  1   force =     0.00000000    0.00000000    0.00000000
     atom   17 type  2   force =     0.00009249    0.00146634    0.02011738
     atom   18 type  2   force =     0.00021731   -0.00047421   -0.02095990
     atom   19 type  1   force =     0.00000000    0.00000000    0.00000000
     atom   20 type  2   force =    -0.00009354    0.00053145   -0.02115638
     atom   21 type  1   force =     0.00000000    0.00000000    0.00000000
     atom   22 type  2   force =     0.00031470   -0.00052714    0.02042176
     atom   23 type  2   force =    -0.00053645    0.00106971   -0.02084113
     atom   24 type  1   force =     0.00000000    0.00000000    0.00000000
     atom   25 type  2   force =    -0.00004914   -0.00036557    0.02060326
     atom   26 type  2   force =    -0.00011148    0.00076892   -0.02089263
     atom   27 type  1   force =     0.00000000    0.00000000    0.00000000
     atom   28 type  2   force =     0.00070648    0.00124837    0.02020230
     atom   29 type  2   force =    -0.00029445   -0.00057379   -0.02073930
     atom   30 type  1   force =     0.00000000    0.00000000    0.00000000
     atom   31 type  2   force =     0.00098348    0.00003053    0.01990018
     atom   32 type  2   force =     0.00023610    0.00048854   -0.02097168
     atom   33 type  1   force =     0.00000000    0.00000000    0.00000000
     atom   34 type  2   force =     0.00052512    0.00174708    0.02065998
     atom   35 type  2   force =    -0.00011167    0.00115503   -0.02118863
     atom   36 type  3   force =     0.00000000    0.00000000    0.00000000
     The Hubbard contrib.    to forces
     atom    1 type  1   force =     0.00000000    0.00000000    0.00000000
     atom    2 type  2   force =     0.00000000    0.00000000    0.00000000
     atom    3 type  2   force =     0.00000000    0.00000000    0.00000000
     atom    4 type  1   force =     0.00000000    0.00000000    0.00000000
     atom    5 type  2   force =     0.00000000    0.00000000    0.00000000
     atom    6 type  2   force =     0.00000000    0.00000000    0.00000000
     atom    7 type  1   force =     0.00000000    0.00000000    0.00000000
     atom    8 type  2   force =     0.00000000    0.00000000    0.00000000
     atom    9 type  2   force =     0.00000000    0.00000000    0.00000000
     atom   10 type  1   force =     0.00000000    0.00000000    0.00000000
     atom   11 type  2   force =     0.00000000    0.00000000    0.00000000
     atom   12 type  2   force =     0.00000000    0.00000000    0.00000000
     atom   13 type  1   force =     0.00000000    0.00000000    0.00000000
     atom   14 type  2   force =     0.00000000    0.00000000    0.00000000
     atom   15 type  2   force =     0.00000000    0.00000000    0.00000000
     atom   16 type  1   force =     0.00000000    0.00000000    0.00000000
     atom   17 type  2   force =     0.00000000    0.00000000    0.00000000
     atom   18 type  2   force =     0.00000000    0.00000000    0.00000000
     atom   19 type  1   force =     0.00000000    0.00000000    0.00000000
     atom   20 type  2   force =     0.00000000    0.00000000    0.00000000
     atom   21 type  1   force =     0.00000000    0.00000000    0.00000000
     atom   22 type  2   force =     0.00000000    0.00000000    0.00000000
     atom   23 type  2   force =     0.00000000    0.00000000    0.00000000
     atom   24 type  1   force =     0.00000000    0.00000000    0.00000000
     atom   25 type  2   force =     0.00000000    0.00000000    0.00000000
     atom   26 type  2   force =     0.00000000    0.00000000    0.00000000
     atom   27 type  1   force =     0.00000000    0.00000000    0.00000000
     atom   28 type  2   force =     0.00000000    0.00000000    0.00000000
     atom   29 type  2   force =     0.00000000    0.00000000    0.00000000
     atom   30 type  1   force =     0.00000000    0.00000000    0.00000000
     atom   31 type  2   force =     0.00000000    0.00000000    0.00000000
     atom   32 type  2   force =     0.00000000    0.00000000    0.00000000
     atom   33 type  1   force =     0.00000000    0.00000000    0.00000000
     atom   34 type  2   force =     0.00000000    0.00000000    0.00000000
     atom   35 type  2   force =     0.00000000    0.00000000    0.00000000
     atom   36 type  3   force =     0.00000000    0.00000000    0.00000000
     The SCF correction term to forces
     atom    1 type  1   force =    -0.00010229   -0.00005853   -0.00033301
     atom    2 type  2   force =    -0.00001845   -0.00001733   -0.00018109
     atom    3 type  2   force =    -0.00002499   -0.00000233   -0.00015130
     atom    4 type  1   force =    -0.00003278   -0.00022991   -0.00053721
     atom    5 type  2   force =    -0.00006524   -0.00008941   -0.00021797
     atom    6 type  2   force =    -0.00004552    0.00001294   -0.00016169
     atom    7 type  1   force =    -0.00018298    0.00018242   -0.00068364
     atom    8 type  2   force =     0.00004449   -0.00003652   -0.00014173
     atom    9 type  2   force =    -0.00003198   -0.00000816   -0.00025438
     atom   10 type  1   force =    -0.00000916    0.00011230   -0.00034057
     atom   11 type  2   force =    -0.00005546    0.00011618   -0.00019647
     atom   12 type  2   force =    -0.00002960    0.00000213   -0.00017949
     atom   13 type  1   force =     0.00007151   -0.00000080   -0.00027821
     atom   14 type  2   force =    -0.00001210    0.00000566   -0.00018173
     atom   15 type  2   force =     0.00000251    0.00000850   -0.00014445
     atom   16 type  1   force =    -0.00013642   -0.00020324   -0.00050022
     atom   17 type  2   force =     0.00002542   -0.00002045   -0.00019838
     atom   18 type  2   force =     0.00003703    0.00004044   -0.00014895
     atom   19 type  1   force =     0.00001701    0.00007005   -0.00048952
     atom   20 type  2   force =    -0.00006442    0.00000803   -0.00017717
     atom   21 type  1   force =    -0.00005873    0.00000528   -0.00030585
     atom   22 type  2   force =     0.00000708    0.00001096   -0.00021586
     atom   23 type  2   force =     0.00001177   -0.00005756   -0.00012341
     atom   24 type  1   force =     0.00000095   -0.00005401   -0.00030574
     atom   25 type  2   force =     0.00003195   -0.00001695   -0.00018255
     atom   26 type  2   force =     0.00002771   -0.00000908   -0.00015185
     atom   27 type  1   force =     0.00017477   -0.00004309   -0.00043956
     atom   28 type  2   force =     0.00003796   -0.00007075   -0.00019242
     atom   29 type  2   force =     0.00000918    0.00000976   -0.00019095
     atom   30 type  1   force =     0.00017004    0.00009783   -0.00057727
     atom   31 type  2   force =     0.00011687    0.00001248   -0.00021102
     atom   32 type  2   force =     0.00009324    0.00000846   -0.00017175
     atom   33 type  1   force =     0.00008916    0.00000676   -0.00031208
     atom   34 type  2   force =     0.00003793    0.00010659   -0.00019744
     atom   35 type  2   force =     0.00001582    0.00001517   -0.00016806
     atom   36 type  3   force =     0.00001004   -0.00000843    0.00000035

     Total force =     0.374954     Total SCF correction =     0.001877

     BFGS Geometry Optimization
     Energy error            =      0.0E+00 Ry
     Gradient error          =      2.5E-01 Ry/Bohr

     number of scf cycles    =   1
     number of bfgs steps    =   0

     energy             new  =   -2205.5335085062 Ry

     new trust radius        =       0.2592446529 bohr
     new conv_thr            =       0.0000010000 Ry


ATOMIC_POSITIONS (angstrom)
Mo            6.5810975568        1.7767495897        2.8264827968
S             8.1688582732        0.8180479426        4.4353460537
S             8.1867459495        0.8163500872        1.2760685116
Mo            8.1011653787        4.4874699646        2.7157847306
S             6.4984068089        3.7175013507        4.3449666725
S             6.5557652557        3.5168451916        1.1218366985
Mo            6.4832298316        7.2178488563        2.6680923206
S             8.0546911871        6.3681105683        4.1134860768
S             8.0881849056        6.3075113052        1.0915020196
Mo            8.1547841879        9.9059803656        2.8298586018
S             6.4968438698        8.9464788438        4.3791848940
S             6.6169259778        9.0497005434        1.1421581699
Mo            3.4247831792        1.7504030829        2.7727117689
S             4.9791913347        0.8171328189        4.3558185780
S             5.0514489213        0.8468837543        1.2222942906
Mo            4.9806183184        4.5185147471        2.6325467884
S             3.4306426275        3.6721198536        4.2810630927
S             3.4351753407        3.5444613090        1.0657694529
Mo            3.4523692491        7.2110635947        2.6308066210
S             4.9869406113        6.3253696597        1.0383557316
Mo            5.0089872397        9.9044858723        2.7440585201
S             3.4694763935        8.9434512788        4.3250121580
S             3.4088564946        9.0670979466        1.1005431930
Mo            0.2913212342        1.7466214815        2.8382745128
S             1.8594283968        0.8023517089        4.4020552270
S             1.8548927246        0.8540457360        1.2075313465
Mo            1.8571075162        4.4942921962        2.6638315266
S             0.2731697103        3.6527754643        4.3344191560
S             0.2316703537        3.5274365433        1.1702383880
Mo            0.2740050480        7.2224002901        2.7029473926
S             1.9057402545        6.3132604646        4.2300463123
S             1.8560359133        6.3132849165        1.0489971563
Mo            1.8518834497        9.9358390114        2.7683854587
S             0.2975568950        9.0696393501        4.4075438974
S             0.2720991098        9.0477138336        1.1585538334
H             8.4382564022        6.0433179979        5.4797508701



     Writing config-only to output data dir ./MoS2-V-O.save/
     NEW-OLD atomic charge density approx. for the potential

     negative rho (up, down):  1.541E-04 0.000E+00

     total cpu time spent up to now is      103.5 secs

     Self-consistent Calculation

     iteration #  1     ecut=    80.00 Ry     beta= 0.70
     Davidson diagonalization with overlap
     ethr =  1.00E-06,  avg # of iterations = 20.0

     negative rho (up, down):  3.857E-04 0.000E+00

     total cpu time spent up to now is      118.4 secs

     total energy              =   -2205.56714689 Ry
     estimated scf accuracy    <       0.02342511 Ry

     iteration #  2     ecut=    80.00 Ry     beta= 0.70
     Davidson diagonalization with overlap
     ethr =  7.63E-06,  avg # of iterations =  2.0

     negative rho (up, down):  6.240E-04 0.000E+00

     total cpu time spent up to now is      134.4 secs

     total energy              =   -2205.56810216 Ry
     estimated scf accuracy    <       0.00431894 Ry

     iteration #  3     ecut=    80.00 Ry     beta= 0.70
     Davidson diagonalization with overlap
     ethr =  1.41E-06,  avg # of iterations =  3.0

     negative rho (up, down):  8.767E-04 0.000E+00

     total cpu time spent up to now is      150.5 secs

     total energy              =   -2205.56839619 Ry
     estimated scf accuracy    <       0.00101167 Ry

     iteration #  4     ecut=    80.00 Ry     beta= 0.70
     Davidson diagonalization with overlap
     ethr =  3.30E-07,  avg # of iterations =  5.0

     negative rho (up, down):  9.672E-04 0.000E+00

     total cpu time spent up to now is      168.6 secs

     total energy              =   -2205.56851906 Ry
     estimated scf accuracy    <       0.00007167 Ry

     iteration #  5     ecut=    80.00 Ry     beta= 0.70
     Davidson diagonalization with overlap
     ethr =  2.33E-08,  avg # of iterations =  6.0

     negative rho (up, down):  9.831E-04 0.000E+00

     total cpu time spent up to now is      182.4 secs

     total energy              =   -2205.56852943 Ry
     estimated scf accuracy    <       0.00003489 Ry

     iteration #  6     ecut=    80.00 Ry     beta= 0.70
     Davidson diagonalization with overlap
     ethr =  1.14E-08,  avg # of iterations =  3.0

     negative rho (up, down):  9.276E-04 0.000E+00

     total cpu time spent up to now is      196.3 secs

     total energy              =   -2205.56853096 Ry
     estimated scf accuracy    <       0.00001385 Ry

     iteration #  7     ecut=    80.00 Ry     beta= 0.70
     Davidson diagonalization with overlap
     ethr =  4.51E-09,  avg # of iterations =  5.0

     negative rho (up, down):  7.954E-04 0.000E+00

     total cpu time spent up to now is      209.9 secs

     total energy              =   -2205.56853213 Ry
     estimated scf accuracy    <       0.00000350 Ry

     iteration #  8     ecut=    80.00 Ry     beta= 0.70
     Davidson diagonalization with overlap
     ethr =  1.14E-09,  avg # of iterations =  2.0

     negative rho (up, down):  5.439E-04 0.000E+00

     total cpu time spent up to now is      219.8 secs

     total energy              =   -2205.56853252 Ry
     estimated scf accuracy    <       0.00000119 Ry

     iteration #  9     ecut=    80.00 Ry     beta= 0.70
     Davidson diagonalization with overlap
     ethr =  3.89E-10,  avg # of iterations =  5.0

     negative rho (up, down):  1.367E-04 0.000E+00

     total cpu time spent up to now is      222.1 secs

     End of self-consistent calculation

          k = 0.0000 0.0000 0.0000 (105382 PWs)   bands (ev):

   -62.8302 -62.7993 -62.7914 -62.7847 -62.7812 -62.7711 -62.7562 -62.7502
   -62.7153 -62.5768 -62.5582 -62.5483 -37.1701 -37.0963 -37.0857 -37.0570
   -37.0496 -37.0352 -37.0215 -37.0089 -36.9998 -36.9919 -36.9896 -36.9775
   -36.9631 -36.9623 -36.9561 -36.9432 -36.9372 -36.9352 -36.9265 -36.9176
   -36.8949 -36.8915 -36.8651 -36.8510 -36.8370 -36.8144 -36.7910 -36.7729
   -36.7566 -36.7462 -36.7305 -36.7248 -36.6952 -36.6813 -36.5622 -36.5118
   -16.4118 -15.7140 -15.1092 -14.9663 -14.8408 -14.7839 -14.6266 -14.4116
   -14.3897 -14.3597 -14.2945 -14.2605 -14.2508 -14.2003 -14.1329 -14.0807
   -14.0398 -14.0218 -13.9542 -13.8446 -13.7749 -13.7558 -13.7397  -9.0495
    -7.6906  -7.4115  -7.3726  -7.2809  -7.1690  -7.1224  -7.1069  -7.0338
    -6.7902  -6.7609  -6.7154  -6.6355  -6.5752  -6.5000  -6.4108  -6.3544
    -6.2973  -6.1876  -6.1433  -5.9330  -5.8915  -5.8294  -5.7871  -5.7136
    -5.6889  -5.6586  -5.6261  -5.6038  -5.5626  -5.4944  -5.4747  -5.4290
    -5.4154  -5.3759  -5.1389  -5.0691  -5.0345  -4.9816  -4.9005  -4.8748
    -4.8540  -4.7840  -4.6195  -4.5194  -4.4421  -4.2353  -4.2281  -4.1846
    -4.1682  -3.9720  -3.9520  -3.8854  -3.7638  -3.7295  -3.6824  -3.6579
    -3.6004  -3.5458  -3.4688  -3.4513  -3.4387  -3.3948  -3.3579  -3.3308
    -3.2955  -3.1852  -3.0732  -2.8242  -2.8199  -2.7471  -2.7185  -2.6724
    -2.6528  -2.6328  -2.5998  -2.5337  -2.4933  -2.1890  -1.9683  -1.9280
    -1.9014  -0.7105  -0.6588  -0.2592  -0.1172  -0.0732  -0.0245   0.0146
     0.1791   0.2165   0.2527   0.3434   0.3579   0.4040   0.4532   0.5085
     0.5462   0.6038   0.6414   0.6803   0.6925   0.7488   0.7887   0.8295
     0.8423   0.8918   0.9020   0.9509   1.0137   1.0561   1.1051   1.3405
     1.4376

     the Fermi energy is    -0.7519 ev

!    total energy              =   -2205.56853289 Ry
     estimated scf accuracy    <       0.00000034 Ry
     smearing contrib. (-TS)   =      -0.00867465 Ry
     internal energy E=F+TS    =   -2205.55985825 Ry

     The total energy is F=E-TS. E is the sum of the following terms:
     one-electron contribution =  -18065.41015990 Ry
     hartree contribution      =    9020.11926034 Ry
     xc contribution           =    -385.41345752 Ry
     ewald contribution        =    7225.14449883 Ry

     convergence has been achieved in   9 iterations

     negative rho (up, down):  1.367E-04 0.000E+00

     Forces acting on atoms (cartesian axes, Ry/au):

     atom    1 type  1   force =     0.00234886   -0.00965659    0.00040623
     atom    2 type  2   force =    -0.00929439    0.00992668   -0.00135006
     atom    3 type  2   force =    -0.01123614    0.00708384   -0.00878758
     atom    4 type  1   force =     0.00687155   -0.01783317   -0.01558702
     atom    5 type  2   force =     0.00068114   -0.00687680   -0.00239726
     atom    6 type  2   force =     0.00289495    0.00510717    0.00038388
     atom    7 type  1   force =    -0.02180475    0.00861391   -0.02388045
     atom    8 type  2   force =     0.04281750   -0.03841676    0.09672114
     atom    9 type  2   force =     0.01151298    0.00431894    0.00370856
     atom   10 type  1   force =    -0.00419022    0.00756171   -0.01104779
     atom   11 type  2   force =     0.00330993    0.00553099   -0.00713337
     atom   12 type  2   force =    -0.00450108    0.00484401   -0.00034784
     atom   13 type  1   force =     0.00436808    0.00398296   -0.00246771
     atom   14 type  2   force =     0.00519443    0.00049861    0.00740731
     atom   15 type  2   force =    -0.00832353    0.00117156   -0.00612220
     atom   16 type  1   force =    -0.00422103    0.00668539    0.00378491
     atom   17 type  2   force =     0.00479604    0.00140893    0.00209372
     atom   18 type  2   force =    -0.00308885   -0.00412029    0.01037067
     atom   19 type  1   force =    -0.00249433   -0.01074004    0.00011686
     atom   20 type  2   force =     0.00194946   -0.00365858   -0.00258042
     atom   21 type  1   force =    -0.00555213    0.00428147    0.00153209
     atom   22 type  2   force =    -0.00205126   -0.00108655   -0.00134273
     atom   23 type  2   force =     0.00177590    0.00210067    0.00515016
     atom   24 type  1   force =    -0.00396170   -0.00187929   -0.00958650
     atom   25 type  2   force =     0.01212916    0.01380447    0.00053125
     atom   26 type  2   force =    -0.00749785   -0.00129191   -0.00398303
     atom   27 type  1   force =    -0.00236726   -0.00101855    0.00661606
     atom   28 type  2   force =    -0.00078268   -0.00168732   -0.00333824
     atom   29 type  2   force =     0.00304263   -0.00055925   -0.00585008
     atom   30 type  1   force =     0.01416565    0.01345508   -0.01054013
     atom   31 type  2   force =     0.00231741   -0.00010682    0.01221089
     atom   32 type  2   force =    -0.00799410    0.00369511    0.00690585
     atom   33 type  1   force =     0.00611497   -0.00165989   -0.00051406
     atom   34 type  2   force =     0.00067323   -0.02937391   -0.01312501
     atom   35 type  2   force =    -0.00609110    0.00890256    0.00884268
     atom   36 type  3   force =    -0.02151147    0.01699164   -0.03680079
     The non-local contrib.  to forces
     atom    1 type  1   force =    -0.00357070    0.02579019   -0.01266832
     atom    2 type  2   force =    -0.00588478   -0.00381199   -0.27034548
     atom    3 type  2   force =    -0.01198711   -0.00735715    0.26810242
     atom    4 type  1   force =    -0.00483411    0.00086370    0.00100899
     atom    5 type  2   force =     0.01346124   -0.02866663   -0.24831750
     atom    6 type  2   force =     0.00174645    0.00748402    0.26417652
     atom    7 type  1   force =    -0.03825571   -0.01599280   -0.00861504
     atom    8 type  2   force =     0.09875635   -0.07641876    0.30080566
     atom    9 type  2   force =     0.00885252   -0.00899440    0.28438435
     atom   10 type  1   force =     0.00184095    0.00596467   -0.00303784
     atom   11 type  2   force =     0.00923345   -0.00100290   -0.25563625
     atom   12 type  2   force =    -0.01227748   -0.01729219    0.26070798
     atom   13 type  1   force =     0.00254133    0.02073672   -0.00602401
     atom   14 type  2   force =     0.00921685   -0.01134649   -0.26479834
     atom   15 type  2   force =    -0.01021283   -0.00523544    0.26155047
     atom   16 type  1   force =     0.00121462    0.04570970   -0.01991367
     atom   17 type  2   force =     0.00100374   -0.02643654   -0.25033566
     atom   18 type  2   force =    -0.00442555   -0.00071196    0.27125700
     atom   19 type  1   force =     0.03268673   -0.00348564   -0.01147183
     atom   20 type  2   force =    -0.00058566   -0.01769911    0.26106791
     atom   21 type  1   force =    -0.00353775    0.02502145    0.00374445
     atom   22 type  2   force =    -0.00696056    0.00304579   -0.25811473
     atom   23 type  2   force =     0.00724251   -0.01483736    0.26590512
     atom   24 type  1   force =     0.00630759    0.01358021   -0.01224983
     atom   25 type  2   force =     0.00653090    0.00154340   -0.26365820
     atom   26 type  2   force =    -0.00003464   -0.01369482    0.26445843
     atom   27 type  1   force =     0.00362424    0.00857328    0.00800179
     atom   28 type  2   force =    -0.00806997   -0.01889755   -0.26278098
     atom   29 type  2   force =     0.00475712    0.00041481    0.26409741
     atom   30 type  1   force =     0.01006770    0.01954263    0.00643583
     atom   31 type  2   force =    -0.01270579   -0.00158346   -0.24306834
     atom   32 type  2   force =    -0.00444975   -0.00998906    0.27046620
     atom   33 type  1   force =     0.00169673    0.00838739    0.00353277
     atom   34 type  2   force =    -0.00345758   -0.03702875   -0.27028016
     atom   35 type  2   force =    -0.00133357   -0.01220730    0.26890845
     atom   36 type  3   force =    -0.01409258    0.01191922   -0.04623383
     The ionic contribution  to forces
     atom    1 type  1   force =     0.04177121    0.37841005    5.82562844
     atom    2 type  2   force =    -0.47275452    0.26589545   39.39208909
     atom    3 type  2   force =    -0.14656956    0.01609188  -36.19648634
     atom    4 type  1   force =    -0.05150208   -0.12565286    0.21773778
     atom    5 type  2   force =    -1.09875975    1.33735222   38.69749986
     atom    6 type  2   force =     0.23734701   -0.59521641  -37.99608593
     atom    7 type  1   force =    -3.38621893   -2.28181914    1.90602113
     atom    8 type  2   force =    -1.25900801    0.21051861   34.88341420
     atom    9 type  2   force =     0.32439702   -0.05545798  -38.14322971
     atom   10 type  1   force =    -0.84380752   -0.04738998    5.31150918
     atom   11 type  2   force =    -0.61372215   -1.43390289   39.16762967
     atom   12 type  2   force =     0.34890023    0.71747981  -37.90820239
     atom   13 type  1   force =     0.43441489    0.87901807    2.82724700
     atom   14 type  2   force =    -0.03737547    0.01506422   38.62051882
     atom   15 type  2   force =     0.16033835   -0.01554275  -36.83493495
     atom   16 type  1   force =    -0.17010950    3.60846936    0.46760175
     atom   17 type  2   force =     0.83075281    1.41908871   37.96283695
     atom   18 type  2   force =    -0.14037643   -0.61565663  -38.48823242
     atom   19 type  1   force =     2.73058617   -2.35060404    0.63566962
     atom   20 type  2   force =     0.12586333   -0.20487159  -38.58626538
     atom   21 type  1   force =    -0.06518002    0.14713095    1.33439884
     atom   22 type  2   force =     0.46600175   -1.64673357   38.49842166
     atom   23 type  2   force =    -0.06073421    0.63688695  -38.28242928
     atom   24 type  1   force =    -0.24609950    0.79564760    5.56980630
     atom   25 type  2   force =     0.56010937    0.21943400   39.25815612
     atom   26 type  2   force =    -0.23193870    0.04946283  -37.28182104
     atom   27 type  1   force =     0.30660524    0.28655010   -2.10156847
     atom   28 type  2   force =     0.17929535    0.71659478   38.20451733
     atom   29 type  2   force =    -0.17684825   -0.44521660  -37.38871647
     atom   30 type  1   force =     0.36285015   -0.61391951   -0.36677060
     atom   31 type  2   force =     1.40256993   -0.06180412   37.40971451
     atom   32 type  2   force =    -0.40027246   -0.04369503  -38.65488983
     atom   33 type  1   force =     0.67349273   -0.45600640    2.15243732
     atom   34 type  2   force =     0.26254958   -1.03446714   39.30125276
     atom   35 type  2   force =    -0.22263654    0.53977806  -37.79138565
     atom   36 type  3   force =     0.17606849   -0.21091700    8.37691012
     The local contribution  to forces
     atom    1 type  1   force =    -0.03604304   -0.41390535   -5.81223334
     atom    2 type  2   force =     0.46916720   -0.25227397  -39.14353269
     atom    3 type  2   force =     0.14679686   -0.00194052   35.94052261
     atom    4 type  1   force =     0.06312022    0.10680291   -0.23434473
     atom    5 type  2   force =     1.08698570   -1.31702241  -38.47122052
     atom    6 type  2   force =    -0.23626127    0.59380277   37.75311030
     atom    7 type  1   force =     3.40227511    2.30659625   -1.92120819
     atom    8 type  2   force =     1.20905832   -0.17761846  -35.07611897
     atom    9 type  2   force =    -0.32142173    0.06818036   37.88379020
     atom   10 type  1   force =     0.83773183    0.04901124   -5.31912017
     atom   11 type  2   force =     0.60831922    1.44056329  -38.93908693
     atom   12 type  2   force =    -0.34218849   -0.69662899   37.66784060
     atom   13 type  1   force =    -0.43255139   -0.89572112   -2.82335712
     atom   14 type  2   force =     0.03390150   -0.00336928  -38.36873309
     atom   15 type  2   force =    -0.15908468    0.02161079   36.58787279
     atom   16 type  1   force =     0.16446654   -3.64750607   -0.44372121
     atom   17 type  2   force =    -0.82702671   -1.39262923  -37.73034638
     atom   18 type  2   force =     0.14160025    0.61282319   38.24828175
     atom   19 type  1   force =    -2.76576646    2.34330058   -0.62381540
     atom   20 type  2   force =    -0.12348299    0.21823558   38.34366119
     atom   21 type  1   force =     0.06306955   -0.16786312   -1.33618562
     atom   22 type  2   force =    -0.46128637    1.64307935  -38.26182992
     atom   23 type  2   force =     0.05578088   -0.62110858   38.04254047
     atom   24 type  1   force =     0.23596899   -0.81124419   -5.56684080
     atom   25 type  2   force =    -0.55447807   -0.20694490  -39.01437905
     atom   26 type  2   force =     0.22471369   -0.03779079   37.03428639
     atom   27 type  1   force =    -0.31229028   -0.29613123    2.10029715
     atom   28 type  2   force =    -0.17253994   -0.70062896  -37.96508521
     atom   29 type  2   force =     0.17560603    0.44471978   37.13940378
     atom   30 type  1   force =    -0.35847393    0.60794180    0.34986446
     atom   31 type  2   force =    -1.38834629    0.06314277  -37.17405459
     atom   32 type  2   force =     0.39678481    0.05679012   38.41220553
     atom   33 type  1   force =    -0.66894797    0.44597056   -2.15611374
     atom   34 type  2   force =    -0.25896731    1.04070537  -39.06463663
     atom   35 type  2   force =     0.21800285   -0.51973251   37.55237084
     atom   36 type  3   force =    -0.18349941    0.21600208   -8.36743040
     The core correction contribution to forces
     atom    1 type  1   force =     0.00000000    0.00000000    0.00000000
     atom    2 type  2   force =     0.00015985    0.00005449    0.02075097
     atom    3 type  2   force =     0.00052334    0.00027271   -0.02092310
     atom    4 type  1   force =     0.00000000    0.00000000    0.00000000
     atom    5 type  2   force =    -0.00116269    0.00142247    0.01988585
     atom    6 type  2   force =    -0.00003744   -0.00094507   -0.02085098
     atom    7 type  1   force =     0.00000000    0.00000000    0.00000000
     atom    8 type  2   force =    -0.00599264    0.00512971   -0.01085353
     atom    9 type  2   force =    -0.00029807    0.00057067   -0.02138798
     atom   10 type  1   force =     0.00000000    0.00000000    0.00000000
     atom   11 type  2   force =    -0.00057610   -0.00003698    0.02029919
     atom   12 type  2   force =     0.00105420    0.00131503   -0.02072437
     atom   13 type  1   force =     0.00000000    0.00000000    0.00000000
     atom   14 type  2   force =    -0.00057547    0.00011444    0.02071111
     atom   15 type  2   force =     0.00060551    0.00035416   -0.02059342
     atom   16 type  1   force =     0.00000000    0.00000000    0.00000000
     atom   17 type  2   force =     0.00011233    0.00139993    0.02016674
     atom   18 type  2   force =     0.00014238   -0.00053128   -0.02091408
     atom   19 type  1   force =     0.00000000    0.00000000    0.00000000
     atom   20 type  2   force =     0.00006277    0.00060836   -0.02104709
     atom   21 type  1   force =     0.00000000    0.00000000    0.00000000
     atom   22 type  2   force =     0.00022056   -0.00048676    0.02044641
     atom   23 type  2   force =    -0.00051732    0.00112189   -0.02082970
     atom   24 type  1   force =     0.00000000    0.00000000    0.00000000
     atom   25 type  2   force =     0.00001341   -0.00025569    0.02069282
     atom   26 type  2   force =    -0.00020586    0.00073939   -0.02089113
     atom   27 type  1   force =     0.00000000    0.00000000    0.00000000
     atom   28 type  2   force =     0.00063944    0.00116178    0.02027449
     atom   29 type  2   force =    -0.00040338   -0.00046368   -0.02069165
     atom   30 type  1   force =     0.00000000    0.00000000    0.00000000
     atom   31 type  2   force =     0.00096344    0.00015110    0.01984359
     atom   32 type  2   force =     0.00001966    0.00055966   -0.02089924
     atom   33 type  1   force =     0.00000000    0.00000000    0.00000000
     atom   34 type  2   force =     0.00057568    0.00150150    0.02082837
     atom   35 type  2   force =    -0.00010353    0.00107026   -0.02108025
     atom   36 type  3   force =     0.00000000    0.00000000    0.00000000
     The Hubbard contrib.    to forces
     atom    1 type  1   force =     0.00000000    0.00000000    0.00000000
     atom    2 type  2   force =     0.00000000    0.00000000    0.00000000
     atom    3 type  2   force =     0.00000000    0.00000000    0.00000000
     atom    4 type  1   force =     0.00000000    0.00000000    0.00000000
     atom    5 type  2   force =     0.00000000    0.00000000    0.00000000
     atom    6 type  2   force =     0.00000000    0.00000000    0.00000000
     atom    7 type  1   force =     0.00000000    0.00000000    0.00000000
     atom    8 type  2   force =     0.00000000    0.00000000    0.00000000
     atom    9 type  2   force =     0.00000000    0.00000000    0.00000000
     atom   10 type  1   force =     0.00000000    0.00000000    0.00000000
     atom   11 type  2   force =     0.00000000    0.00000000    0.00000000
     atom   12 type  2   force =     0.00000000    0.00000000    0.00000000
     atom   13 type  1   force =     0.00000000    0.00000000    0.00000000
     atom   14 type  2   force =     0.00000000    0.00000000    0.00000000
     atom   15 type  2   force =     0.00000000    0.00000000    0.00000000
     atom   16 type  1   force =     0.00000000    0.00000000    0.00000000
     atom   17 type  2   force =     0.00000000    0.00000000    0.00000000
     atom   18 type  2   force =     0.00000000    0.00000000    0.00000000
     atom   19 type  1   force =     0.00000000    0.00000000    0.00000000
     atom   20 type  2   force =     0.00000000    0.00000000    0.00000000
     atom   21 type  1   force =     0.00000000    0.00000000    0.00000000
     atom   22 type  2   force =     0.00000000    0.00000000    0.00000000
     atom   23 type  2   force =     0.00000000    0.00000000    0.00000000
     atom   24 type  1   force =     0.00000000    0.00000000    0.00000000
     atom   25 type  2   force =     0.00000000    0.00000000    0.00000000
     atom   26 type  2   force =     0.00000000    0.00000000    0.00000000
     atom   27 type  1   force =     0.00000000    0.00000000    0.00000000
     atom   28 type  2   force =     0.00000000    0.00000000    0.00000000
     atom   29 type  2   force =     0.00000000    0.00000000    0.00000000
     atom   30 type  1   force =     0.00000000    0.00000000    0.00000000
     atom   31 type  2   force =     0.00000000    0.00000000    0.00000000
     atom   32 type  2   force =     0.00000000    0.00000000    0.00000000
     atom   33 type  1   force =     0.00000000    0.00000000    0.00000000
     atom   34 type  2   force =     0.00000000    0.00000000    0.00000000
     atom   35 type  2   force =     0.00000000    0.00000000    0.00000000
     atom   36 type  3   force =     0.00000000    0.00000000    0.00000000
     The SCF correction term to forces
     atom    1 type  1   force =     0.00019130    0.00004635   -0.00030388
     atom    2 type  2   force =     0.00001778    0.00006054   -0.00029527
     atom    3 type  2   force =     0.00000025    0.00001476    0.00001351
     atom    4 type  1   force =     0.00008743    0.00015091    0.00002763
     atom    5 type  2   force =     0.00015655    0.00003539   -0.00022827
     atom    6 type  2   force =     0.00010011   -0.00002030    0.00005064
     atom    7 type  1   force =     0.00039468   -0.00017256   -0.00006168
     atom    8 type  2   force =     0.00000339   -0.00003002   -0.00050954
     atom    9 type  2   force =    -0.00001685    0.00001812    0.00016838
     atom   10 type  1   force =     0.00004444   -0.00002639   -0.00038227
     atom   11 type  2   force =     0.00005542   -0.00009169   -0.00032237
     atom   12 type  2   force =     0.00001038   -0.00003181    0.00004702
     atom   13 type  1   force =    -0.00003684   -0.00005288   -0.00031690
     atom   14 type  2   force =     0.00002693    0.00003354   -0.00027451
     atom   15 type  2   force =     0.00003003   -0.00001738   -0.00000040
     atom   16 type  1   force =     0.00020722    0.00001023   -0.00016529
     atom   17 type  2   force =    -0.00004623   -0.00001610   -0.00021124
     atom   18 type  2   force =    -0.00002960   -0.00004578   -0.00000489
     atom   19 type  1   force =    -0.00000085    0.00004690   -0.00024885
     atom   20 type  2   force =     0.00009192    0.00006602    0.00001963
     atom   21 type  1   force =     0.00009600   -0.00000998   -0.00040890
     atom   22 type  2   force =    -0.00002673    0.00000648   -0.00024947
     atom   23 type  2   force =     0.00000396    0.00003560   -0.00001977
     atom   24 type  1   force =    -0.00013887    0.00013493   -0.00028549
     atom   25 type  2   force =    -0.00004654    0.00002550   -0.00026376
     atom   26 type  2   force =    -0.00003244   -0.00001069    0.00000099
     atom   27 type  1   force =    -0.00030656   -0.00001286   -0.00009772
     atom   28 type  2   force =    -0.00010766    0.00008046   -0.00024719
     atom   29 type  2   force =    -0.00006899   -0.00001572    0.00007353
     atom   30 type  1   force =    -0.00027836   -0.00011202   -0.00005313
     atom   31 type  2   force =    -0.00016398   -0.00001527   -0.00020760
     atom   32 type  2   force =    -0.00007646    0.00002724    0.00003988
     atom   33 type  1   force =    -0.00012661   -0.00001360   -0.00035373
     atom   34 type  2   force =    -0.00002722   -0.00008706   -0.00027268
     atom   35 type  2   force =    -0.00002040   -0.00000812    0.00004599
     atom   36 type  3   force =     0.00001195   -0.00001482   -0.00003000

     Total force =     0.144941     Total SCF correction =     0.001580
     Energy error            =      3.5E-02 Ry
     Gradient error          =      9.7E-02 Ry/Bohr

     number of scf cycles    =   2
     number of bfgs steps    =   1

     energy             old  =   -2205.5335085062 Ry
     energy             new  =   -2205.5685328930 Ry

     CASE: energy            _new < energy            _old

     new trust radius        =       0.0760054251 bohr
     new conv_thr            =       0.0000000967 Ry


ATOMIC_POSITIONS (angstrom)
Mo            6.5825257679        1.7718900415        2.8268386838
S             8.1643590050        0.8228506645        4.4348167644
S             8.1814983190        0.8197234273        1.2721722712
Mo            8.1045044399        4.4793140887        2.7089493669
S             6.4986040117        3.7142297248        4.3438273087
S             6.5571647470        3.5193681096        1.1220373376
Mo            6.4734186164        7.2215170963        2.6575769014
S             8.0713871660        6.3531294238        4.1468699839
S             8.0936013930        6.3095485063        1.0935846986
Mo            8.1526093667        9.9094758362        2.8242381297
S             6.4983747420        8.9490848735        4.3758659995
S             6.6149244461        9.0518475742        1.1421520896
Mo            3.4268615829        1.7523364513        2.7714103622
S             4.9816827940        0.8173595443        4.3593423762
S             5.0474608397        0.8474274171        1.2193821201
Mo            4.9788573580        4.5217312400        2.6341535429
S             3.4328845711        3.6727591642        4.2820501552
S             3.4336713973        3.5424484397        1.0707041125
Mo            3.4512009774        7.2061075956        2.6308651713
S             4.9880156828        6.3236960442        1.0373159009
Mo            5.0063896783        9.9065118551        2.7447595759
S             3.4684994200        8.9429647031        4.3243975657
S             3.4096477569        9.0681361217        1.1030442455
Mo            0.2893126904        1.7457563559        2.8334378765
S             1.8652183295        0.8089064816        4.4025290632
S             1.8512903146        0.8534656996        1.2056985787
Mo            1.8558605215        4.4937663364        2.6669095989
S             0.2728939611        3.6519460253        4.3327811564
S             0.2330073273        3.5272078980        1.1676081388
Mo            0.2802811801        7.2285557775        2.6984927390
S             1.9069605866        6.3132439536        4.2357844085
S             1.8522011969        6.3150621676        1.0522511601
Mo            1.8549948651        9.9348506462        2.7678734136
S             0.2979513802        9.0557039756        4.4014939629
S             0.2691806648        9.0518109082        1.1628780380
H             8.4310588036        6.0488233531        5.4722300217



     Writing config-only to output data dir ./MoS2-V-O.save/
     NEW-OLD atomic charge density approx. for the potential

     negative rho (up, down):  1.427E-04 0.000E+00

     total cpu time spent up to now is      225.7 secs

     Self-consistent Calculation

     iteration #  1     ecut=    80.00 Ry     beta= 0.70
     Davidson diagonalization with overlap
     ethr =  1.00E-06,  avg # of iterations = 10.0

     negative rho (up, down):  7.694E-05 0.000E+00

     total cpu time spent up to now is      239.1 secs

     total energy              =   -2205.58010212 Ry
     estimated scf accuracy    <       0.00240238 Ry

     iteration #  2     ecut=    80.00 Ry     beta= 0.70
     Davidson diagonalization with overlap
     ethr =  7.83E-07,  avg # of iterations =  2.0

     negative rho (up, down):  6.139E-05 0.000E+00

     total cpu time spent up to now is      255.2 secs

     total energy              =   -2205.58025555 Ry
     estimated scf accuracy    <       0.00072076 Ry

     iteration #  3     ecut=    80.00 Ry     beta= 0.70
     Davidson diagonalization with overlap
     ethr =  2.35E-07,  avg # of iterations =  2.0

     negative rho (up, down):  4.548E-05 0.000E+00

     total cpu time spent up to now is      272.2 secs

     total energy              =   -2205.58029092 Ry
     estimated scf accuracy    <       0.00016278 Ry

     iteration #  4     ecut=    80.00 Ry     beta= 0.70
     Davidson diagonalization with overlap
     ethr =  5.30E-08,  avg # of iterations =  4.0

     negative rho (up, down):  4.234E-05 0.000E+00

     total cpu time spent up to now is      285.9 secs

     total energy              =   -2205.58031332 Ry
     estimated scf accuracy    <       0.00002849 Ry

     iteration #  5     ecut=    80.00 Ry     beta= 0.70
     Davidson diagonalization with overlap
     ethr =  9.28E-09,  avg # of iterations =  6.0

     negative rho (up, down):  4.174E-05 0.000E+00

     total cpu time spent up to now is      297.9 secs

     total energy              =   -2205.58031817 Ry
     estimated scf accuracy    <       0.00001046 Ry

     iteration #  6     ecut=    80.00 Ry     beta= 0.70
     Davidson diagonalization with overlap
     ethr =  3.41E-09,  avg # of iterations =  2.0

     negative rho (up, down):  4.329E-05 0.000E+00

     total cpu time spent up to now is      311.9 secs

     total energy              =   -2205.58031881 Ry
     estimated scf accuracy    <       0.00000329 Ry

     iteration #  7     ecut=    80.00 Ry     beta= 0.70
     Davidson diagonalization with overlap
     ethr =  1.07E-09,  avg # of iterations =  4.0

     negative rho (up, down):  4.758E-05 0.000E+00

     total cpu time spent up to now is      323.8 secs

     total energy              =   -2205.58031934 Ry
     estimated scf accuracy    <       0.00000089 Ry

     iteration #  8     ecut=    80.00 Ry     beta= 0.70
     Davidson diagonalization with overlap
     ethr =  2.89E-10,  avg # of iterations =  5.0

     negative rho (up, down):  6.725E-05 0.000E+00

     total cpu time spent up to now is      335.0 secs

     total energy              =   -2205.58031947 Ry
     estimated scf accuracy    <       0.00000032 Ry

     iteration #  9     ecut=    80.00 Ry     beta= 0.70
     Davidson diagonalization with overlap
     ethr =  1.03E-10,  avg # of iterations =  5.0

     negative rho (up, down):  1.368E-04 0.000E+00

     total cpu time spent up to now is      337.5 secs

     End of self-consistent calculation

          k = 0.0000 0.0000 0.0000 (105382 PWs)   bands (ev):

   -62.8397 -62.7934 -62.7854 -62.7836 -62.7738 -62.7644 -62.7502 -62.7446
   -62.7085 -62.5751 -62.5561 -62.5257 -37.1660 -37.0930 -37.0860 -37.0515
   -37.0426 -37.0356 -37.0186 -37.0061 -36.9967 -36.9896 -36.9849 -36.9711
   -36.9564 -36.9543 -36.9478 -36.9402 -36.9314 -36.9298 -36.9239 -36.9114
   -36.8888 -36.8859 -36.8600 -36.8451 -36.8309 -36.8101 -36.7844 -36.7658
   -36.7494 -36.7434 -36.7242 -36.7062 -36.6858 -36.6646 -36.5454 -36.5052
   -16.4586 -15.7237 -15.1083 -14.9651 -14.8325 -14.7826 -14.6221 -14.4078
   -14.3839 -14.3591 -14.2931 -14.2559 -14.2417 -14.1969 -14.1303 -14.0842
   -14.0333 -14.0163 -13.9520 -13.8431 -13.7690 -13.7533 -13.7382  -9.1773
    -7.6650  -7.3873  -7.3599  -7.2808  -7.1602  -7.1222  -7.1066  -7.0309
    -6.7803  -6.7587  -6.7087  -6.6210  -6.5722  -6.4962  -6.4175  -6.3492
    -6.2954  -6.1823  -6.1381  -5.9252  -5.8750  -5.8235  -5.7880  -5.7065
    -5.6840  -5.6552  -5.6251  -5.6001  -5.5619  -5.4867  -5.4744  -5.4173
    -5.3938  -5.3683  -5.1184  -5.0619  -5.0249  -4.9817  -4.8915  -4.8744
    -4.8507  -4.7863  -4.6122  -4.5238  -4.4414  -4.2335  -4.2273  -4.1800
    -4.1605  -3.9636  -3.9487  -3.8941  -3.7604  -3.7251  -3.6753  -3.6613
    -3.5932  -3.5380  -3.4638  -3.4523  -3.4368  -3.3954  -3.3541  -3.3256
    -3.2906  -3.1798  -3.0749  -2.8232  -2.8071  -2.7353  -2.7080  -2.6675
    -2.6427  -2.6261  -2.5968  -2.5280  -2.4835  -2.1795  -1.9684  -1.9180
    -1.8962  -0.6904  -0.6461  -0.2527  -0.1174  -0.0674  -0.0175   0.0161
     0.1774   0.2186   0.2654   0.3582   0.3723   0.4103   0.4660   0.5120
     0.5436   0.6125   0.6416   0.6734   0.6969   0.7639   0.7891   0.8307
     0.8497   0.9002   0.9077   0.9492   1.0232   1.0614   1.1175   1.3384
     1.4453

     the Fermi energy is    -0.7349 ev

!    total energy              =   -2205.58031932 Ry
     estimated scf accuracy    <       0.00000008 Ry
     smearing contrib. (-TS)   =      -0.00875613 Ry
     internal energy E=F+TS    =   -2205.57156318 Ry

     The total energy is F=E-TS. E is the sum of the following terms:
     one-electron contribution =  -18062.83787911 Ry
     hartree contribution      =    9018.93738100 Ry
     xc contribution           =    -385.41869699 Ry
     ewald contribution        =    7223.74763192 Ry

     convergence has been achieved in   9 iterations

     negative rho (up, down):  1.368E-04 0.000E+00

     Forces acting on atoms (cartesian axes, Ry/au):

     atom    1 type  1   force =    -0.00170909   -0.00639927   -0.00221265
     atom    2 type  2   force =    -0.00625092    0.00722447   -0.00172644
     atom    3 type  2   force =    -0.00975919    0.00630560   -0.00966093
     atom    4 type  1   force =     0.00650533   -0.01129265   -0.00508109
     atom    5 type  2   force =     0.00112976   -0.00648782   -0.00425222
     atom    6 type  2   force =     0.00130668    0.00326155    0.00068810
     atom    7 type  1   force =    -0.00605131    0.00500641   -0.00444675
     atom    8 type  2   force =     0.02507661   -0.02348006    0.04865506
     atom    9 type  2   force =     0.00972736    0.00373102    0.00529757
     atom   10 type  1   force =    -0.00277392    0.00580319   -0.00505914
     atom   11 type  2   force =     0.00196257    0.00341528   -0.00802702
     atom   12 type  2   force =    -0.00532718    0.00454739   -0.00271333
     atom   13 type  1   force =     0.00308292    0.00220389   -0.00136974
     atom   14 type  2   force =     0.00369637    0.00052327    0.00572475
     atom   15 type  2   force =    -0.00680141    0.00099385   -0.00534887
     atom   16 type  1   force =    -0.00186425    0.00412811    0.00177624
     atom   17 type  2   force =     0.00416927    0.00162289    0.00252063
     atom   18 type  2   force =    -0.00263662   -0.00252052    0.00893670
     atom   19 type  1   force =     0.00110752   -0.00782133    0.00195576
     atom   20 type  2   force =    -0.00080023   -0.00341697   -0.00539138
     atom   21 type  1   force =    -0.00323519    0.00441682    0.00180380
     atom   22 type  2   force =    -0.00133369   -0.00151541   -0.00104241
     atom   23 type  2   force =     0.00128847    0.00063948    0.00339346
     atom   24 type  1   force =    -0.00299629   -0.00117743   -0.00572008
     atom   25 type  2   force =     0.00918756    0.01107253   -0.00166462
     atom   26 type  2   force =    -0.00498897   -0.00120504   -0.00330183
     atom   27 type  1   force =    -0.00275730   -0.00026506    0.00591174
     atom   28 type  2   force =    -0.00048042   -0.00398530   -0.00401716
     atom   29 type  2   force =     0.00386987   -0.00102221   -0.00719032
     atom   30 type  1   force =     0.00712106    0.00383563    0.00020385
     atom   31 type  2   force =     0.00253136   -0.00014819    0.00942108
     atom   32 type  2   force =    -0.00689040    0.00280146    0.00447704
     atom   33 type  1   force =     0.00311038    0.00061875    0.00193771
     atom   34 type  2   force =     0.00004533   -0.02177233   -0.01320565
     atom   35 type  2   force =    -0.00408527    0.00937578    0.00438466
     atom   36 type  3   force =    -0.01417676    0.01098224   -0.01565651
     The non-local contrib.  to forces
     atom    1 type  1   force =    -0.00347356    0.02482251   -0.01347832
     atom    2 type  2   force =    -0.00396884   -0.00572231   -0.26958922
     atom    3 type  2   force =    -0.01024590   -0.00836706    0.26657232
     atom    4 type  1   force =    -0.00464299   -0.00152793   -0.00176455
     atom    5 type  2   force =     0.01399206   -0.02866021   -0.24889292
     atom    6 type  2   force =     0.00010264    0.00538387    0.26439971
     atom    7 type  1   force =    -0.04393188   -0.01553331   -0.01140460
     atom    8 type  2   force =     0.08675376   -0.06869096    0.27091101
     atom    9 type  2   force =     0.00740327   -0.01043782    0.28620909
     atom   10 type  1   force =     0.00125709    0.00558294   -0.00275973
     atom   11 type  2   force =     0.00832512   -0.00083901   -0.25560549
     atom   12 type  2   force =    -0.01316648   -0.01704461    0.25921730
     atom   13 type  1   force =     0.00312454    0.02195789   -0.00588951
     atom   14 type  2   force =     0.00840040   -0.01105610   -0.26540017
     atom   15 type  2   force =    -0.00864876   -0.00544778    0.26170834
     atom   16 type  1   force =     0.00108015    0.04762665   -0.01957446
     atom   17 type  2   force =     0.00031122   -0.02598982   -0.25008914
     atom   18 type  2   force =    -0.00377060    0.00036791    0.27045933
     atom   19 type  1   force =     0.03277695   -0.00427973   -0.01375881
     atom   20 type  2   force =    -0.00302154   -0.01640919    0.25886932
     atom   21 type  1   force =    -0.00347204    0.02419083    0.00287777
     atom   22 type  2   force =    -0.00635975    0.00208823   -0.25834621
     atom   23 type  2   force =     0.00729521   -0.01571907    0.26497261
     atom   24 type  1   force =     0.00582646    0.01334520   -0.01198780
     atom   25 type  2   force =     0.00388869   -0.00094604   -0.26492916
     atom   26 type  2   force =     0.00165519   -0.01352400    0.26508492
     atom   27 type  1   force =     0.00376668    0.00886335    0.00693478
     atom   28 type  2   force =    -0.00759739   -0.02063922   -0.26258736
     atom   29 type  2   force =     0.00455851   -0.00101690    0.26376461
[...]
     atom   27 type  1   force =     0.00436948    0.01015725    0.00322402
     atom   28 type  2   force =    -0.00647230   -0.00783646   -0.26243616
     atom   29 type  2   force =    -0.00263492   -0.00938571    0.26974015
     atom   30 type  1   force =     0.01311260    0.02470316   -0.00150733
     atom   31 type  2   force =    -0.01735040    0.00131422   -0.25456135
     atom   32 type  2   force =     0.00377991   -0.01366922    0.26333382
     atom   33 type  1   force =     0.00407003    0.00816318    0.00060520
     atom   34 type  2   force =     0.00047630   -0.01934856   -0.26275760
     atom   35 type  2   force =     0.00000121   -0.01560244    0.26670140
     atom   36 type  3   force =    -0.00860949    0.00651518   -0.06032792
     The ionic contribution  to forces
     atom    1 type  1   force =    -0.15568841    0.66235090    2.15443826
     atom    2 type  2   force =    -0.25196812    0.09775250   38.78571124
     atom    3 type  2   force =     0.03674011   -0.05449733  -37.53722090
     atom    4 type  1   force =    -0.83535737    0.67080257    0.05256874
     atom    5 type  2   force =    -0.90988822    1.26672976   38.11231044
     atom    6 type  2   force =     0.04132879   -0.10557300  -37.97412674
     atom    7 type  1   force =    -2.93350979   -2.44107568    1.07284036
     atom    8 type  2   force =    -1.70264433    0.22462891   35.66546792
     atom    9 type  2   force =     0.24279717   -0.04336374  -37.56415820
     atom   10 type  1   force =    -0.37755190   -0.41747571    2.60386069
     atom   11 type  2   force =    -0.55607007   -1.44563762   38.55653655
     atom   12 type  2   force =     0.13780177    0.30462860  -38.15397473
     atom   13 type  1   force =     0.25514597    0.55756059    2.37097825
     atom   14 type  2   force =     0.03353868   -0.04636000   38.62134956
     atom   15 type  2   force =    -0.03260212   -0.14005723  -37.52121192
     atom   16 type  1   force =     1.07935073    3.49074335    1.66962167
     atom   17 type  2   force =     0.95882382    1.01406350   38.49747815
     atom   18 type  2   force =    -0.13943402   -0.36485001  -38.20907616
     atom   19 type  1   force =     3.38031005   -0.95119563    3.88006497
     atom   20 type  2   force =     0.14361313    0.04381219  -38.46988078
     atom   21 type  1   force =    -0.27969833   -0.58476601    1.63456747
     atom   22 type  2   force =     0.61075465   -1.38939794   38.48000939
     atom   23 type  2   force =    -0.16686213    0.10443745  -37.46633131
     atom   24 type  1   force =    -0.08750875    0.16636073    2.22377574
     atom   25 type  2   force =     0.20098082    0.03857643   38.92639298
     atom   26 type  2   force =    -0.00275660   -0.15392656  -37.53792714
     atom   27 type  1   force =    -0.04679545    0.19393801    0.16607593
     atom   28 type  2   force =    -0.02272536    0.37236967   38.20422057
     atom   29 type  2   force =     0.00948640   -0.05298163  -37.86578950
     atom   30 type  1   force =    -0.13547440   -0.42289872    2.68561326
     atom   31 type  2   force =     1.17562896    0.13568636   38.67121395
     atom   32 type  2   force =    -0.33291938    0.12884008  -38.00284547
     atom   33 type  1   force =     0.73335333   -0.48710518    3.14989593
     atom   34 type  2   force =    -0.06921013   -0.31702007   38.94212837
     atom   35 type  2   force =    -0.01416996    0.06622652  -37.43942412
     atom   36 type  3   force =     0.01318047   -0.12132605    8.61484657
     The local contribution  to forces
     atom    1 type  1   force =     0.16327881   -0.68272767   -2.14542716
     atom    2 type  2   force =     0.25059436   -0.08658673  -38.54079606
     atom    3 type  2   force =    -0.03460650    0.06539656   37.28966667
     atom    4 type  1   force =     0.83752850   -0.66686321   -0.04617770
     atom    5 type  2   force =     0.89941950   -1.25288121  -37.88342296
     atom    6 type  2   force =    -0.04415207    0.10806854   37.72739483
     atom    7 type  1   force =     2.96873956    2.44997068   -1.07155155
     atom    8 type  2   force =     1.64336369   -0.19490007  -35.91383911
     atom    9 type  2   force =    -0.23783115    0.05347681   37.30112442
     atom   10 type  1   force =     0.37903199    0.40838878   -2.60601770
     atom   11 type  2   force =     0.55274136    1.44991866  -38.32864755
     atom   12 type  2   force =    -0.13492174   -0.28830296   37.91207109
     atom   13 type  1   force =    -0.25941987   -0.57930935   -2.36897400
     atom   14 type  2   force =    -0.03381596    0.05759338  -38.37538026
     atom   15 type  2   force =     0.03131493    0.14652244   37.27962528
     atom   16 type  1   force =    -1.08740932   -3.54381155   -1.64267430
     atom   17 type  2   force =    -0.95563786   -0.99276965  -38.26400368
     atom   18 type  2   force =     0.14376795    0.36675052   37.96486635
     atom   19 type  1   force =    -3.42507381    0.94849908   -3.85558056
     atom   20 type  2   force =    -0.14559911   -0.03239898   38.22949839
     atom   21 type  1   force =     0.28291221    0.56058442   -1.63582498
     atom   22 type  2   force =    -0.60739068    1.39325791  -38.24148187
     atom   23 type  2   force =     0.15866480   -0.09025557   37.22053902
     atom   24 type  1   force =     0.08544504   -0.17825425   -2.22150716
     atom   25 type  2   force =    -0.20127934   -0.02865575  -38.68380616
     atom   26 type  2   force =     0.00068176    0.16325094   37.29232583
     atom   27 type  1   force =     0.04190748   -0.20491067   -0.16895298
     atom   28 type  2   force =     0.02860513   -0.36495114  -37.96171428
     atom   29 type  2   force =    -0.00708131    0.06234431   37.61732428
     atom   30 type  1   force =     0.12239394    0.39964522   -2.68412404
     atom   31 type  2   force =    -1.15906297   -0.13704820  -38.43761384
     atom   32 type  2   force =     0.33004411   -0.11643825   37.76020237
     atom   33 type  1   force =    -0.73676114    0.47883938   -3.15056928
     atom   34 type  2   force =     0.06880337    0.33568864  -38.70024457
     atom   35 type  2   force =     0.01403098   -0.05174496   37.19435309
     atom   36 type  3   force =    -0.00634110    0.11617760   -8.55542810
     The core correction contribution to forces
     atom    1 type  1   force =     0.00000000    0.00000000    0.00000000
     atom    2 type  2   force =    -0.00017597    0.00056958    0.02071584
     atom    3 type  2   force =     0.00010713    0.00046921   -0.02099851
     atom    4 type  1   force =     0.00000000    0.00000000    0.00000000
     atom    5 type  2   force =    -0.00095959    0.00051147    0.01981188
     atom    6 type  2   force =    -0.00031461   -0.00014955   -0.02084282
     atom    7 type  1   force =     0.00000000    0.00000000    0.00000000
     atom    8 type  2   force =    -0.00403363    0.00233765   -0.01044565
     atom    9 type  2   force =     0.00054990    0.00061942   -0.02150253
     atom   10 type  1   force =     0.00000000    0.00000000    0.00000000
     atom   11 type  2   force =    -0.00021396    0.00011545    0.01999786
     atom   12 type  2   force =     0.00031439    0.00120708   -0.02080617
     atom   13 type  1   force =     0.00000000    0.00000000    0.00000000
     atom   14 type  2   force =    -0.00005452    0.00028810    0.02082972
     atom   15 type  2   force =    -0.00014008    0.00017951   -0.02069335
     atom   16 type  1   force =     0.00000000    0.00000000    0.00000000
     atom   17 type  2   force =     0.00043420    0.00101751    0.02022986
     atom   18 type  2   force =     0.00008398   -0.00038124   -0.02083349
     atom   19 type  1   force =     0.00000000    0.00000000    0.00000000
     atom   20 type  2   force =    -0.00011464    0.00054703   -0.02110532
     atom   21 type  1   force =     0.00000000    0.00000000    0.00000000
     atom   22 type  2   force =     0.00005921   -0.00012909    0.02036453
     atom   23 type  2   force =    -0.00064354    0.00059338   -0.02072270
     atom   24 type  1   force =     0.00000000    0.00000000    0.00000000
     atom   25 type  2   force =     0.00005948    0.00048354    0.02064280
     atom   26 type  2   force =    -0.00010433    0.00028302   -0.02089674
     atom   27 type  1   force =     0.00000000    0.00000000    0.00000000
     atom   28 type  2   force =     0.00051152    0.00033248    0.02049180
     atom   29 type  2   force =     0.00019976    0.00029725   -0.02097135
     atom   30 type  1   force =     0.00000000    0.00000000    0.00000000
     atom   31 type  2   force =     0.00105104    0.00006006    0.02024388
     atom   32 type  2   force =    -0.00044376    0.00071491   -0.02083675
     atom   33 type  1   force =     0.00000000    0.00000000    0.00000000
     atom   34 type  2   force =    -0.00001444    0.00116373    0.02056801
     atom   35 type  2   force =    -0.00004314    0.00088136   -0.02097691
     atom   36 type  3   force =     0.00000000    0.00000000    0.00000000
     The Hubbard contrib.    to forces
     atom    1 type  1   force =     0.00000000    0.00000000    0.00000000
     atom    2 type  2   force =     0.00000000    0.00000000    0.00000000
     atom    3 type  2   force =     0.00000000    0.00000000    0.00000000
     atom    4 type  1   force =     0.00000000    0.00000000    0.00000000
     atom    5 type  2   force =     0.00000000    0.00000000    0.00000000
     atom    6 type  2   force =     0.00000000    0.00000000    0.00000000
     atom    7 type  1   force =     0.00000000    0.00000000    0.00000000
     atom    8 type  2   force =     0.00000000    0.00000000    0.00000000
     atom    9 type  2   force =     0.00000000    0.00000000    0.00000000
     atom   10 type  1   force =     0.00000000    0.00000000    0.00000000
     atom   11 type  2   force =     0.00000000    0.00000000    0.00000000
     atom   12 type  2   force =     0.00000000    0.00000000    0.00000000
     atom   13 type  1   force =     0.00000000    0.00000000    0.00000000
     atom   14 type  2   force =     0.00000000    0.00000000    0.00000000
     atom   15 type  2   force =     0.00000000    0.00000000    0.00000000
     atom   16 type  1   force =     0.00000000    0.00000000    0.00000000
     atom   17 type  2   force =     0.00000000    0.00000000    0.00000000
     atom   18 type  2   force =     0.00000000    0.00000000    0.00000000
     atom   19 type  1   force =     0.00000000    0.00000000    0.00000000
     atom   20 type  2   force =     0.00000000    0.00000000    0.00000000
     atom   21 type  1   force =     0.00000000    0.00000000    0.00000000
     atom   22 type  2   force =     0.00000000    0.00000000    0.00000000
     atom   23 type  2   force =     0.00000000    0.00000000    0.00000000
     atom   24 type  1   force =     0.00000000    0.00000000    0.00000000
     atom   25 type  2   force =     0.00000000    0.00000000    0.00000000
     atom   26 type  2   force =     0.00000000    0.00000000    0.00000000
     atom   27 type  1   force =     0.00000000    0.00000000    0.00000000
     atom   28 type  2   force =     0.00000000    0.00000000    0.00000000
     atom   29 type  2   force =     0.00000000    0.00000000    0.00000000
     atom   30 type  1   force =     0.00000000    0.00000000    0.00000000
     atom   31 type  2   force =     0.00000000    0.00000000    0.00000000
     atom   32 type  2   force =     0.00000000    0.00000000    0.00000000
     atom   33 type  1   force =     0.00000000    0.00000000    0.00000000
     atom   34 type  2   force =     0.00000000    0.00000000    0.00000000
     atom   35 type  2   force =     0.00000000    0.00000000    0.00000000
     atom   36 type  3   force =     0.00000000    0.00000000    0.00000000
     The SCF correction term to forces
     atom    1 type  1   force =    -0.00003464   -0.00003274    0.00004719
     atom    2 type  2   force =     0.00000029   -0.00002180    0.00002137
     atom    3 type  2   force =     0.00000056    0.00000720    0.00001284
     atom    4 type  1   force =    -0.00007059    0.00000399    0.00003271
     atom    5 type  2   force =    -0.00002502    0.00000570    0.00002104
     atom    6 type  2   force =    -0.00001750    0.00000145    0.00000134
     atom    7 type  1   force =    -0.00000036   -0.00002017    0.00008104
     atom    8 type  2   force =    -0.00003714    0.00001739    0.00002481
     atom    9 type  2   force =    -0.00001836   -0.00001001    0.00001069
     atom   10 type  1   force =    -0.00001460    0.00004456    0.00008402
     atom   11 type  2   force =     0.00000195    0.00000857    0.00005032
     atom   12 type  2   force =    -0.00000639    0.00001901    0.00000459
     atom   13 type  1   force =    -0.00002863   -0.00000177    0.00006178
     atom   14 type  2   force =     0.00000056   -0.00001043    0.00002370
     atom   15 type  2   force =    -0.00000582   -0.00000276    0.00000893
     atom   16 type  1   force =     0.00001958   -0.00002862    0.00003680
     atom   17 type  2   force =     0.00002236   -0.00001745    0.00002111
     atom   18 type  2   force =     0.00000083   -0.00001772    0.00000245
     atom   19 type  1   force =     0.00003003    0.00002299    0.00004317
     atom   20 type  2   force =     0.00000309   -0.00001800   -0.00000336
     atom   21 type  1   force =    -0.00004415    0.00005879    0.00007958
     atom   22 type  2   force =     0.00000946    0.00001916    0.00002988
     atom   23 type  2   force =    -0.00000164    0.00002067    0.00001415
     atom   24 type  1   force =     0.00000718   -0.00008952    0.00001570
     atom   25 type  2   force =     0.00001796   -0.00001753    0.00001301
     atom   26 type  2   force =     0.00001242    0.00000127    0.00001258
     atom   27 type  1   force =     0.00007699   -0.00003889   -0.00000624
     atom   28 type  2   force =     0.00000509   -0.00001656    0.00002134
     atom   29 type  2   force =     0.00001220   -0.00001307   -0.00001227
     atom   30 type  1   force =    -0.00002522    0.00003052    0.00005542
     atom   31 type  2   force =     0.00002498    0.00000470    0.00002443
     atom   32 type  2   force =     0.00001080   -0.00000865   -0.00000899
     atom   33 type  1   force =     0.00001672    0.00005553    0.00006143
     atom   34 type  2   force =    -0.00000017    0.00002144    0.00003318
     atom   35 type  2   force =     0.00000954    0.00002708    0.00000453
     atom   36 type  3   force =    -0.00000490    0.00000278    0.00000465

     Total force =     0.006570     Total SCF correction =     0.000310
     Energy error            =      8.2E-05 Ry
     Gradient error          =      3.0E-03 Ry/Bohr

     bfgs converged in  18 scf cycles and  17 bfgs steps
     (criteria: energy <  1.0E-04 Ry, force <  1.0E-02 Ry/Bohr)

     End of BFGS Geometry Optimization

     Final energy             =   -2205.5985896425 Ry

     File ./MoS2-V-O.bfgs deleted, as requested
Begin final coordinates

ATOMIC_POSITIONS (angstrom)
Mo            6.5581769874        1.7607399248        2.7510878542
S             8.1313641566        0.8513571174        4.3618334388
S             8.1425258566        0.8416642304        1.1698243075
Mo            8.1319678523        4.4614271958        2.7090065888
S             6.5038691702        3.6558304952        4.3045412718
S             6.5575539788        3.5643524006        1.1069923783
Mo            6.5387483571        7.2250604203        2.6473317078
S             8.0953314439        6.3003579194        4.2315727782
S             8.1743345727        6.3226555888        1.1320596040
Mo            8.1439028631        9.9401996688        2.7645614188
S             6.5308766620        8.9740801915        4.3243235316
S             6.5862634547        9.0616895296        1.1134251492
Mo            3.4264131982        1.7606652188        2.7562654774
S             4.9913630908        0.8275785472        4.3427091677
S             4.9897861775        0.8375636025        1.1676868983
Mo            4.9653854820        4.5433182459        2.6551590547
S             3.4512320674        3.6657857480        4.3166440969
S             3.4312534609        3.5620080960        1.1046008644
Mo            3.4711733138        7.1380806716        2.6963567936
S             5.0088861540        6.3284206387        1.0514744018
Mo            4.9974546468        9.9152055620        2.7387033992
S             3.4694442777        8.9390055178        4.3337052151
S             3.4106385649        9.0173696440        1.1478889048
Mo            0.2747948683        1.7365669845        2.7643653074
S             1.8663813921        0.8489205415        4.3695997576
S             1.8518977493        0.8306095406        1.1745655619
Mo            1.8587951682        4.4892363196        2.7106587239
S             0.2698827851        3.5886626473        4.3165616198
S             0.2666763403        3.5442729193        1.1366906979
Mo            0.3014051254        7.2218413190        2.7593304190
S             1.9263346952        6.2833990819        4.3311364066
S             1.8553324064        6.3255485749        1.1220734510
Mo            1.8596216882        9.9347996940        2.7759969088
S             0.2749868020        9.0445603893        4.3708768651
S             0.2804763713        9.0504649049        1.1791446826
H             8.2838247196        6.1592584297        5.5875681150
End final coordinates



     Writing all to output data dir ./MoS2-V-O.save/
 
     init_run     :      3.10s CPU      3.37s WALL (       1 calls)
     electrons    :   1657.48s CPU   1854.94s WALL (      18 calls)
     update_pot   :     24.17s CPU     25.49s WALL (      17 calls)
     forces       :     25.21s CPU     29.77s WALL (      18 calls)

     Called by init_run:
     wfcinit      :      0.40s CPU      0.44s WALL (       1 calls)
     potinit      :      2.02s CPU      2.15s WALL (       1 calls)
     hinit0       :      0.16s CPU      0.18s WALL (       1 calls)

     Called by electrons:
     c_bands      :    208.11s CPU    211.95s WALL (     158 calls)
     sum_band     :     47.26s CPU     64.78s WALL (     158 calls)
     v_of_rho     :     71.46s CPU     88.19s WALL (     167 calls)
     newd         :     24.26s CPU     40.84s WALL (     167 calls)
     mix_rho      :   1315.00s CPU   1458.12s WALL (     158 calls)

     Called by c_bands:
     init_us_2    :      3.34s CPU      3.62s WALL (     317 calls)
     init_us_2:cp :      3.34s CPU      3.62s WALL (     317 calls)
     regterg      :    196.31s CPU    199.82s WALL (     158 calls)

     Called by *egterg:
     rdiaghg      :     14.74s CPU     14.89s WALL (     823 calls)
     h_psi        :    107.68s CPU    108.75s WALL (     850 calls)
     s_psi        :     12.89s CPU     12.95s WALL (     850 calls)
     g_psi        :      1.25s CPU      1.26s WALL (     691 calls)

     Called by h_psi:
     h_psi:calbec :     14.79s CPU     14.85s WALL (     850 calls)
     vloc_psi     :     77.83s CPU     78.73s WALL (     850 calls)
     add_vuspsi   :     12.86s CPU     12.94s WALL (     850 calls)

     General routines
     calbec       :     21.12s CPU     21.21s WALL (    1080 calls)
     fft          :     46.46s CPU     54.22s WALL (   11239 calls)
     ffts         :    593.92s CPU    732.30s WALL (  320770 calls)
     fftw         :     66.99s CPU     67.68s WALL (   95796 calls)
     interpolate  :      1.24s CPU      1.45s WALL (     167 calls)
 
     Parallel routines
 
     PWSCF        :  28m33.42s CPU  31m59.72s WALL

 
   This run was terminated on:   5:30:34   4Nov2023            

=------------------------------------------------------------------------------=
   JOB DONE.
=------------------------------------------------------------------------------=
