
     Program PWSCF v.7.2 starts on  4Nov2023 at  6:57:16 

     This program is part of the open-source Quantum ESPRESSO suite
     for quantum simulation of materials; please cite
         "P. Giannozzi et al., J. Phys.:Condens. Matter 21 395502 (2009);
         "P. Giannozzi et al., J. Phys.:Condens. Matter 29 465901 (2017);
         "P. Giannozzi et al., J. Chem. Phys. 152 154105 (2020);
          URL http://www.quantum-espresso.org", 
     in publications or presentations arising from this work. More details at
     http://www.quantum-espresso.org/quote

     Parallel version (MPI & OpenMP), running on      48 processor cores
     Number of MPI processes:                48
     Threads/MPI process:                     1

     MPI processes distributed on     1 nodes
     14626 MiB available memory on the printing compute node when the environment starts
 
     Waiting for input...
     Reading input from standard input
Warning: card &CELL ignored
Warning: card CELL_DYNAMICS = 'BFGS', ignored
Warning: card CELL_DOFREE = '2DXY' ignored
Warning: card / ignored

     Current dimensions of program PWSCF are:
     Max number of different atomic species (ntypx) = 10
     Max number of k-points (npk) =  40000
     Max angular momentum in pseudopotentials (lmaxx) =  4

     IMPORTANT: XC functional enforced from input :
     Exchange-correlation= RVV10
                           (   1   4  13   4  26   0   0)
     Any further DFT definition will be discarded
     Please, verify this is what you really want


     gamma-point specific algorithms are used
     signal trapping enabled: kill the code with -SIGUSR1 to stop cleanly the simulation 
 
     R & G space division:  proc/nbgrp/npool/nimage =      48
     Subspace diagonalization in iterative solution of the eigenvalue problem:
     one sub-group per band group will be used
     scalapack distributed-memory algorithm (size of sub-group:  2*  2 procs)

 
     Parallelization info
     --------------------
     sticks:   dense  smooth     PW     G-vecs:    dense   smooth      PW
     Min         243     194     47                49060    35090    4376
     Max         246     196     50                49086    35128    4410
     Sum       11735    9389   2349              2355467  1685513  210763
 
     Using Slab Decomposition
 


     bravais-lattice index     =            0
     lattice parameter (alat)  =      17.8707  a.u.
     unit-cell volume          =   17436.2743 (a.u.)^3
     number of atoms/cell      =           36
     number of atomic types    =            3
     number of electrons       =       307.00
     number of Kohn-Sham states=          185
     kinetic-energy cutoff     =      80.0000  Ry
     charge density cutoff     =     400.0000  Ry
     scf convergence threshold =      1.0E-06
     mixing beta               =       0.7000
     number of iterations used =            8  local-TF  mixing
     energy convergence thresh.=      1.0E-04
     force convergence thresh. =      1.0E-02
     Exchange-correlation= RVV10
                           (   1   4  13   4  26   0   0)
     nstep                     =          200


     celldm(1)=  17.870686  celldm(2)=   0.000000  celldm(3)=   0.000000
     celldm(4)=   0.000000  celldm(5)=   0.000000  celldm(6)=   0.000000

     crystal axes: (cart. coord. in units of alat)
               a(1) = (   1.000000   0.000000   0.000000 )  
               a(2) = (   0.000000   1.155671   0.000000 )  
               a(3) = (   0.000000   0.000000   2.643601 )  

     reciprocal axes: (cart. coord. in units 2 pi/alat)
               b(1) = (  1.000000  0.000000  0.000000 )  
               b(2) = (  0.000000  0.865298  0.000000 )  
               b(3) = (  0.000000  0.000000  0.378272 )  


     PseudoPot. # 1 for Mo read from file:
     ../pseudo/Mo_ONCV_PBE-1.0.oncvpsp.upf
     MD5 check sum: 1b5d28e075c9ccadda658a603575cd1f
     Pseudo is Norm-conserving, Zval = 14.0
     Generated using ONCVPSP code by D. R. Hamann
     Using radial grid of 1526 points,  6 beta functions with: 
                l(1) =   0
                l(2) =   0
                l(3) =   1
                l(4) =   1
                l(5) =   2
                l(6) =   2

     PseudoPot. # 2 for S  read from file:
     ../pseudo/s_pbe_v1.4.uspp.F.UPF
     MD5 check sum: 88d86576ff6df21479756cfb9bdac1df
     Pseudo is Ultrasoft + core correction, Zval =  6.0
     Generated by new atomic code, or converted to UPF format
     Using radial grid of  907 points,  6 beta functions with: 
                l(1) =   0
                l(2) =   0
                l(3) =   1
                l(4) =   1
                l(5) =   2
                l(6) =   2
     Q(r) pseudized with  8 coefficients,  rinner =    1.300   1.300   1.300
                                                       1.300   1.300

     PseudoPot. # 3 for H  read from file:
     ../pseudo/H_ONCV_PBE-1.0.oncvpsp.upf
     MD5 check sum: 1790becc920ee074925cf490c71280fe
     Pseudo is Norm-conserving, Zval =  1.0
     Generated using ONCVPSP code by D. R. Hamann
     Using radial grid of 1166 points,  2 beta functions with: 
                l(1) =   0
                l(2) =   0

     atomic species   valence    mass     pseudopotential
        Mo            14.00    95.94000     Mo( 1.00)
        S              6.00    32.06500     S ( 1.00)
        H              1.00     1.00794     H ( 1.00)

     No symmetry found



   Cartesian axes

     site n.     atom                  positions (alat units)
         1           Mo  tau(   1) = (   0.6952221   0.1890506   0.2985846  )
         2           S   tau(   2) = (   0.8646417   0.0856217   0.4689279  )
         3           S   tau(   3) = (   0.8663890   0.0857843   0.1351291  )
         4           Mo  tau(   4) = (   0.8560186   0.4753274   0.2873942  )
         5           S   tau(   5) = (   0.6873294   0.3936244   0.4596353  )
         6           S   tau(   6) = (   0.6929804   0.3713468   0.1185692  )
         7           Mo  tau(   7) = (   0.6862796   0.7633098   0.2825370  )
         8           S   tau(   8) = (   0.8545980   0.6708292   0.4486168  )
         9           S   tau(   9) = (   0.8545123   0.6666874   0.1146125  )
        10           Mo  tau(  10) = (   0.8629403   1.0471007   0.3006803  )
        11           S   tau(  11) = (   0.6868280   0.9456650   0.4634891  )
        12           S   tau(  12) = (   0.6998113   0.9568511   0.1205389  )
        13           Mo  tau(  13) = (   0.3618216   0.1847309   0.2935964  )
        14           S   tau(  14) = (   0.5260962   0.0863870   0.4600448  )
        15           S   tau(  15) = (   0.5348379   0.0894875   0.1297123  )
        16           Mo  tau(  16) = (   0.5265817   0.4772436   0.2784130  )
        17           S   tau(  17) = (   0.3624753   0.3882513   0.4525556  )
        18           S   tau(  18) = (   0.3635411   0.3752055   0.1119148  )
        19           Mo  tau(  19) = (   0.3652268   0.7630864   0.2781795  )
        20           S   tau(  20) = (   0.5269494   0.6690381   0.1096838  )
        21           Mo  tau(  21) = (   0.5300192   1.0470394   0.2900995  )
        22           S   tau(  22) = (   0.3670346   0.9457522   0.4574073  )
        23           S   tau(  23) = (   0.3604225   0.9585725   0.1159032  )
        24           Mo  tau(  24) = (   0.0313099   0.1847895   0.3013130  )
        25           S   tau(  25) = (   0.1956761   0.0838230   0.4650863  )
        26           S   tau(  26) = (   0.1967693   0.0903508   0.1278874  )
        27           Mo  tau(  27) = (   0.1967578   0.4753919   0.2813011  )
        28           S   tau(  28) = (   0.0287851   0.3864324   0.4586755  )
        29           S   tau(  29) = (   0.0244514   0.3729871   0.1239344  )
        30           Mo  tau(  30) = (   0.0286728   0.7631204   0.2856894  )
        31           S   tau(  31) = (   0.2011512   0.6675435   0.4465001  )
        32           S   tau(  32) = (   0.1969214   0.6672839   0.1104564  )
        33           Mo  tau(  33) = (   0.1950294   1.0511147   0.2932237  )
        34           S   tau(  34) = (   0.0312912   0.9612169   0.4667423  )
        35           S   tau(  35) = (   0.0292670   0.9563028   0.1216485  )
        36           H   tau(  36) = (   0.8888889   0.7704471   0.5656742  )

     number of k points=     1  Gaussian smearing, width (Ry)=  0.0100
                       cart. coord. in units 2pi/alat
        k(    1) = (   0.0000000   0.0000000   0.0000000), wk =   2.0000000

     Dense  grid:  1177734 G-vectors     FFT dimensions: ( 120, 135, 320)

     Smooth grid:   842757 G-vectors     FFT dimensions: ( 108, 120, 270)

     Estimated max dynamical RAM per process >     146.59 MB

     Estimated total dynamical RAM >       6.87 GB

     Initial potential from superposition of free atoms

     starting charge     306.9873, renormalised to     307.0000

     negative rho (up, down):  1.408E-04 0.000E+00


---------------------------------------------------------------------------------
Carrying out rVV10 run using the following parameters:
Nqs =      20    Nr_points =    1024   r_max =   100.000
b_value =  6.30000    beta =  0.00901
     q_mesh =  0.00010000  0.00030000  0.00058939  0.00100810
               0.00161396  0.00249058  0.00375900  0.00559430
               0.00824984  0.01209221  0.01765183  0.02569619
               0.03733578  0.05417739  0.07854596  0.11380545
               0.16482331  0.23864234  0.34545298  0.50000000

Gradients computed in Reciprocal space

---------------------------------------------------------------------------------


     Starting wfcs are  213 randomized atomic wfcs

     total cpu time spent up to now is       10.5 secs

     Self-consistent Calculation

     iteration #  1     ecut=    80.00 Ry     beta= 0.70
     Davidson diagonalization with overlap
     ethr =  1.00E-02,  avg # of iterations =  2.0

     Threshold (ethr) on eigenvalues was too large:
     Diagonalizing with lowered threshold

     Davidson diagonalization with overlap
     ethr =  3.70E-04,  avg # of iterations =  4.0

     negative rho (up, down):  2.384E-08 0.000E+00

     total cpu time spent up to now is       37.6 secs

     total energy              =   -2205.62901605 Ry
     estimated scf accuracy    <       1.42013261 Ry

     iteration #  2     ecut=    80.00 Ry     beta= 0.70
     Davidson diagonalization with overlap
     ethr =  4.63E-04,  avg # of iterations =  2.0

     total cpu time spent up to now is       40.1 secs

     total energy              =   -2205.46648059 Ry
     estimated scf accuracy    <       0.58318478 Ry

     iteration #  3     ecut=    80.00 Ry     beta= 0.70
     Davidson diagonalization with overlap
     ethr =  1.90E-04,  avg # of iterations =  4.0

     total cpu time spent up to now is       42.6 secs

     total energy              =   -2205.55392573 Ry
     estimated scf accuracy    <       0.06638718 Ry

     iteration #  4     ecut=    80.00 Ry     beta= 0.70
     Davidson diagonalization with overlap
     ethr =  2.16E-05,  avg # of iterations = 18.0

     total cpu time spent up to now is       46.2 secs

     total energy              =   -2205.55791411 Ry
     estimated scf accuracy    <       0.02820647 Ry

     iteration #  5     ecut=    80.00 Ry     beta= 0.70
     Davidson diagonalization with overlap
     ethr =  9.19E-06,  avg # of iterations =  2.0

     total cpu time spent up to now is       48.4 secs

     total energy              =   -2205.55765333 Ry
     estimated scf accuracy    <       0.01831169 Ry

     iteration #  6     ecut=    80.00 Ry     beta= 0.70
     Davidson diagonalization with overlap
     ethr =  5.96E-06,  avg # of iterations =  2.0

     total cpu time spent up to now is       50.5 secs

     total energy              =   -2205.55656615 Ry
     estimated scf accuracy    <       0.01282762 Ry

     iteration #  7     ecut=    80.00 Ry     beta= 0.70
     Davidson diagonalization with overlap
     ethr =  4.18E-06,  avg # of iterations =  1.0

     negative rho (up, down):  1.563E-04 0.000E+00

     total cpu time spent up to now is       56.6 secs

     total energy              =   -2205.55451687 Ry
     estimated scf accuracy    <       0.00760567 Ry

     iteration #  8     ecut=    80.00 Ry     beta= 0.70
     Davidson diagonalization with overlap
     ethr =  2.48E-06,  avg # of iterations =  8.0

     negative rho (up, down):  1.753E-02 0.000E+00

     total cpu time spent up to now is       61.1 secs

     total energy              =   -2205.55446812 Ry
     estimated scf accuracy    <       0.00343392 Ry

     iteration #  9     ecut=    80.00 Ry     beta= 0.70
     Davidson diagonalization with overlap
     ethr =  1.12E-06,  avg # of iterations =  2.0

     negative rho (up, down):  2.923E-02 0.000E+00

     total cpu time spent up to now is       64.8 secs

     total energy              =   -2205.55428170 Ry
     estimated scf accuracy    <       0.00204361 Ry

     iteration # 10     ecut=    80.00 Ry     beta= 0.70
     Davidson diagonalization with overlap
     ethr =  6.66E-07,  avg # of iterations =  2.0

     negative rho (up, down):  2.941E-02 0.000E+00

     total cpu time spent up to now is       69.1 secs

     total energy              =   -2205.55444909 Ry
     estimated scf accuracy    <       0.00069714 Ry

     iteration # 11     ecut=    80.00 Ry     beta= 0.70
     Davidson diagonalization with overlap
     ethr =  2.27E-07,  avg # of iterations =  2.0

     negative rho (up, down):  9.931E-03 0.000E+00

     total cpu time spent up to now is       74.7 secs

     total energy              =   -2205.55444852 Ry
     estimated scf accuracy    <       0.00021971 Ry

     iteration # 12     ecut=    80.00 Ry     beta= 0.70
     Davidson diagonalization with overlap
     ethr =  7.16E-08,  avg # of iterations =  5.0

     negative rho (up, down):  2.427E-03 0.000E+00

     total cpu time spent up to now is       81.0 secs

     total energy              =   -2205.55449635 Ry
     estimated scf accuracy    <       0.00002502 Ry

     iteration # 13     ecut=    80.00 Ry     beta= 0.70
     Davidson diagonalization with overlap
     ethr =  8.15E-09,  avg # of iterations =  5.0

     negative rho (up, down):  8.458E-04 0.000E+00

     total cpu time spent up to now is       89.3 secs

     total energy              =   -2205.55451294 Ry
     estimated scf accuracy    <       0.00000489 Ry

     iteration # 14     ecut=    80.00 Ry     beta= 0.70
     Davidson diagonalization with overlap
     ethr =  1.59E-09,  avg # of iterations =  3.0

     negative rho (up, down):  2.729E-04 0.000E+00

     total cpu time spent up to now is       99.5 secs

     total energy              =   -2205.55451324 Ry
     estimated scf accuracy    <       0.00000134 Ry

     iteration # 15     ecut=    80.00 Ry     beta= 0.70
     Davidson diagonalization with overlap
     ethr =  4.37E-10,  avg # of iterations =  4.0

     negative rho (up, down):  1.371E-04 0.000E+00

     total cpu time spent up to now is      101.5 secs

     End of self-consistent calculation

          k = 0.0000 0.0000 0.0000 (105382 PWs)   bands (ev):

   -62.8626 -62.8480 -62.8449 -62.8144 -62.8013 -62.7939 -62.7791 -62.7609
   -62.7592 -62.7425 -62.6704 -62.6239 -37.1948 -37.1322 -37.1142 -37.1083
   -37.0930 -37.0731 -37.0612 -37.0459 -37.0345 -37.0333 -37.0226 -37.0199
   -37.0050 -36.9934 -36.9817 -36.9788 -36.9707 -36.9663 -36.9647 -36.9404
   -36.9283 -36.9138 -36.9051 -36.8892 -36.8850 -36.8670 -36.8541 -36.8435
   -36.8295 -36.8235 -36.8072 -36.8021 -36.7747 -36.7595 -36.6692 -36.6202
   -16.1016 -15.5904 -15.1506 -15.0043 -14.8913 -14.8105 -14.6411 -14.4566
   -14.4279 -14.3972 -14.3487 -14.2952 -14.2777 -14.2403 -14.1439 -14.1056
   -14.0800 -14.0714 -13.9910 -13.8739 -13.8194 -13.7959 -13.7636  -8.6529
    -7.6234  -7.4252  -7.3201  -7.2152  -7.1750  -7.1526  -7.0952  -7.0275
    -6.8043  -6.7857  -6.7374  -6.6375  -6.5638  -6.5339  -6.3956  -6.3843
    -6.3273  -6.2192  -6.1521  -5.9156  -5.9065  -5.8684  -5.8137  -5.7544
    -5.7292  -5.6839  -5.6532  -5.6236  -5.5938  -5.5065  -5.4939  -5.4729
    -5.4127  -5.3992  -5.1401  -5.0989  -5.0748  -4.9780  -4.9583  -4.9155
    -4.8843  -4.7963  -4.6298  -4.5078  -4.4015  -4.2704  -4.2660  -4.2125
    -4.1997  -4.0048  -3.9804  -3.9095  -3.7934  -3.7753  -3.7028  -3.6921
    -3.6359  -3.5571  -3.4968  -3.4585  -3.4508  -3.4331  -3.3958  -3.3590
    -3.3272  -3.2122  -3.1236  -2.8678  -2.8509  -2.7642  -2.7588  -2.6878
    -2.6778  -2.6415  -2.6185  -2.5873  -2.5349  -2.2573  -1.9696  -1.9510
    -1.9045  -1.0361  -0.7343  -0.4593  -0.1485  -0.1190  -0.0702   0.0140
     0.0577   0.1647   0.2592   0.2807   0.3107   0.3321   0.4268   0.4487
     0.4940   0.5518   0.5911   0.6001   0.6401   0.6967   0.7406   0.7976
     0.8243   0.8311   0.8809   0.9284   0.9832   1.0005   1.0823   1.3519
     1.4279

     the Fermi energy is    -1.0363 ev

!    total energy              =   -2205.55451326 Ry
     estimated scf accuracy    <       0.00000051 Ry
     smearing contrib. (-TS)   =      -0.00568277 Ry
     internal energy E=F+TS    =   -2205.54883049 Ry

     The total energy is F=E-TS. E is the sum of the following terms:
     one-electron contribution =  -18047.62941190 Ry
     hartree contribution      =    9010.90764686 Ry
     xc contribution           =    -385.30036044 Ry
     ewald contribution        =    7216.47329499 Ry

     convergence has been achieved in  15 iterations

     negative rho (up, down):  1.371E-04 0.000E+00

     Forces acting on atoms (cartesian axes, Ry/au):

     atom    1 type  1   force =     0.01351894   -0.02530640    0.00524476
     atom    2 type  2   force =    -0.01521200    0.01665124    0.00086008
     atom    3 type  2   force =    -0.01287340    0.01070143   -0.00283448
     atom    4 type  1   force =    -0.00030222   -0.02648437   -0.02898419
     atom    5 type  2   force =    -0.00532067   -0.01101508   -0.00500400
     atom    6 type  2   force =     0.00886568    0.01117072    0.00278904
     atom    7 type  1   force =     0.00966065   -0.00168021   -0.00276994
     atom    8 type  2   force =     0.00406031    0.06615577    0.06310895
     atom    9 type  2   force =     0.01311184    0.00406855    0.01341028
     atom   10 type  1   force =    -0.00938425    0.00943676   -0.02981710
     atom   11 type  2   force =     0.00732880   -0.00465522   -0.00703935
     atom   12 type  2   force =    -0.00119284    0.00175950    0.00496803
     atom   13 type  1   force =     0.00616996    0.00652547   -0.00700687
     atom   14 type  2   force =     0.00718001    0.00082940    0.01115022
     atom   15 type  2   force =    -0.01179089    0.00260154   -0.00769850
     atom   16 type  1   force =    -0.00371176    0.00755110    0.00122302
     atom   17 type  2   force =     0.00491514    0.00063543    0.00271916
     atom   18 type  2   force =    -0.00249942   -0.00660884    0.01372872
     atom   19 type  1   force =     0.00241158   -0.02009231   -0.00080879
     atom   20 type  2   force =     0.00378564   -0.00401695    0.00003969
     atom   21 type  1   force =    -0.00652412    0.00539175   -0.00108478
     atom   22 type  2   force =    -0.00284720   -0.00062008   -0.00355774
     atom   23 type  2   force =    -0.00078062    0.00340821    0.00978907
     atom   24 type  1   force =    -0.00675947   -0.00501647   -0.02231010
     atom   25 type  2   force =     0.01705630    0.01893472    0.00801580
     atom   26 type  2   force =    -0.01184050   -0.00081840   -0.00405366
     atom   27 type  1   force =    -0.00372317    0.00167968    0.00749445
     atom   28 type  2   force =     0.00394322   -0.00505871   -0.00463305
     atom   29 type  2   force =     0.00007594   -0.00023299   -0.00168133
     atom   30 type  1   force =     0.00336680    0.01264458   -0.01913928
     atom   31 type  2   force =     0.00313109   -0.00028565    0.01644558
     atom   32 type  2   force =    -0.00776743    0.00649631    0.00847339
     atom   33 type  1   force =     0.01572524   -0.00469339   -0.01088839
     atom   34 type  2   force =     0.00005631   -0.04469554   -0.00868776
     atom   35 type  2   force =    -0.00936530    0.00643832    0.01533075
     atom   36 type  3   force =    -0.01246821   -0.03179986   -0.01679168
     The non-local contrib.  to forces
     atom    1 type  1   force =    -0.00233115    0.03079745   -0.01523752
     atom    2 type  2   force =    -0.01008592    0.00198090   -0.26994683
     atom    3 type  2   force =    -0.01425888   -0.00232805    0.27159901
     atom    4 type  1   force =    -0.00070701    0.00843673   -0.01366467
     atom    5 type  2   force =    -0.00175315   -0.04069189   -0.24728717
     atom    6 type  2   force =     0.00423529    0.01316642    0.26504397
     atom    7 type  1   force =    -0.02472908   -0.00869783   -0.01703624
     atom    8 type  2   force =     0.08425340    0.22036884    0.09656814
     atom    9 type  2   force =     0.00828057   -0.00524958    0.28400098
     atom   10 type  1   force =     0.00499635    0.00334705    0.00000666
     atom   11 type  2   force =     0.01718939    0.00152122   -0.24812924
     atom   12 type  2   force =    -0.00932463   -0.01990707    0.26233479
     atom   13 type  1   force =     0.00052624    0.01878764   -0.00343280
     atom   14 type  2   force =     0.01086274   -0.01162997   -0.26215680
     atom   15 type  2   force =    -0.01299500   -0.00547066    0.26056188
     atom   16 type  1   force =     0.00616879    0.03456483   -0.02491077
     atom   17 type  2   force =     0.00116126   -0.02867200   -0.24752343
     atom   18 type  2   force =    -0.00450527   -0.00299516    0.27312534
     atom   19 type  1   force =     0.02352510    0.00272361   -0.01728666
     atom   20 type  2   force =    -0.00250684   -0.02099708    0.26435630
     atom   21 type  1   force =     0.00240538    0.02844396    0.00566908
     atom   22 type  2   force =    -0.00942228    0.00158364   -0.25654881
     atom   23 type  2   force =     0.00798547   -0.01265443    0.26773359
     atom   24 type  1   force =     0.00547795    0.01417599   -0.01199629
     atom   25 type  2   force =     0.01139974    0.00656464   -0.25720345
     atom   26 type  2   force =    -0.00391813   -0.01372170    0.26335958
     atom   27 type  1   force =     0.00055232    0.00754989    0.01080920
     atom   28 type  2   force =    -0.00123501   -0.03048350   -0.26964475
     atom   29 type  2   force =    -0.00022689    0.00386900    0.26655970
     atom   30 type  1   force =     0.00163809    0.01885505    0.01533387
     atom   31 type  2   force =    -0.01049366    0.00367752   -0.24770114
     atom   32 type  2   force =    -0.00095627   -0.01200620    0.27062579
     atom   33 type  1   force =    -0.00385320    0.01038329    0.00381490
     atom   34 type  2   force =    -0.00415982   -0.04152789   -0.24692377
     atom   35 type  2   force =    -0.00212695   -0.01288911    0.27169591
     atom   36 type  3   force =    -0.00953254   -0.02700758   -0.03148104
     The ionic contribution  to forces
     atom    1 type  1   force =     0.34071748    0.22874263    5.68735258
     atom    2 type  2   force =    -0.67003535    0.49082451   39.27088450
     atom    3 type  2   force =    -0.16568480    0.03943503  -36.09421577
     atom    4 type  1   force =     0.05777693    0.26802923    0.42900380
     atom    5 type  2   force =    -1.03322569    1.37233619   38.72678592
     atom    6 type  2   force =     0.33041215   -0.53007045  -38.03583758
     atom    7 type  1   force =    -2.96386410   -2.78720166    2.10299156
     atom    8 type  2   force =    -1.30936253   -0.91794056   36.29484083
     atom    9 type  2   force =     0.33253384   -0.06633422  -38.10461000
     atom   10 type  1   force =    -1.13228823    0.04906369    5.37874215
     atom   11 type  2   force =    -0.85237388   -1.33862738   39.00383951
     atom   12 type  2   force =     0.41120420    0.73175838  -37.90930714
     atom   13 type  1   force =     0.48860218    0.98671304    2.87256442
     atom   14 type  2   force =     0.03258135    0.02939571   38.52183599
     atom   15 type  2   force =     0.14753027   -0.05022463  -36.79754971
     atom   16 type  1   force =    -0.10765185    3.82712203    0.42690615
     atom   17 type  2   force =     0.82012454    1.44880384   37.93387864
     atom   18 type  2   force =    -0.15859023   -0.66455475  -38.56004869
     atom   19 type  1   force =     2.74966516   -2.44422365    0.55741769
     atom   20 type  2   force =     0.20447633   -0.21105250  -38.50819732
     atom   21 type  1   force =    -0.05860207    0.18416822    1.10348094
     atom   22 type  2   force =     0.47571455   -1.65659628   38.41585711
     atom   23 type  2   force =    -0.08158352    0.68749348  -38.30260156
     atom   24 type  1   force =    -0.51105478    1.14353994    5.82273431
     atom   25 type  2   force =     0.69216184    0.32694884   39.27061089
     atom   26 type  2   force =    -0.27681735    0.07921738  -37.32783347
     atom   27 type  1   force =     0.13577686    0.25911595   -2.33292080
     atom   28 type  2   force =     0.10620254    0.86196016   38.17967674
     atom   29 type  2   force =    -0.25298612   -0.46143583  -37.28133142
     atom   30 type  1   force =     0.00883637   -0.91607501   -0.70642522
     atom   31 type  2   force =     1.43925635   -0.13944922   37.24870340
     atom   32 type  2   force =    -0.44922923   -0.02226797  -38.67502429
     atom   33 type  1   force =     0.91941932   -0.69380946    1.97907355
     atom   34 type  2   force =     0.52806572   -1.03994447   39.16536316
     atom   35 type  2   force =    -0.27332392    0.52120235  -37.88098589
     atom   36 type  3   force =     0.07561567    0.40393744    8.12434497
     The local contribution  to forces
     atom    1 type  1   force =    -0.32499208   -0.28480955   -5.66594316
     atom    2 type  2   force =     0.66465247   -0.47601496  -39.02055089
     atom    3 type  2   force =     0.16639776   -0.02636787   35.84122705
     atom    4 type  1   force =    -0.05746361   -0.30302690   -0.44350604
     atom    5 type  2   force =     1.02990492   -1.34482161  -38.50437118
     atom    6 type  2   force =    -0.32579781    0.52927886   37.79501737
     atom    7 type  1   force =     2.99830933    2.79433395   -2.08793483
     atom    8 type  2   force =     1.23419676    0.77721066  -36.32770251
     atom    9 type  2   force =    -0.32751459    0.07529748   37.85584931
     atom   10 type  1   force =     1.11783197   -0.04302005   -5.40762830
     atom   11 type  2   force =     0.84350684    1.33262116  -38.78256465
     atom   12 type  2   force =    -0.40409336   -0.71165678   37.67321613
     atom   13 type  1   force =    -0.48285896   -0.99887992   -2.87519068
     atom   14 type  2   force =    -0.03566439   -0.01701180  -38.26891166
     atom   15 type  2   force =    -0.14702377    0.05798165   36.55035041
     atom   16 type  1   force =     0.09779278   -3.85433437   -0.39997135
     atom   17 type  2   force =    -0.81641520   -1.42104717  -37.70355953
     atom   18 type  2   force =     0.16054024    0.66146366   38.32214156
     atom   19 type  1   force =    -2.77069580    2.42138176   -0.54017335
     atom   20 type  2   force =    -0.19834272    0.22723488   38.26549498
     atom   21 type  1   force =     0.04983118   -0.20720839   -1.10931074
     atom   22 type  2   force =    -0.46942918    1.65484379  -38.18304097
     atom   23 type  2   force =     0.07345889   -0.67256059   38.06598829
     atom   24 type  1   force =     0.49883243   -1.16272216   -5.83206208
     atom   25 type  2   force =    -0.68632769   -0.31409966  -39.02566195
     atom   26 type  2   force =     0.26899364   -0.06702335   37.08176253
     atom   27 type  1   force =    -0.13997901   -0.26508491    2.33044518
     atom   28 type  2   force =    -0.10120697   -0.83854635  -37.93510536
     atom   29 type  2   force =     0.25358785    0.45802246   37.03426923
     atom   30 type  1   force =    -0.00722874    0.90988791    0.67277388
     atom   31 type  2   force =    -1.42641955    0.13553122  -37.00450684
     atom   32 type  2   force =     0.44263585    0.04002662   38.43420106
     atom   33 type  1   force =    -0.89989506    0.67882933   -1.99281401
     atom   34 type  2   force =    -0.52459826    1.03515817  -38.94660221
     atom   35 type  2   force =     0.26616913   -0.50299466   37.64621838
     atom   36 type  3   force =    -0.07855401   -0.40872600   -8.10961039
     The core correction contribution to forces
     atom    1 type  1   force =     0.00000000    0.00000000    0.00000000
     atom    2 type  2   force =     0.00024691   -0.00012570    0.02070567
     atom    3 type  2   force =     0.00064852   -0.00001722   -0.02095284
     atom    4 type  1   force =     0.00000000    0.00000000    0.00000000
     atom    5 type  2   force =    -0.00030594    0.00209967    0.02003713
     atom    6 type  2   force =    -0.00006358   -0.00118866   -0.02095130
     atom    7 type  1   force =     0.00000000    0.00000000    0.00000000
     atom    8 type  2   force =    -0.00507610   -0.01343596   -0.00043368
     atom    9 type  2   force =    -0.00025564    0.00039829   -0.02136192
     atom   10 type  1   force =     0.00000000    0.00000000    0.00000000
     atom   11 type  2   force =    -0.00098899   -0.00016149    0.01994619
     atom   12 type  2   force =     0.00100267    0.00148506   -0.02075823
     atom   13 type  1   force =     0.00000000    0.00000000    0.00000000
     atom   14 type  2   force =    -0.00058898    0.00011082    0.02060961
     atom   15 type  2   force =     0.00070730    0.00035122   -0.02054929
     atom   16 type  1   force =     0.00000000    0.00000000    0.00000000
     atom   17 type  2   force =     0.00008276    0.00148737    0.02010102
     atom   18 type  2   force =     0.00011158   -0.00049774   -0.02099356
     atom   19 type  1   force =     0.00000000    0.00000000    0.00000000
     atom   20 type  2   force =     0.00023355    0.00075825   -0.02113828
     atom   21 type  1   force =     0.00000000    0.00000000    0.00000000
     atom   22 type  2   force =     0.00031406   -0.00036029    0.02040285
     atom   23 type  2   force =    -0.00060146    0.00113827   -0.02089325
     atom   24 type  1   force =     0.00000000    0.00000000    0.00000000
     atom   25 type  2   force =    -0.00017796   -0.00044816    0.02051304
     atom   26 type  2   force =    -0.00008068    0.00074714   -0.02084662
     atom   27 type  1   force =     0.00000000    0.00000000    0.00000000
     atom   28 type  2   force =     0.00020573    0.00193755    0.02065576
     atom   29 type  2   force =    -0.00027355   -0.00068332   -0.02072115
     atom   30 type  1   force =     0.00000000    0.00000000    0.00000000
     atom   31 type  2   force =     0.00074566   -0.00008918    0.02014943
     atom   32 type  2   force =    -0.00022951    0.00069321   -0.02089875
     atom   33 type  1   force =     0.00000000    0.00000000    0.00000000
     atom   34 type  2   force =     0.00072603    0.00167592    0.01967267
     atom   35 type  2   force =    -0.00011214    0.00108921   -0.02112749
     atom   36 type  3   force =     0.00000000    0.00000000    0.00000000
     The Hubbard contrib.    to forces
     atom    1 type  1   force =     0.00000000    0.00000000    0.00000000
     atom    2 type  2   force =     0.00000000    0.00000000    0.00000000
     atom    3 type  2   force =     0.00000000    0.00000000    0.00000000
     atom    4 type  1   force =     0.00000000    0.00000000    0.00000000
     atom    5 type  2   force =     0.00000000    0.00000000    0.00000000
     atom    6 type  2   force =     0.00000000    0.00000000    0.00000000
     atom    7 type  1   force =     0.00000000    0.00000000    0.00000000
     atom    8 type  2   force =     0.00000000    0.00000000    0.00000000
     atom    9 type  2   force =     0.00000000    0.00000000    0.00000000
     atom   10 type  1   force =     0.00000000    0.00000000    0.00000000
     atom   11 type  2   force =     0.00000000    0.00000000    0.00000000
     atom   12 type  2   force =     0.00000000    0.00000000    0.00000000
     atom   13 type  1   force =     0.00000000    0.00000000    0.00000000
     atom   14 type  2   force =     0.00000000    0.00000000    0.00000000
     atom   15 type  2   force =     0.00000000    0.00000000    0.00000000
     atom   16 type  1   force =     0.00000000    0.00000000    0.00000000
     atom   17 type  2   force =     0.00000000    0.00000000    0.00000000
     atom   18 type  2   force =     0.00000000    0.00000000    0.00000000
     atom   19 type  1   force =     0.00000000    0.00000000    0.00000000
     atom   20 type  2   force =     0.00000000    0.00000000    0.00000000
     atom   21 type  1   force =     0.00000000    0.00000000    0.00000000
     atom   22 type  2   force =     0.00000000    0.00000000    0.00000000
     atom   23 type  2   force =     0.00000000    0.00000000    0.00000000
     atom   24 type  1   force =     0.00000000    0.00000000    0.00000000
     atom   25 type  2   force =     0.00000000    0.00000000    0.00000000
     atom   26 type  2   force =     0.00000000    0.00000000    0.00000000
     atom   27 type  1   force =     0.00000000    0.00000000    0.00000000
     atom   28 type  2   force =     0.00000000    0.00000000    0.00000000
     atom   29 type  2   force =     0.00000000    0.00000000    0.00000000
     atom   30 type  1   force =     0.00000000    0.00000000    0.00000000
     atom   31 type  2   force =     0.00000000    0.00000000    0.00000000
     atom   32 type  2   force =     0.00000000    0.00000000    0.00000000
     atom   33 type  1   force =     0.00000000    0.00000000    0.00000000
     atom   34 type  2   force =     0.00000000    0.00000000    0.00000000
     atom   35 type  2   force =     0.00000000    0.00000000    0.00000000
     atom   36 type  3   force =     0.00000000    0.00000000    0.00000000
     The SCF correction term to forces
     atom    1 type  1   force =     0.00012485   -0.00004011   -0.00089995
     atom    2 type  2   force =     0.00001007   -0.00001671   -0.00020518
     atom    3 type  2   force =     0.00002416   -0.00002365   -0.00046474
     atom    4 type  1   force =     0.00009164    0.00007338   -0.00079010
     atom    5 type  2   force =     0.00005935    0.00005937   -0.00014152
     atom    6 type  2   force =     0.00007979   -0.00001864   -0.00045624
     atom    7 type  1   force =    -0.00005534   -0.00011786   -0.00076325
     atom    8 type  2   force =     0.00004894   -0.00005040   -0.00013665
     atom    9 type  2   force =     0.00006783   -0.00004662   -0.00044090
     atom   10 type  1   force =     0.00007583    0.00004288   -0.00091043
     atom   11 type  2   force =    -0.00000439   -0.00001193   -0.00010398
     atom   12 type  2   force =     0.00001845    0.00007672   -0.00049033
     atom   13 type  1   force =    -0.00009933   -0.00009847   -0.00092063
     atom   14 type  2   force =    -0.00001055   -0.00003855   -0.00019974
     atom   15 type  2   force =    -0.00000953   -0.00003924   -0.00048461
     atom   16 type  1   force =    -0.00002131    0.00019542   -0.00077383
     atom   17 type  2   force =    -0.00003805    0.00006020   -0.00015037
     atom   18 type  2   force =    -0.00005558   -0.00002805   -0.00046875
     atom   19 type  1   force =    -0.00008272    0.00002277   -0.00073929
     atom   20 type  2   force =    -0.00007451    0.00003632   -0.00044880
     atom   21 type  1   force =    -0.00015845   -0.00001524   -0.00089688
     atom   22 type  2   force =    -0.00002419   -0.00009413   -0.00020075
     atom   23 type  2   force =    -0.00003983   -0.00001171   -0.00041082
     atom   24 type  1   force =    -0.00001491   -0.00001343   -0.00095886
     atom   25 type  2   force =     0.00000055   -0.00003413   -0.00021556
     atom   26 type  2   force =    -0.00001781   -0.00004106   -0.00046850
     atom   27 type  1   force =    -0.00007317    0.00009556   -0.00081195
     atom   28 type  2   force =    -0.00002291    0.00007024   -0.00018827
     atom   29 type  2   force =    -0.00002519   -0.00000849   -0.00043052
     atom   30 type  1   force =     0.00012124   -0.00002655   -0.00079463
     atom   31 type  2   force =     0.00004246    0.00004082   -0.00017208
     atom   32 type  2   force =     0.00001190    0.00004745   -0.00040324
     atom   33 type  1   force =     0.00005434   -0.00009974   -0.00093564
     atom   34 type  2   force =     0.00002281   -0.00006045   -0.00017044
     atom   35 type  2   force =     0.00002874    0.00002734   -0.00044298
     atom   36 type  3   force =     0.00000283   -0.00000690   -0.00001804

     Total force =     0.148273     Total SCF correction =     0.003433

     BFGS Geometry Optimization
     Energy error            =      0.0E+00 Ry
     Gradient error          =      6.6E-02 Ry/Bohr

     number of scf cycles    =   1
     number of bfgs steps    =   0

     energy             new  =   -2205.5545132578 Ry

     new trust radius        =       0.0915194576 bohr
     new conv_thr            =       0.0000010000 Ry


ATOMIC_POSITIONS (angstrom)
Mo            6.5817023224        1.7744146593        2.8264184408
S             8.1686594976        0.8185154804        4.4349934897
S             8.1864207776        0.8169046965        1.2763834861
Mo            8.0950026352        4.4810420201        2.7024806202
S             6.4970936781        3.7165825573        4.3440126475
S             6.5580413157        3.5176488465        1.1227561240
Mo            6.4950938913        7.2175481577        2.6704186962
S             8.0838763529        6.3788791168        4.2758573811
S             8.0878561366        6.3068552995        1.0909594150
Mo            8.1556531184        9.9071741316        2.8276832307
S             6.4990458307        8.9404633782        4.3793804689
S             6.6173159770        9.0496423001        1.1425362688
Mo            3.4249246645        1.7504089792        2.7727632873
S             4.9789649897        0.8173801085        4.3564335331
S             5.0515942844        0.8476387821        1.2225845925
Mo            4.9777925051        4.5171738739        2.6335317420
S             3.4304426417        3.6719359398        4.2811484947
S             3.4365979435        3.5447314490        1.0656166090
Mo            3.4551378920        7.2056921442        2.6302488687
S             4.9852374690        6.3248066074        1.0372747351
Mo            5.0088115035        9.9044532423        2.7428269205
S             3.4694514416        8.9434231369        4.3237086356
S             3.4080160813        9.0667935300        1.1012484505
Mo            0.2925135272        1.7448549318        2.8376387146
S             1.8594880196        0.8027138272        4.4024512158
S             1.8545343112        0.8539928397        1.2072557490
Mo            1.8587210950        4.4965556108        2.6641632710
S             0.2743005108        3.6517218738        4.3351323946
S             0.2312713913        3.5271259348        1.1711281606
Mo            0.2729337854        7.2233373176        2.6915683579
S             1.9038951511        6.3126476742        4.2311467463
S             1.8581278694        6.3137815101        1.0490432091
Mo            1.8526681017        9.9376555184        2.7671843623
S             0.2959426980        9.0663459683        4.4092721000
S             0.2718154958        9.0469327255        1.1585134638
H             8.3994109950        7.2691055744        5.3405589363



     Writing config-only to output data dir ./MoS2-V-O.save/
     NEW-OLD atomic charge density approx. for the potential

     negative rho (up, down):  1.463E-04 0.000E+00

     total cpu time spent up to now is      104.8 secs

     Self-consistent Calculation

     iteration #  1     ecut=    80.00 Ry     beta= 0.70
     Davidson diagonalization with overlap
     ethr =  1.00E-06,  avg # of iterations = 10.0

     negative rho (up, down):  9.388E-05 0.000E+00

     total cpu time spent up to now is      120.8 secs

     total energy              =   -2205.57101749 Ry
     estimated scf accuracy    <       0.00220750 Ry

     iteration #  2     ecut=    80.00 Ry     beta= 0.70
     Davidson diagonalization with overlap
     ethr =  7.19E-07,  avg # of iterations =  2.0

     negative rho (up, down):  8.169E-05 0.000E+00

     total cpu time spent up to now is      135.4 secs

     total energy              =   -2205.57106466 Ry
     estimated scf accuracy    <       0.00044107 Ry

     iteration #  3     ecut=    80.00 Ry     beta= 0.70
     Davidson diagonalization with overlap
     ethr =  1.44E-07,  avg # of iterations =  3.0

     negative rho (up, down):  7.783E-05 0.000E+00

     total cpu time spent up to now is      149.8 secs

     total energy              =   -2205.57110056 Ry
     estimated scf accuracy    <       0.00010061 Ry

     iteration #  4     ecut=    80.00 Ry     beta= 0.70
     Davidson diagonalization with overlap
     ethr =  3.28E-08,  avg # of iterations =  5.0

     negative rho (up, down):  7.311E-05 0.000E+00

     total cpu time spent up to now is      160.8 secs

     total energy              =   -2205.57111331 Ry
     estimated scf accuracy    <       0.00001861 Ry

     iteration #  5     ecut=    80.00 Ry     beta= 0.70
     Davidson diagonalization with overlap
     ethr =  6.06E-09,  avg # of iterations =  9.0

     negative rho (up, down):  6.738E-05 0.000E+00

     total cpu time spent up to now is      174.1 secs

     total energy              =   -2205.57111704 Ry
     estimated scf accuracy    <       0.00000484 Ry

     iteration #  6     ecut=    80.00 Ry     beta= 0.70
     Davidson diagonalization with overlap
     ethr =  1.58E-09,  avg # of iterations =  3.0

     negative rho (up, down):  6.290E-05 0.000E+00

     total cpu time spent up to now is      185.7 secs

     total energy              =   -2205.57111788 Ry
     estimated scf accuracy    <       0.00000139 Ry

     iteration #  7     ecut=    80.00 Ry     beta= 0.70
     Davidson diagonalization with overlap
     ethr =  4.54E-10,  avg # of iterations =  5.0

     negative rho (up, down):  1.375E-04 0.000E+00

     total cpu time spent up to now is      187.7 secs

     End of self-consistent calculation

          k = 0.0000 0.0000 0.0000 (105382 PWs)   bands (ev):

   -62.8568 -62.8400 -62.8370 -62.8059 -62.7911 -62.7879 -62.7730 -62.7614
   -62.7550 -62.7379 -62.6603 -62.6168 -37.1852 -37.1222 -37.1054 -37.1018
   -37.0848 -37.0639 -37.0526 -37.0358 -37.0262 -37.0253 -37.0176 -37.0117
   -36.9968 -36.9854 -36.9755 -36.9693 -36.9641 -36.9594 -36.9554 -36.9359
   -36.9255 -36.9142 -36.9008 -36.8841 -36.8776 -36.8629 -36.8501 -36.8362
   -36.8217 -36.8193 -36.8001 -36.7978 -36.7669 -36.7522 -36.6614 -36.6133
   -16.1375 -15.6332 -15.1463 -15.0039 -14.8737 -14.8175 -14.6392 -14.4468
   -14.4157 -14.3943 -14.3495 -14.2922 -14.2752 -14.2356 -14.1457 -14.1017
   -14.0758 -14.0635 -13.9916 -13.8597 -13.8136 -13.7928 -13.7770  -8.7829
    -7.6106  -7.4204  -7.2992  -7.1975  -7.1798  -7.1543  -7.0928  -7.0368
    -6.7927  -6.7700  -6.7249  -6.6296  -6.5668  -6.5318  -6.3849  -6.3785
    -6.3408  -6.2146  -6.1575  -5.9070  -5.8901  -5.8576  -5.8112  -5.7483
    -5.7230  -5.6766  -5.6519  -5.6207  -5.5959  -5.5048  -5.4973  -5.4601
    -5.3940  -5.3653  -5.1200  -5.0937  -5.0503  -4.9795  -4.9542  -4.9123
    -4.8791  -4.7947  -4.6210  -4.5019  -4.4355  -4.2707  -4.2614  -4.2039
    -4.1982  -4.0115  -3.9824  -3.9285  -3.7999  -3.7666  -3.6980  -3.6750
    -3.6277  -3.5463  -3.4931  -3.4672  -3.4534  -3.4337  -3.3909  -3.3484
    -3.3305  -3.2078  -3.1275  -2.8639  -2.8339  -2.7494  -2.7412  -2.6867
    -2.6745  -2.6389  -2.6244  -2.5788  -2.5209  -2.2388  -1.9579  -1.9485
    -1.9191  -1.0474  -0.7159  -0.4451  -0.1417  -0.1082  -0.0602   0.0288
     0.0676   0.1659   0.2737   0.3058   0.3252   0.3428   0.4340   0.4526
     0.5001   0.5637   0.6015   0.6185   0.6444   0.7041   0.7578   0.7906
     0.8311   0.8443   0.8863   0.9355   1.0080   1.0149   1.0845   1.3790
     1.4333

     the Fermi energy is    -1.0475 ev

!    total energy              =   -2205.57111778 Ry
     estimated scf accuracy    <       0.00000056 Ry
     smearing contrib. (-TS)   =      -0.00565673 Ry
     internal energy E=F+TS    =   -2205.56546105 Ry

     The total energy is F=E-TS. E is the sum of the following terms:
     one-electron contribution =  -18047.25026155 Ry
     hartree contribution      =    9010.78668851 Ry
     xc contribution           =    -385.32303587 Ry
     ewald contribution        =    7216.22114787 Ry

     convergence has been achieved in   7 iterations

     negative rho (up, down):  1.375E-04 0.000E+00

     Forces acting on atoms (cartesian axes, Ry/au):

     atom    1 type  1   force =     0.00252962   -0.01368454    0.00026385
     atom    2 type  2   force =    -0.00884619    0.00991879   -0.00178755
     atom    3 type  2   force =    -0.01117132    0.00843757   -0.00947338
     atom    4 type  1   force =     0.00107011   -0.00724703   -0.00829249
     atom    5 type  2   force =    -0.00175372   -0.00891448   -0.00693826
     atom    6 type  2   force =     0.00480751    0.00468139    0.00118406
     atom    7 type  1   force =     0.00580824    0.00063119    0.00188498
     atom    8 type  2   force =     0.00226691    0.02834558    0.02987493
     atom    9 type  2   force =     0.01142917    0.00167561    0.00944628
     atom   10 type  1   force =    -0.00345412    0.00793324   -0.01085664
     atom   11 type  2   force =     0.00384307    0.00002657   -0.00947553
     atom   12 type  2   force =    -0.00335196    0.00110316    0.00030118
     atom   13 type  1   force =     0.00417457    0.00366876   -0.00250940
     atom   14 type  2   force =     0.00511463    0.00025715    0.00766106
     atom   15 type  2   force =    -0.00822794    0.00199430   -0.00646359
     atom   16 type  1   force =    -0.00069244    0.00428016    0.00235290
     atom   17 type  2   force =     0.00403474    0.00124521    0.00241238
     atom   18 type  2   force =    -0.00211752   -0.00413630    0.01018888
     atom   19 type  1   force =     0.00317431   -0.01350290    0.00276766
     atom   20 type  2   force =     0.00480436   -0.00305675   -0.00184283
     atom   21 type  1   force =    -0.00356620    0.00306404    0.00224912
     atom   22 type  2   force =    -0.00169187   -0.00183776   -0.00426381
     atom   23 type  2   force =     0.00071833    0.00033907    0.00599956
     atom   24 type  1   force =    -0.00330648   -0.00357502   -0.00915528
     atom   25 type  2   force =     0.01233156    0.01414795    0.00056406
     atom   26 type  2   force =    -0.00737436   -0.00099657   -0.00506743
     atom   27 type  1   force =    -0.00378337    0.00101150    0.00809473
     atom   28 type  2   force =     0.00047412   -0.00509395   -0.00723873
     atom   29 type  2   force =     0.00223384   -0.00136861   -0.00615747
     atom   30 type  1   force =     0.00205397    0.00441448   -0.00137990
     atom   31 type  2   force =     0.00126844   -0.00003218    0.01094952
     atom   32 type  2   force =    -0.00584362    0.00467797    0.00481049
     atom   33 type  1   force =     0.00661913   -0.00155809    0.00040784
     atom   34 type  2   force =     0.00087454   -0.02994751   -0.01622000
     atom   35 type  2   force =    -0.00636595    0.00829893    0.00613655
     atom   36 type  3   force =    -0.00808412   -0.01520093   -0.00042773
     The non-local contrib.  to forces
     atom    1 type  1   force =    -0.00014501    0.02796666   -0.01610843
     atom    2 type  2   force =    -0.00581935   -0.00261286   -0.26939707
     atom    3 type  2   force =    -0.01146775   -0.00522433    0.26583479
     atom    4 type  1   force =    -0.00022472    0.00379430   -0.01525743
     atom    5 type  2   force =    -0.00138710   -0.04095283   -0.24856305
     atom    6 type  2   force =     0.00144887    0.00780629    0.26484386
     atom    7 type  1   force =    -0.02370393   -0.00926943   -0.01940065
     atom    8 type  2   force =     0.08251136    0.21140872    0.07693617
     atom    9 type  2   force =     0.00777461   -0.00860264    0.28286874
     atom   10 type  1   force =     0.00338754    0.00319985   -0.00100920
     atom   11 type  2   force =     0.01414755    0.00399961   -0.25141925
     atom   12 type  2   force =    -0.01053076   -0.01987884    0.26078269
     atom   13 type  1   force =     0.00165803    0.02074847   -0.00392784
     atom   14 type  2   force =     0.00931609   -0.01191954   -0.26368068
     atom   15 type  2   force =    -0.01029195   -0.00637138    0.26071362
     atom   16 type  1   force =     0.00645463    0.03549016   -0.02681223
     atom   17 type  2   force =     0.00024373   -0.02752640   -0.24815892
     atom   18 type  2   force =    -0.00395569   -0.00118641    0.27076813
     atom   19 type  1   force =     0.02496114    0.00271842   -0.01826110
     atom   20 type  2   force =    -0.00153258   -0.01980881    0.26285703
     atom   21 type  1   force =     0.00107748    0.02883958    0.00427672
     atom   22 type  2   force =    -0.00754044   -0.00053122   -0.25817185
     atom   23 type  2   force =     0.00922840   -0.01558404    0.26595324
     atom   24 type  1   force =     0.00347371    0.01459892   -0.01207294
     atom   25 type  2   force =     0.00801919    0.00232380   -0.26181477
     atom   26 type  2   force =    -0.00055929   -0.01360145    0.26306797
     atom   27 type  1   force =     0.00011964    0.00783336    0.00911898
     atom   28 type  2   force =    -0.00144320   -0.03055502   -0.27051996
     atom   29 type  2   force =     0.00021482    0.00158937    0.26481050
     atom   30 type  1   force =     0.00242923    0.02027290    0.01295263
     atom   31 type  2   force =    -0.01195674    0.00365848   -0.25020699
     atom   32 type  2   force =     0.00057988   -0.01350120    0.26825424
     atom   33 type  1   force =    -0.00147850    0.00956468    0.00197670
     atom   34 type  2   force =    -0.00211462   -0.02780463   -0.25323527
     atom   35 type  2   force =     0.00024393   -0.01143848    0.26678725
     atom   36 type  3   force =    -0.01181390   -0.03223951   -0.03838493
     The ionic contribution  to forces
     atom    1 type  1   force =     0.03154326    0.51549256    5.85307301
     atom    2 type  2   force =    -0.47077488    0.36934446   39.36840099
     atom    3 type  2   force =    -0.14665452    0.04542768  -36.21928397
     atom    4 type  1   force =     0.03836531    0.81631878    0.21100229
     atom    5 type  2   force =    -0.95423531    1.47049343   38.64705418
     atom    6 type  2   force =     0.17025257   -0.57785353  -37.98208584
     atom    7 type  1   force =    -2.95428913   -2.96415033    2.11481009
     atom    8 type  2   force =    -1.31295185   -1.35717081   36.34548832
     atom    9 type  2   force =     0.28826249   -0.09824425  -37.97072536
     atom   10 type  1   force =    -0.88552440    0.02412579    4.99878816
     atom   11 type  2   force =    -0.85934140   -1.29559065   38.95708040
     atom   12 type  2   force =     0.30682555    0.65588433  -37.90823110
     atom   13 type  1   force =     0.43019506    0.93656751    2.81369274
     atom   14 type  2   force =    -0.04170304    0.03967493   38.60616100
     atom   15 type  2   force =     0.15327050   -0.00598633  -36.84264315
     atom   16 type  1   force =     0.06761565    3.73545643    0.55225681
     atom   17 type  2   force =     0.81391076    1.42340270   37.96586625
     atom   18 type  2   force =    -0.15371769   -0.61504774  -38.49202502
     atom   19 type  1   force =     2.82180119   -2.29463775    0.62664272
     atom   20 type  2   force =     0.22937705   -0.18439522  -38.52392591
     atom   21 type  1   force =    -0.08205541    0.05829424    1.21575147
     atom   22 type  2   force =     0.47505448   -1.67273863   38.40713081
     atom   23 type  2   force =    -0.03935537    0.59826094  -38.25852313
     atom   24 type  1   force =    -0.25932274    1.01018291    5.57235333
     atom   25 type  2   force =     0.56960459    0.26337225   39.25125062
     atom   26 type  2   force =    -0.21735797    0.07820492  -37.30676923
     atom   27 type  1   force =     0.05887151    0.28068745   -2.02213505
     atom   28 type  2   force =     0.02652990    0.88830647   38.15699772
     atom   29 type  2   force =    -0.13281169   -0.40548280  -37.32201670
     atom   30 type  1   force =    -0.06882080   -1.24233028   -1.00855023
     atom   31 type  2   force =     1.35625114   -0.12632185   37.33534861
     atom   32 type  2   force =    -0.41105492   -0.07451585  -38.65141970
     atom   33 type  1   force =     0.73793479   -0.51275319    2.04973266
     atom   34 type  2   force =     0.51282940   -0.82189641   39.06216027
     atom   35 type  2   force =    -0.21086949    0.55393377  -37.83288307
     atom   36 type  3   force =     0.11234542    0.48568405    8.23017501
     The local contribution  to forces
     atom    1 type  1   force =    -0.02902318   -0.55712917   -5.83754749
     atom    2 type  2   force =     0.46752921   -0.35672164  -39.12195375
     atom    3 type  2   force =     0.14642382   -0.03189107   35.96460107
     atom    4 type  1   force =    -0.03704436   -0.82756757   -0.20480755
     atom    5 type  2   force =     0.95408877   -1.44073888  -38.42583658
     atom    6 type  2   force =    -0.16685411    0.57564667   37.73913366
     atom    7 type  1   force =     2.98358703    2.97418393   -2.09439067
     atom    8 type  2   force =     1.23783300    1.18775800  -36.39230338
     atom    9 type  2   force =    -0.28433312    0.10801010   37.71835059
     atom   10 type  1   force =     0.87872317   -0.01920650   -5.00951058
     atom   11 type  2   force =     0.84987473    1.29189670  -38.73559112
     atom   12 type  2   force =    -0.30060803   -0.63627191   37.66823041
     atom   13 type  1   force =    -0.42773256   -0.95361835   -2.81306954
     atom   14 type  2   force =     0.03808798   -0.02757781  -38.35592659
     atom   15 type  2   force =    -0.15182730    0.01395988   36.59584927
     atom   16 type  1   force =    -0.07491198   -3.76692672   -0.52391294
     atom   17 type  2   force =    -0.81025829   -1.39611417  -37.73585792
     atom   18 type  2   force =     0.15547303    0.61258457   38.25220916
     atom   19 type  1   force =    -2.84360298    2.27843734   -0.60648360
     atom   20 type  2   force =    -0.22330421    0.20038837   38.28010881
     atom   21 type  1   force =     0.07741071   -0.08388702   -1.21867757
     atom   22 type  2   force =    -0.46942951    1.67179180  -38.17412053
     atom   23 type  2   force =     0.03146420   -0.58348602   38.01920731
     atom   24 type  1   force =     0.25269279   -1.02837552   -5.57022879
     atom   25 type  2   force =    -0.56515760   -0.25117769  -39.00990516
     atom   26 type  2   force =     0.21074165   -0.06630049   37.05926784
     atom   27 type  1   force =    -0.06260518   -0.28774124    2.02022620
     atom   28 type  2   force =    -0.02468624   -0.86486028  -37.91478688
     atom   29 type  2   force =     0.13508626    0.40298777   37.07151388
     atom   30 type  1   force =     0.06857075    1.22652663    0.99344157
     atom   31 type  2   force =    -1.34372701    0.12262483  -37.09482963
     atom   32 type  2   force =     0.40494882    0.09196870   38.40861115
     atom   33 type  1   force =    -0.72987850    0.50184548   -2.05217217
     atom   34 type  2   force =    -0.51043874    0.81853232  -38.84539205
     atom   35 type  2   force =     0.20444583   -0.53521359   37.59297264
     atom   36 type  3   force =    -0.10861722   -0.46866202   -8.19230003
     The core correction contribution to forces
     atom    1 type  1   force =     0.00000000    0.00000000    0.00000000
     atom    2 type  2   force =     0.00017093   -0.00000913    0.02072138
     atom    3 type  2   force =     0.00051348    0.00014408   -0.02082345
     atom    4 type  1   force =     0.00000000    0.00000000    0.00000000
     atom    5 type  2   force =    -0.00029088    0.00214946    0.02003860
     atom    6 type  2   force =    -0.00008308   -0.00101255   -0.02093091
     atom    7 type  1   force =     0.00000000    0.00000000    0.00000000
     atom    8 type  2   force =    -0.00506625   -0.01351903   -0.00033959
     atom    9 type  2   force =    -0.00025389    0.00053937   -0.02137303
     atom   10 type  1   force =     0.00000000    0.00000000    0.00000000
     atom   11 type  2   force =    -0.00082729   -0.00023652    0.02004624
     atom   12 type  2   force =     0.00096491    0.00144439   -0.02072253
     atom   13 type  1   force =     0.00000000    0.00000000    0.00000000
     atom   14 type  2   force =    -0.00057184    0.00014691    0.02066813
     atom   15 type  2   force =     0.00061745    0.00042576   -0.02055859
     atom   16 type  1   force =     0.00000000    0.00000000    0.00000000
     atom   17 type  2   force =     0.00012914    0.00140937    0.02012507
     atom   18 type  2   force =     0.00006853   -0.00053879   -0.02092456
     atom   19 type  1   force =     0.00000000    0.00000000    0.00000000
     atom   20 type  2   force =     0.00021289    0.00073010   -0.02110279
     atom   21 type  1   force =     0.00000000    0.00000000    0.00000000
     atom   22 type  2   force =     0.00022689   -0.00030391    0.02047183
     atom   23 type  2   force =    -0.00061373    0.00119174   -0.02085475
     atom   24 type  1   force =     0.00000000    0.00000000    0.00000000
     atom   25 type  2   force =    -0.00007847   -0.00027934    0.02062285
     atom   26 type  2   force =    -0.00019397    0.00074220   -0.02083105
     atom   27 type  1   force =     0.00000000    0.00000000    0.00000000
     atom   28 type  2   force =     0.00016012    0.00191960    0.02069705
     atom   29 type  2   force =    -0.00017489   -0.00055061   -0.02070481
     atom   30 type  1   force =     0.00000000    0.00000000    0.00000000
     atom   31 type  2   force =     0.00074221   -0.00004651    0.02019604
     atom   32 type  2   force =    -0.00027774    0.00069742   -0.02084403
     atom   33 type  1   force =     0.00000000    0.00000000    0.00000000
     atom   34 type  2   force =     0.00059563    0.00117947    0.01985407
     atom   35 type  2   force =    -0.00019044    0.00107757   -0.02099184
     atom   36 type  3   force =     0.00000000    0.00000000    0.00000000
     The Hubbard contrib.    to forces
     atom    1 type  1   force =     0.00000000    0.00000000    0.00000000
     atom    2 type  2   force =     0.00000000    0.00000000    0.00000000
     atom    3 type  2   force =     0.00000000    0.00000000    0.00000000
     atom    4 type  1   force =     0.00000000    0.00000000    0.00000000
     atom    5 type  2   force =     0.00000000    0.00000000    0.00000000
     atom    6 type  2   force =     0.00000000    0.00000000    0.00000000
     atom    7 type  1   force =     0.00000000    0.00000000    0.00000000
     atom    8 type  2   force =     0.00000000    0.00000000    0.00000000
     atom    9 type  2   force =     0.00000000    0.00000000    0.00000000
     atom   10 type  1   force =     0.00000000    0.00000000    0.00000000
     atom   11 type  2   force =     0.00000000    0.00000000    0.00000000
     atom   12 type  2   force =     0.00000000    0.00000000    0.00000000
     atom   13 type  1   force =     0.00000000    0.00000000    0.00000000
     atom   14 type  2   force =     0.00000000    0.00000000    0.00000000
     atom   15 type  2   force =     0.00000000    0.00000000    0.00000000
     atom   16 type  1   force =     0.00000000    0.00000000    0.00000000
     atom   17 type  2   force =     0.00000000    0.00000000    0.00000000
     atom   18 type  2   force =     0.00000000    0.00000000    0.00000000
     atom   19 type  1   force =     0.00000000    0.00000000    0.00000000
     atom   20 type  2   force =     0.00000000    0.00000000    0.00000000
     atom   21 type  1   force =     0.00000000    0.00000000    0.00000000
     atom   22 type  2   force =     0.00000000    0.00000000    0.00000000
     atom   23 type  2   force =     0.00000000    0.00000000    0.00000000
     atom   24 type  1   force =     0.00000000    0.00000000    0.00000000
     atom   25 type  2   force =     0.00000000    0.00000000    0.00000000
     atom   26 type  2   force =     0.00000000    0.00000000    0.00000000
     atom   27 type  1   force =     0.00000000    0.00000000    0.00000000
     atom   28 type  2   force =     0.00000000    0.00000000    0.00000000
     atom   29 type  2   force =     0.00000000    0.00000000    0.00000000
     atom   30 type  1   force =     0.00000000    0.00000000    0.00000000
     atom   31 type  2   force =     0.00000000    0.00000000    0.00000000
     atom   32 type  2   force =     0.00000000    0.00000000    0.00000000
     atom   33 type  1   force =     0.00000000    0.00000000    0.00000000
     atom   34 type  2   force =     0.00000000    0.00000000    0.00000000
     atom   35 type  2   force =     0.00000000    0.00000000    0.00000000
     atom   36 type  3   force =     0.00000000    0.00000000    0.00000000
     The SCF correction term to forces
     atom    1 type  1   force =     0.00015742   -0.00001560    0.00082657
     atom    2 type  2   force =     0.00005076   -0.00008307    0.00042071
     atom    3 type  2   force =     0.00001650   -0.00001981    0.00017799
     atom    4 type  1   force =    -0.00002327    0.00020645    0.00075002
     atom    5 type  2   force =     0.00007365    0.00013332    0.00034840
     atom    6 type  2   force =     0.00004611    0.00009348    0.00020311
     atom    7 type  1   force =     0.00021713   -0.00013400    0.00084602
     atom    8 type  2   force =    -0.00005649   -0.00013233    0.00007323
     atom    9 type  2   force =    -0.00001807   -0.00002798    0.00030516
     atom   10 type  1   force =    -0.00003757   -0.00018692    0.00085480
     atom   11 type  2   force =    -0.00000767   -0.00004358    0.00038802
     atom   12 type  2   force =    -0.00000079   -0.00007584    0.00022153
     atom   13 type  1   force =     0.00005690   -0.00002989    0.00077506
     atom   14 type  2   force =    -0.00001170   -0.00006835    0.00041902
     atom   15 type  2   force =     0.00000621   -0.00003465    0.00015509
     atom   16 type  1   force =     0.00015211    0.00025928    0.00080108
     atom   17 type  2   force =     0.00001226    0.00007270    0.00041773
     atom   18 type  2   force =     0.00001716    0.00005105    0.00014099
     atom   19 type  1   force =     0.00001781   -0.00002193    0.00084945
     atom   20 type  2   force =     0.00005406    0.00002780    0.00019986
     atom   21 type  1   force =     0.00000388   -0.00018378    0.00087831
     atom   22 type  2   force =    -0.00000042   -0.00005681    0.00040576
     atom   23 type  2   force =    -0.00000232   -0.00004457    0.00019671
     atom   24 type  1   force =    -0.00014739    0.00001765    0.00077294
     atom   25 type  2   force =    -0.00005330   -0.00009209    0.00039034
     atom   26 type  2   force =    -0.00000191   -0.00004278    0.00017687
     atom   27 type  1   force =    -0.00016649    0.00023091    0.00086442
     atom   28 type  2   force =    -0.00008360    0.00009426    0.00035315
     atom   29 type  2   force =    -0.00007780    0.00008664    0.00021948
     atom   30 type  1   force =    -0.00012235   -0.00005578    0.00075594
     atom   31 type  2   force =    -0.00003831    0.00005186    0.00042131
     atom   32 type  2   force =    -0.00003681    0.00002788    0.00018864
     atom   33 type  1   force =     0.00004420   -0.00021607    0.00085047
     atom   34 type  2   force =     0.00000573    0.00004072    0.00037280
     atom   35 type  2   force =     0.00000708   -0.00006136    0.00023139
     atom   36 type  3   force =     0.00000444    0.00001552    0.00006204

     Total force =     0.081152     Total SCF correction =     0.003280
     Energy error            =      1.7E-02 Ry
     Gradient error          =      3.0E-02 Ry/Bohr

     number of scf cycles    =   2
     number of bfgs steps    =   1

     energy             old  =   -2205.5545132578 Ry
     energy             new  =   -2205.5711177831 Ry

     CASE: energy            _new < energy            _old

     new trust radius        =       0.1004907553 bohr
     new conv_thr            =       0.0000000299 Ry


ATOMIC_POSITIONS (angstrom)
Mo            6.5857812094        1.7572902629        2.8272400666
S             8.1577081553        0.8307528100        4.4331869816
S             8.1732456827        0.8269567634        1.2660458964
Mo            8.0961060604        4.4706216943        2.6906935135
S             6.4946844895        3.7059924045        4.3361389361
S             6.5640547274        3.5237666715        1.1242997458
Mo            6.5022505242        7.2180438285        2.6721311896
S             8.0866994738        6.4157691132        4.3140541859
S             8.1013292693        6.3090523107        1.1023608923
Mo            8.1510211478        9.9165607996        2.8130912678
S             6.5038778564        8.9400106032        4.3686061814
S             6.6136386107        9.0509937722        1.1433688816
Mo            3.4299884559        1.7549731804        2.7693786299
S             4.9851298946        0.8177384547        4.3657086302
S             5.0416519281        0.8500221380        1.2149358077
Mo            4.9766748255        4.5224923119        2.6361529045
S             3.4352285331        3.6733219039        4.2839873030
S             3.4340944869        3.5396628939        1.0778383816
Mo            3.4587528043        7.1892990278        2.6330998916
S             4.9907227043        6.3211504931        1.0353248626
Mo            5.0043561847        9.9082591234        2.7450996144
S             3.4673633765        8.9414104778        4.3188201033
S             3.4086970918        9.0675051681        1.1086212095
Mo            0.2883092705        1.7405460191        2.8256263040
S             1.8743254819        0.8196712989        4.4038774445
S             1.8454918947        0.8528516087        1.2014638927
Mo            1.8543248812        4.4978016540        2.6735205001
S             0.2752106175        3.6457980596        4.3269784171
S             0.2336478055        3.5256507071        1.1644256081
Mo            0.2754594781        7.2293244126        2.6881278738
S             1.9055635771        6.3125840459        4.2444557206
S             1.8511293177        6.3194127852        1.0550192504
Mo            1.8613110889        9.9355185656        2.7664918726
S             0.2968758019        9.0299745606        4.3911762556
S             0.2640980351        9.0563973574        1.1666040127
H             8.3895511584        7.2497024622        5.3383705904



     Writing config-only to output data dir ./MoS2-V-O.save/
     NEW-OLD atomic charge density approx. for the potential

     negative rho (up, down):  1.554E-04 0.000E+00

     total cpu time spent up to now is      191.0 secs

     Self-consistent Calculation

     iteration #  1     ecut=    80.00 Ry     beta= 0.70
     Davidson diagonalization with overlap
     ethr =  1.00E-06,  avg # of iterations =  9.0

     negative rho (up, down):  8.655E-05 0.000E+00

     total cpu time spent up to now is      205.8 secs

     total energy              =   -2205.57939775 Ry
     estimated scf accuracy    <       0.00230499 Ry

     iteration #  2     ecut=    80.00 Ry     beta= 0.70
     Davidson diagonalization with overlap
     ethr =  7.51E-07,  avg # of iterations =  3.0

     negative rho (up, down):  5.847E-05 0.000E+00

     total cpu time spent up to now is      224.7 secs

     total energy              =   -2205.57945661 Ry
     estimated scf accuracy    <       0.00037827 Ry

     iteration #  3     ecut=    80.00 Ry     beta= 0.70
     Davidson diagonalization with overlap
     ethr =  1.23E-07,  avg # of iterations =  5.0

     negative rho (up, down):  4.772E-05 0.000E+00

     total cpu time spent up to now is      241.2 secs

     total energy              =   -2205.57950495 Ry
     estimated scf accuracy    <       0.00004941 Ry

     iteration #  4     ecut=    80.00 Ry     beta= 0.70
     Davidson diagonalization with overlap
     ethr =  1.61E-08,  avg # of iterations =  5.0

     negative rho (up, down):  4.411E-05 0.000E+00

     total cpu time spent up to now is      256.6 secs

     total energy              =   -2205.57951485 Ry
     estimated scf accuracy    <       0.00000904 Ry

     iteration #  5     ecut=    80.00 Ry     beta= 0.70
     Davidson diagonalization with overlap
     ethr =  2.95E-09,  avg # of iterations =  5.0

     negative rho (up, down):  4.434E-05 0.000E+00

     total cpu time spent up to now is      274.0 secs

     total energy              =   -2205.57951586 Ry
     estimated scf accuracy    <       0.00000298 Ry

     iteration #  6     ecut=    80.00 Ry     beta= 0.70
     Davidson diagonalization with overlap
     ethr =  9.72E-10,  avg # of iterations =  5.0

     negative rho (up, down):  5.010E-05 0.000E+00

     total cpu time spent up to now is      287.1 secs

     total energy              =   -2205.57951626 Ry
     estimated scf accuracy    <       0.00000062 Ry

     iteration #  7     ecut=    80.00 Ry     beta= 0.70
     Davidson diagonalization with overlap
     ethr =  2.02E-10,  avg # of iterations =  5.0

     negative rho (up, down):  6.692E-05 0.000E+00

     total cpu time spent up to now is      298.3 secs

     total energy              =   -2205.57951624 Ry
     estimated scf accuracy    <       0.00000021 Ry

     iteration #  8     ecut=    80.00 Ry     beta= 0.70
     Davidson diagonalization with overlap
     ethr =  7.00E-11,  avg # of iterations =  4.0

     negative rho (up, down):  8.494E-05 0.000E+00

     total cpu time spent up to now is      310.0 secs

     total energy              =   -2205.57951618 Ry
     estimated scf accuracy    <       0.00000007 Ry

     iteration #  9     ecut=    80.00 Ry     beta= 0.70
     Davidson diagonalization with overlap
     ethr =  2.13E-11,  avg # of iterations =  5.0

     negative rho (up, down):  1.380E-04 0.000E+00

     total cpu time spent up to now is      312.2 secs

     End of self-consistent calculation

          k = 0.0000 0.0000 0.0000 (105382 PWs)   bands (ev):

   -62.8495 -62.8299 -62.8281 -62.7973 -62.7841 -62.7751 -62.7656 -62.7559
   -62.7503 -62.7322 -62.6510 -62.6115 -37.1752 -37.1128 -37.0970 -37.0928
   -37.0761 -37.0543 -37.0434 -37.0237 -37.0177 -37.0168 -37.0116 -37.0012
   -36.9880 -36.9765 -36.9693 -36.9604 -36.9548 -36.9517 -36.9446 -36.9310
   -36.9237 -36.9125 -36.8931 -36.8771 -36.8688 -36.8576 -36.8438 -36.8297
   -36.8140 -36.8125 -36.7944 -36.7921 -36.7592 -36.7447 -36.6528 -36.6065
   -16.2073 -15.6832 -15.1425 -15.0018 -14.8557 -14.8208 -14.6374 -14.4397
   -14.4058 -14.3939 -14.3501 -14.2859 -14.2659 -14.2307 -14.1495 -14.0995
   -14.0702 -14.0551 -13.9896 -13.8591 -13.8077 -13.7864 -13.7800  -8.9115
    -7.6009  -7.4152  -7.2774  -7.1874  -7.1807  -7.1566  -7.0860  -7.0480
    -6.7929  -6.7519  -6.7112  -6.6207  -6.5756  -6.5259  -6.3844  -6.3737
    -6.3447  -6.2119  -6.1661  -5.9068  -5.8806  -5.8468  -5.8151  -5.7390
    -5.7209  -5.6681  -5.6395  -5.6130  -5.5897  -5.5079  -5.5057  -5.4395
    -5.3698  -5.3355  -5.1118  -5.0844  -5.0211  -4.9827  -4.9486  -4.9005
    -4.8776  -4.7914  -4.6098  -4.4992  -4.4681  -4.2786  -4.2525  -4.2036
    -4.1840  -4.0141  -3.9805  -3.9452  -3.8020  -3.7547  -3.6974  -3.6484
    -3.6143  -3.5396  -3.4877  -3.4674  -3.4546  -3.4384  -3.3903  -3.3402
    -3.3257  -3.2070  -3.1323  -2.8612  -2.8147  -2.7358  -2.7246  -2.6945
    -2.6698  -2.6341  -2.6199  -2.5668  -2.5021  -2.2204  -1.9527  -1.9343
    -1.9300  -1.0621  -0.6918  -0.4366  -0.1355  -0.0991  -0.0515   0.0610
     0.0805   0.1647   0.2824   0.3310   0.3506   0.3568   0.4373   0.4509
     0.5014   0.5741   0.6072   0.6423   0.6528   0.7152   0.7717   0.7930
     0.8355   0.8709   0.8972   0.9455   1.0217   1.0296   1.0904   1.4075
     1.4383

     the Fermi energy is    -1.0622 ev

!    total energy              =   -2205.57951606 Ry
     estimated scf accuracy    <       0.00000002 Ry
     smearing contrib. (-TS)   =      -0.00564531 Ry
     internal energy E=F+TS    =   -2205.57387075 Ry

     The total energy is F=E-TS. E is the sum of the following terms:
     one-electron contribution =  -18048.67219410 Ry
     hartree contribution      =    9011.55255889 Ry
     xc contribution           =    -385.36097394 Ry
     ewald contribution        =    7216.90673840 Ry

     convergence has been achieved in   9 iterations

     negative rho (up, down):  1.380E-04 0.000E+00

     Forces acting on atoms (cartesian axes, Ry/au):

     atom    1 type  1   force =    -0.00724926    0.00065713   -0.00653153
     atom    2 type  2   force =    -0.00115650    0.00208833   -0.00240869
     atom    3 type  2   force =    -0.00693446    0.00452317   -0.01202848
     atom    4 type  1   force =     0.00329946    0.00489527    0.00533705
     atom    5 type  2   force =     0.00187871   -0.00567775   -0.00592145
     atom    6 type  2   force =     0.00009257   -0.00106442    0.00007664
     atom    7 type  1   force =     0.00195121    0.00065803    0.00220494
     atom    8 type  2   force =    -0.00454653   -0.01824900   -0.01422473
     atom    9 type  2   force =     0.00749390    0.00033079    0.00522013
     atom   10 type  1   force =     0.00019065    0.00540471    0.00192631
     atom   11 type  2   force =     0.00078461    0.00500339   -0.00721365
     atom   12 type  2   force =    -0.00446942    0.00060006   -0.00202050
     atom   13 type  1   force =     0.00120154   -0.00014578    0.00063384
     atom   14 type  2   force =     0.00167904   -0.00041584    0.00377403
     atom   15 type  2   force =    -0.00444060   -0.00012049   -0.00379654
     atom   16 type  1   force =     0.00178029    0.00084052    0.00112472
     atom   17 type  2   force =     0.00272692    0.00190170    0.00294536
     atom   18 type  2   force =    -0.00167395    0.00024097    0.00610620
     atom   19 type  1   force =     0.00335158   -0.00426407    0.00315025
     atom   20 type  2   force =     0.00550990   -0.00153389   -0.00139577
     atom   21 type  1   force =    -0.00067711    0.00155045    0.00113867
     atom   22 type  2   force =    -0.00000505   -0.00331730   -0.00183755
     atom   23 type  2   force =     0.00161283   -0.00353460    0.00363537
     atom   24 type  1   force =    -0.00133554   -0.00115650   -0.00108503
     atom   25 type  2   force =     0.00546763    0.00711767   -0.00416802
     atom   26 type  2   force =    -0.00095956   -0.00149368   -0.00304864
     atom   27 type  1   force =    -0.00201469   -0.00003398    0.00350680
     atom   28 type  2   force =    -0.00321648   -0.00435300   -0.00579526
     atom   29 type  2   force =     0.00342148   -0.00111209   -0.00641189
     atom   30 type  1   force =     0.00027071   -0.00337943    0.00909373
     atom   31 type  2   force =     0.00028314   -0.00084947    0.00645831
     atom   32 type  2   force =    -0.00238516    0.00178492    0.00313417
     atom   33 type  1   force =    -0.00228683    0.00216891    0.00432210
     atom   34 type  2   force =     0.00149110   -0.00927149   -0.01511878
     atom   35 type  2   force =    -0.00161304    0.00722344   -0.00088843
     atom   36 type  3   force =     0.00047689    0.01298333    0.03010633
     The non-local contrib.  to forces
     atom    1 type  1   force =     0.00154309    0.02411432   -0.01633101
     atom    2 type  2   force =    -0.00042358   -0.00836870   -0.26726144
     atom    3 type  2   force =    -0.00638609   -0.00901806    0.26159172
     atom    4 type  1   force =     0.00062940    0.00090443   -0.01578126
     atom    5 type  2   force =    -0.00062313   -0.03972029   -0.24848841
     atom    6 type  2   force =    -0.00186391    0.00257693    0.26508405
     atom    7 type  1   force =    -0.02227473   -0.00915355   -0.02105903
     atom    8 type  2   force =     0.07558001    0.19184057    0.04703869
     atom    9 type  2   force =     0.00493279   -0.01078701    0.28095066
     atom   10 type  1   force =     0.00197395    0.00318439   -0.00045371
     atom   11 type  2   force =     0.01148033    0.00631543   -0.25173440
     atom   12 type  2   force =    -0.01055850   -0.01946830    0.26083905
     atom   13 type  1   force =     0.00302655    0.02314871   -0.00403855
     atom   14 type  2   force =     0.00621451   -0.01252256   -0.26491206
     atom   15 type  2   force =    -0.00715557   -0.00832021    0.26090661
     atom   16 type  1   force =     0.00656477    0.03658491   -0.02866225
     atom   17 type  2   force =    -0.00139495   -0.02602298   -0.24854716
     atom   18 type  2   force =    -0.00326552    0.00187316    0.26820623
     atom   19 type  1   force =     0.02658765    0.00258449   -0.01901303
     atom   20 type  2   force =    -0.00053857   -0.01773960    0.26222580
     atom   21 type  1   force =    -0.00023874    0.02884025    0.00323205
     atom   22 type  2   force =    -0.00508339   -0.00303119   -0.25818621
     atom   23 type  2   force =     0.01001472   -0.01926000    0.26513582
     atom   24 type  1   force =     0.00151524    0.01489343   -0.01076683
     atom   25 type  2   force =     0.00305690   -0.00419371   -0.26469708
     atom   26 type  2   force =     0.00438154   -0.01297239    0.26433566
     atom   27 type  1   force =    -0.00057608    0.00785163    0.00769629
     atom   28 type  2   force =    -0.00190421   -0.02937769   -0.26952181
     atom   29 type  2   force =    -0.00041294   -0.00042499    0.26590904
     atom   30 type  1   force =     0.00346047    0.02207087    0.01173017
     atom   31 type  2   force =    -0.01296531    0.00267510   -0.25196818
     atom   32 type  2   force =     0.00380474   -0.01572462    0.26662922
     atom   33 type  1   force =     0.00078269    0.00850237    0.00106709
     atom   34 type  2   force =    -0.00008129   -0.00967439   -0.25489605
     atom   35 type  2   force =     0.00371713   -0.01261236    0.26365026
     atom   36 type  3   force =    -0.01445749   -0.03823426   -0.04699704
     The ionic contribution  to forces
     atom    1 type  1   force =    -0.23217476    0.86633621    5.84928842
     atom    2 type  2   force =    -0.23646023    0.25061175   39.46904227
     atom    3 type  2   force =    -0.09199498    0.04518169  -36.44977818
     atom    4 type  1   force =    -0.01960956    1.25103523    0.04429597
     atom    5 type  2   force =    -0.86111042    1.55427203   38.50803385
     atom    6 type  2   force =     0.01989540   -0.59220106  -37.91419686
     atom    7 type  1   force =    -2.96502088   -3.15447311    2.14676788
     atom    8 type  2   force =    -1.36180098   -1.79072388   36.44451117
     atom    9 type  2   force =     0.22326209   -0.11070509  -37.81180968
     atom   10 type  1   force =    -0.62435654   -0.00406055    4.58526568
     atom   11 type  2   force =    -0.85625933   -1.24196975   38.86062228
[...]
     atom   27 type  1   force =    -0.00168768    0.00655767    0.00494614
     atom   28 type  2   force =     0.00495774   -0.01777665   -0.26641525
     atom   29 type  2   force =    -0.00792616   -0.00852391    0.27170264
     atom   30 type  1   force =     0.00368956    0.02163913    0.00498578
     atom   31 type  2   force =    -0.01340991    0.00395356   -0.25814826
     atom   32 type  2   force =     0.00872277   -0.01733731    0.26374712
     atom   33 type  1   force =     0.00124445    0.00874814    0.00157056
     atom   34 type  2   force =     0.00026535   -0.01125417   -0.25398277
     atom   35 type  2   force =     0.00193019   -0.01323854    0.26808117
     atom   36 type  3   force =    -0.00645426   -0.03090160   -0.04668988
     The ionic contribution  to forces
     atom    1 type  1   force =    -0.17796116    0.78803620    1.91655725
     atom    2 type  2   force =    -0.18095809    0.30818968   38.72321822
     atom    3 type  2   force =     0.06259905   -0.06223784  -37.74403340
     atom    4 type  1   force =    -0.13848003    1.37803388   -0.16489099
     atom    5 type  2   force =    -0.73077734    1.26571767   38.22311582
     atom    6 type  2   force =     0.00939481   -0.14828841  -38.28726870
     atom    7 type  1   force =    -2.92919179   -3.10825071    3.54582342
     atom    8 type  2   force =    -1.39137538   -1.72075854   37.24777850
     atom    9 type  2   force =     0.25990139    0.03815577  -37.33595963
     atom   10 type  1   force =    -0.32762597   -0.21408632    2.05421737
     atom   11 type  2   force =    -0.73664605   -1.00625965   38.58674172
     atom   12 type  2   force =     0.11889584    0.14869586  -38.07820220
     atom   13 type  1   force =     0.09980904    0.85949927    2.09133282
     atom   14 type  2   force =    -0.02494858    0.11223916   38.54502408
     atom   15 type  2   force =    -0.07390384   -0.11514440  -37.64662355
     atom   16 type  1   force =     0.13295533    3.75845956    1.32963488
     atom   17 type  2   force =     0.85625023    1.12828787   38.26487426
     atom   18 type  2   force =    -0.23862847   -0.15608531  -38.02545783
     atom   19 type  1   force =     2.84488778   -2.02568982    3.98486328
     atom   20 type  2   force =     0.05410077    0.00306567  -38.14817966
     atom   21 type  1   force =    -0.29700838   -0.32959563    1.02199807
     atom   22 type  2   force =     0.43487900   -1.33120116   38.55338787
     atom   23 type  2   force =    -0.20383069    0.05894943  -37.68800397
     atom   24 type  1   force =     0.09388196    0.65529765    1.68618607
     atom   25 type  2   force =     0.18174496    0.19789162   38.81121552
     atom   26 type  2   force =     0.01083620   -0.06723071  -37.68162000
     atom   27 type  1   force =     0.08593265    0.35722259    0.67333784
     atom   28 type  2   force =    -0.11694344    0.51234679   37.89794110
     atom   29 type  2   force =     0.15682227    0.07820941  -37.76019173
     atom   30 type  1   force =     0.14777500   -1.31898171    2.51598111
     atom   31 type  2   force =     1.26547468   -0.06398832   38.39043656
     atom   32 type  2   force =    -0.26491475    0.06031415  -37.64330835
     atom   33 type  1   force =     0.69008489   -0.47659411    2.61153432
     atom   34 type  2   force =     0.27431099   -0.06499938   38.67584721
     atom   35 type  2   force =     0.05760307   -0.02290254  -37.57013042
     atom   36 type  3   force =    -0.00494595    0.52368229    8.42282312
     The local contribution  to forces
     atom    1 type  1   force =     0.18120544   -0.81241492   -1.90679873
     atom    2 type  2   force =     0.18091711   -0.29747833  -38.47977417
     atom    3 type  2   force =    -0.06150189    0.07304909   37.49855240
     atom    4 type  1   force =     0.13763422   -1.38337703    0.17956822
     atom    5 type  2   force =     0.73456220   -1.23857224  -37.99728940
     atom    6 type  2   force =    -0.01090450    0.15156518   38.04207913
     atom    7 type  1   force =     2.94873185    3.11666309   -3.52750583
     atom    8 type  2   force =     1.33800270    1.52248653  -37.34334628
     atom    9 type  2   force =    -0.25539635   -0.02764432   37.07941541
     atom   10 type  1   force =     0.32598167    0.20786855   -2.05977204
     atom   11 type  2   force =     0.72951738    1.00852546  -38.36109557
     atom   12 type  2   force =    -0.11433543   -0.13689881   37.83509866
     atom   13 type  1   force =    -0.10272935   -0.88224025   -2.08877503
     atom   14 type  2   force =     0.02510085   -0.09977506  -38.30038181
     atom   15 type  2   force =     0.07361965    0.12381075   37.40610709
     atom   16 type  1   force =    -0.14041152   -3.79543672   -1.30231963
     atom   17 type  2   force =    -0.85085005   -1.10724955  -38.03361741
     atom   18 type  2   force =     0.23967183    0.16005300   37.78165967
     atom   19 type  1   force =    -2.87368483    2.02369984   -3.95768286
     atom   20 type  2   force =    -0.05210858    0.01187240   37.90621980
     atom   21 type  1   force =     0.29715094    0.30191963   -1.02477130
     atom   22 type  2   force =    -0.42958665    1.33710566  -38.31612365
     atom   23 type  2   force =     0.19472645   -0.04764842   37.44406090
     atom   24 type  1   force =    -0.09380924   -0.67035134   -1.68420143
     atom   25 type  2   force =    -0.18350898   -0.18681639  -38.56969724
     atom   26 type  2   force =    -0.01224666    0.07753927   37.43695258
     atom   27 type  1   force =    -0.08462329   -0.36428796   -0.67813702
     atom   28 type  2   force =     0.11296997   -0.49596372  -37.65123045
     atom   29 type  2   force =    -0.14977092   -0.06966454   37.51010290
     atom   30 type  1   force =    -0.15188002    1.29879086   -2.52070107
     atom   31 type  2   force =    -1.25234168    0.06003562  -38.15382965
     atom   32 type  2   force =     0.25775452   -0.04424526   37.39985158
     atom   33 type  1   force =    -0.69075026    0.46755598   -2.61295091
     atom   34 type  2   force =    -0.27469201    0.07608230  -38.44154796
     atom   35 type  2   force =    -0.05967863    0.03474372   37.32423088
     atom   36 type  3   force =     0.01032216   -0.49435319   -8.37622980
     The core correction contribution to forces
     atom    1 type  1   force =     0.00000000    0.00000000    0.00000000
     atom    2 type  2   force =    -0.00006531    0.00058045    0.02070788
     atom    3 type  2   force =     0.00004025    0.00044329   -0.02091183
     atom    4 type  1   force =     0.00000000    0.00000000    0.00000000
     atom    5 type  2   force =     0.00002474    0.00121467    0.01996099
     atom    6 type  2   force =    -0.00017890   -0.00027261   -0.02095089
     atom    7 type  1   force =     0.00000000    0.00000000    0.00000000
     atom    8 type  2   force =    -0.00329494   -0.01376848   -0.00253600
     atom    9 type  2   force =     0.00043964    0.00080679   -0.02134104
     atom   10 type  1   force =     0.00000000    0.00000000    0.00000000
     atom   11 type  2   force =    -0.00034665    0.00025468    0.01982601
     atom   12 type  2   force =     0.00045097    0.00081190   -0.02084490
     atom   13 type  1   force =     0.00000000    0.00000000    0.00000000
     atom   14 type  2   force =    -0.00000107    0.00033493    0.02077820
     atom   15 type  2   force =    -0.00008039    0.00031214   -0.02061117
     atom   16 type  1   force =     0.00000000    0.00000000    0.00000000
     atom   17 type  2   force =     0.00053026    0.00098739    0.02018160
     atom   18 type  2   force =    -0.00015746   -0.00021026   -0.02073586
     atom   19 type  1   force =     0.00000000    0.00000000    0.00000000
     atom   20 type  2   force =     0.00026076    0.00074197   -0.02110684
     atom   21 type  1   force =     0.00000000    0.00000000    0.00000000
     atom   22 type  2   force =     0.00009891    0.00016816    0.02041148
     atom   23 type  2   force =    -0.00070600    0.00060007   -0.02078451
     atom   24 type  1   force =     0.00000000    0.00000000    0.00000000
     atom   25 type  2   force =    -0.00006130    0.00058139    0.02061699
     atom   26 type  2   force =    -0.00009635    0.00033700   -0.02084310
     atom   27 type  1   force =     0.00000000    0.00000000    0.00000000
     atom   28 type  2   force =    -0.00029599    0.00097060    0.02074261
     atom   29 type  2   force =     0.00046622    0.00024738   -0.02095097
     atom   30 type  1   force =     0.00000000    0.00000000    0.00000000
     atom   31 type  2   force =     0.00074421   -0.00001396    0.02036874
     atom   32 type  2   force =    -0.00067206    0.00095397   -0.02074849
     atom   33 type  1   force =     0.00000000    0.00000000    0.00000000
     atom   34 type  2   force =     0.00007307    0.00084254    0.02012572
     atom   35 type  2   force =    -0.00011604    0.00074526   -0.02100723
     atom   36 type  3   force =     0.00000000    0.00000000    0.00000000
     The Hubbard contrib.    to forces
     atom    1 type  1   force =     0.00000000    0.00000000    0.00000000
     atom    2 type  2   force =     0.00000000    0.00000000    0.00000000
     atom    3 type  2   force =     0.00000000    0.00000000    0.00000000
     atom    4 type  1   force =     0.00000000    0.00000000    0.00000000
     atom    5 type  2   force =     0.00000000    0.00000000    0.00000000
     atom    6 type  2   force =     0.00000000    0.00000000    0.00000000
     atom    7 type  1   force =     0.00000000    0.00000000    0.00000000
     atom    8 type  2   force =     0.00000000    0.00000000    0.00000000
     atom    9 type  2   force =     0.00000000    0.00000000    0.00000000
     atom   10 type  1   force =     0.00000000    0.00000000    0.00000000
     atom   11 type  2   force =     0.00000000    0.00000000    0.00000000
     atom   12 type  2   force =     0.00000000    0.00000000    0.00000000
     atom   13 type  1   force =     0.00000000    0.00000000    0.00000000
     atom   14 type  2   force =     0.00000000    0.00000000    0.00000000
     atom   15 type  2   force =     0.00000000    0.00000000    0.00000000
     atom   16 type  1   force =     0.00000000    0.00000000    0.00000000
     atom   17 type  2   force =     0.00000000    0.00000000    0.00000000
     atom   18 type  2   force =     0.00000000    0.00000000    0.00000000
     atom   19 type  1   force =     0.00000000    0.00000000    0.00000000
     atom   20 type  2   force =     0.00000000    0.00000000    0.00000000
     atom   21 type  1   force =     0.00000000    0.00000000    0.00000000
     atom   22 type  2   force =     0.00000000    0.00000000    0.00000000
     atom   23 type  2   force =     0.00000000    0.00000000    0.00000000
     atom   24 type  1   force =     0.00000000    0.00000000    0.00000000
     atom   25 type  2   force =     0.00000000    0.00000000    0.00000000
     atom   26 type  2   force =     0.00000000    0.00000000    0.00000000
     atom   27 type  1   force =     0.00000000    0.00000000    0.00000000
     atom   28 type  2   force =     0.00000000    0.00000000    0.00000000
     atom   29 type  2   force =     0.00000000    0.00000000    0.00000000
     atom   30 type  1   force =     0.00000000    0.00000000    0.00000000
     atom   31 type  2   force =     0.00000000    0.00000000    0.00000000
     atom   32 type  2   force =     0.00000000    0.00000000    0.00000000
     atom   33 type  1   force =     0.00000000    0.00000000    0.00000000
     atom   34 type  2   force =     0.00000000    0.00000000    0.00000000
     atom   35 type  2   force =     0.00000000    0.00000000    0.00000000
     atom   36 type  3   force =     0.00000000    0.00000000    0.00000000
     The SCF correction term to forces
     atom    1 type  1   force =     0.00002052    0.00004042    0.00007414
     atom    2 type  2   force =    -0.00000749    0.00001611    0.00003464
     atom    3 type  2   force =     0.00000550    0.00000758    0.00000923
     atom    4 type  1   force =     0.00000751    0.00003082    0.00005990
     atom    5 type  2   force =     0.00000428    0.00001549    0.00003015
     atom    6 type  2   force =     0.00001041    0.00001988    0.00001659
     atom    7 type  1   force =     0.00002401   -0.00004186    0.00004310
     atom    8 type  2   force =     0.00001493   -0.00000705    0.00001598
     atom    9 type  2   force =     0.00001456   -0.00000466    0.00001292
     atom   10 type  1   force =     0.00000204   -0.00003079    0.00005821
     atom   11 type  2   force =     0.00000450   -0.00001207    0.00004012
     atom   12 type  2   force =     0.00000520   -0.00002050   -0.00000085
     atom   13 type  1   force =     0.00001571    0.00001723    0.00007378
     atom   14 type  2   force =    -0.00000678    0.00001535    0.00004099
     atom   15 type  2   force =    -0.00000445    0.00001040    0.00001838
     atom   16 type  1   force =     0.00001751    0.00000857    0.00006533
     atom   17 type  2   force =     0.00000596   -0.00000237    0.00003286
     atom   18 type  2   force =    -0.00000150    0.00001645    0.00001178
     atom   19 type  1   force =    -0.00001880   -0.00001968    0.00003199
     atom   20 type  2   force =     0.00000591   -0.00000350    0.00000010
     atom   21 type  1   force =     0.00001549   -0.00001222    0.00005908
     atom   22 type  2   force =     0.00000489   -0.00000661    0.00003182
     atom   23 type  2   force =    -0.00000198   -0.00002552   -0.00000196
     atom   24 type  1   force =     0.00000127    0.00004778    0.00006261
     atom   25 type  2   force =     0.00000523    0.00001776    0.00003659
     atom   26 type  2   force =    -0.00000559    0.00000948    0.00001112
     atom   27 type  1   force =    -0.00002083    0.00003268    0.00004478
     atom   28 type  2   force =    -0.00001159    0.00000830    0.00002638
     atom   29 type  2   force =    -0.00001134    0.00001968    0.00001228
     atom   30 type  1   force =    -0.00002539   -0.00005232    0.00003204
     atom   31 type  2   force =    -0.00001725   -0.00000429    0.00001500
     atom   32 type  2   force =    -0.00001578   -0.00000176    0.00000408
     atom   33 type  1   force =    -0.00000931   -0.00001442    0.00004765
     atom   34 type  2   force =    -0.00001040   -0.00002162    0.00002722
     atom   35 type  2   force =    -0.00000163   -0.00003322    0.00000220
     atom   36 type  3   force =     0.00000042   -0.00000093    0.00000415

     Total force =     0.005942     Total SCF correction =     0.000270
     Energy error            =      8.6E-05 Ry
     Gradient error          =      1.6E-03 Ry/Bohr

     bfgs converged in  18 scf cycles and  17 bfgs steps
     (criteria: energy <  1.0E-04 Ry, force <  1.0E-02 Ry/Bohr)

     End of BFGS Geometry Optimization

     Final energy             =   -2205.5921606348 Ry

     File ./MoS2-V-O.bfgs deleted, as requested
Begin final coordinates

ATOMIC_POSITIONS (angstrom)
Mo            6.5636407657        1.7538151098        2.7414063672
S             8.1385017188        0.8543624749        4.3516100543
S             8.1441846904        0.8412979458        1.1555589476
Mo            8.1112631275        4.4751931744        2.6849569610
S             6.5196564282        3.6531986979        4.2997984589
S             6.5671397070        3.5559401230        1.0930037135
Mo            6.5336735639        7.2253788423        2.6990346830
S             8.0908473513        6.4035606528        4.3881854036
S             8.1518368516        6.3333120723        1.1472737302
Mo            8.1467601280        9.9450767021        2.7586084590
S             6.5313473737        8.9938573571        4.3359106410
S             6.5945009558        9.0364571666        1.1239281902
Mo            3.4268737956        1.7578143577        2.7474089342
S             4.9940221173        0.8277238632        4.3348688839
S             4.9925079361        0.8349026525        1.1575610563
Mo            4.9973610607        4.5216728943        2.6480363622
S             3.4612931229        3.6626475603        4.3042916116
S             3.4280161528        3.5668608560        1.1072622018
Mo            3.4880315448        7.1680612996        2.6995820134
S             5.0234703502        6.3262990039        1.0715402099
Mo            4.9988798579        9.9144630962        2.7306499990
S             3.4742695287        8.9579484026        4.3325366313
S             3.4101403592        9.0149383500        1.1407418183
Mo            0.2737027118        1.7386607198        2.7493442834
S             1.8627716933        0.8556821128        4.3584374797
S             1.8522651222        0.8316375363        1.1607819905
Mo            1.8575267314        4.4975071965        2.7156703099
S             0.2537689231        3.6006123878        4.2983743471
S             0.2637938220        3.5574009151        1.1307982659
Mo            0.2817844574        7.2257000182        2.7608202551
S             1.9206868572        6.2963688524        4.3262845015
S             1.8598766402        6.3323214623        1.1347211659
Mo            1.8607390079        9.9388511397        2.7652910521
S             0.2788442412        9.0498992915        4.3605436310
S             0.2759748249        9.0427312967        1.1713926483
H             8.2484023802        7.1747241594        5.5401075578
End final coordinates



     Writing all to output data dir ./MoS2-V-O.save/
 
     init_run     :      8.83s CPU      9.47s WALL (       1 calls)
     electrons    :   1419.40s CPU   1556.85s WALL (      18 calls)
     update_pot   :     23.85s CPU     24.80s WALL (      17 calls)
     forces       :     24.42s CPU     26.35s WALL (      18 calls)

     Called by init_run:
     wfcinit      :      0.49s CPU      0.61s WALL (       1 calls)
     potinit      :      1.56s CPU      1.65s WALL (       1 calls)
     hinit0       :      4.59s CPU      4.88s WALL (       1 calls)

     Called by electrons:
     c_bands      :    180.36s CPU    182.76s WALL (     145 calls)
     sum_band     :     46.92s CPU     51.57s WALL (     145 calls)
     v_of_rho     :     60.52s CPU     69.20s WALL (     150 calls)
     newd         :     24.03s CPU     27.36s WALL (     150 calls)
     mix_rho      :   1115.89s CPU   1233.30s WALL (     145 calls)

     Called by c_bands:
     init_us_2    :      3.20s CPU      3.32s WALL (     291 calls)
     init_us_2:cp :      3.19s CPU      3.31s WALL (     291 calls)
     regterg      :    169.74s CPU    172.02s WALL (     145 calls)

     Called by *egterg:
     rdiaghg      :     13.85s CPU     14.05s WALL (     760 calls)
     h_psi        :     98.37s CPU     99.37s WALL (     791 calls)
     s_psi        :     12.15s CPU     12.21s WALL (     791 calls)
     g_psi        :      0.67s CPU      0.68s WALL (     645 calls)

     Called by h_psi:
     h_psi:calbec :     13.37s CPU     13.45s WALL (     791 calls)
     vloc_psi     :     71.57s CPU     72.41s WALL (     791 calls)
     add_vuspsi   :     11.85s CPU     11.92s WALL (     791 calls)

     General routines
     calbec       :     19.20s CPU     19.30s WALL (    1008 calls)
     fft          :     42.63s CPU     49.22s WALL (   10206 calls)
     ffts         :    489.61s CPU    603.40s WALL (  273413 calls)
     fftw         :     63.59s CPU     64.26s WALL (   89931 calls)
     interpolate  :      1.14s CPU      1.31s WALL (     150 calls)
 
     Parallel routines
 
     PWSCF        :  24m40.45s CPU  27m 3.48s WALL

 
   This run was terminated on:   7:24:19   4Nov2023            

=------------------------------------------------------------------------------=
   JOB DONE.
=------------------------------------------------------------------------------=
