
     Program PWSCF v.7.2 starts on  4Nov2023 at  7:48:51 

     This program is part of the open-source Quantum ESPRESSO suite
     for quantum simulation of materials; please cite
         "P. Giannozzi et al., J. Phys.:Condens. Matter 21 395502 (2009);
         "P. Giannozzi et al., J. Phys.:Condens. Matter 29 465901 (2017);
         "P. Giannozzi et al., J. Chem. Phys. 152 154105 (2020);
          URL http://www.quantum-espresso.org", 
     in publications or presentations arising from this work. More details at
     http://www.quantum-espresso.org/quote

     Parallel version (MPI & OpenMP), running on      48 processor cores
     Number of MPI processes:                48
     Threads/MPI process:                     1

     MPI processes distributed on     1 nodes
     17227 MiB available memory on the printing compute node when the environment starts
 
     Waiting for input...
     Reading input from standard input
Warning: card &CELL ignored
Warning: card CELL_DYNAMICS = 'BFGS', ignored
Warning: card CELL_DOFREE = '2DXY' ignored
Warning: card / ignored

     Current dimensions of program PWSCF are:
     Max number of different atomic species (ntypx) = 10
     Max number of k-points (npk) =  40000
     Max angular momentum in pseudopotentials (lmaxx) =  4

     IMPORTANT: XC functional enforced from input :
     Exchange-correlation= RVV10
                           (   1   4  13   4  26   0   0)
     Any further DFT definition will be discarded
     Please, verify this is what you really want


     gamma-point specific algorithms are used
     signal trapping enabled: kill the code with -SIGUSR1 to stop cleanly the simulation 
 
     R & G space division:  proc/nbgrp/npool/nimage =      48
     Subspace diagonalization in iterative solution of the eigenvalue problem:
     one sub-group per band group will be used
     scalapack distributed-memory algorithm (size of sub-group:  2*  2 procs)

 
     Parallelization info
     --------------------
     sticks:   dense  smooth     PW     G-vecs:    dense   smooth      PW
     Min         243     194     47                49060    35090    4376
     Max         246     196     50                49086    35128    4410
     Sum       11735    9389   2349              2355467  1685513  210763
 
     Using Slab Decomposition
 


     bravais-lattice index     =            0
     lattice parameter (alat)  =      17.8707  a.u.
     unit-cell volume          =   17436.2743 (a.u.)^3
     number of atoms/cell      =           36
     number of atomic types    =            3
     number of electrons       =       307.00
     number of Kohn-Sham states=          185
     kinetic-energy cutoff     =      80.0000  Ry
     charge density cutoff     =     400.0000  Ry
     scf convergence threshold =      1.0E-06
     mixing beta               =       0.7000
     number of iterations used =            8  local-TF  mixing
     energy convergence thresh.=      1.0E-04
     force convergence thresh. =      1.0E-02
     Exchange-correlation= RVV10
                           (   1   4  13   4  26   0   0)
     nstep                     =          200


     celldm(1)=  17.870686  celldm(2)=   0.000000  celldm(3)=   0.000000
     celldm(4)=   0.000000  celldm(5)=   0.000000  celldm(6)=   0.000000

     crystal axes: (cart. coord. in units of alat)
               a(1) = (   1.000000   0.000000   0.000000 )  
               a(2) = (   0.000000   1.155671   0.000000 )  
               a(3) = (   0.000000   0.000000   2.643601 )  

     reciprocal axes: (cart. coord. in units 2 pi/alat)
               b(1) = (  1.000000  0.000000  0.000000 )  
               b(2) = (  0.000000  0.865298  0.000000 )  
               b(3) = (  0.000000  0.000000  0.378272 )  


     PseudoPot. # 1 for Mo read from file:
     ../pseudo/Mo_ONCV_PBE-1.0.oncvpsp.upf
     MD5 check sum: 1b5d28e075c9ccadda658a603575cd1f
     Pseudo is Norm-conserving, Zval = 14.0
     Generated using ONCVPSP code by D. R. Hamann
     Using radial grid of 1526 points,  6 beta functions with: 
                l(1) =   0
                l(2) =   0
                l(3) =   1
                l(4) =   1
                l(5) =   2
                l(6) =   2

     PseudoPot. # 2 for S  read from file:
     ../pseudo/s_pbe_v1.4.uspp.F.UPF
     MD5 check sum: 88d86576ff6df21479756cfb9bdac1df
     Pseudo is Ultrasoft + core correction, Zval =  6.0
     Generated by new atomic code, or converted to UPF format
     Using radial grid of  907 points,  6 beta functions with: 
                l(1) =   0
                l(2) =   0
                l(3) =   1
                l(4) =   1
                l(5) =   2
                l(6) =   2
     Q(r) pseudized with  8 coefficients,  rinner =    1.300   1.300   1.300
                                                       1.300   1.300

     PseudoPot. # 3 for H  read from file:
     ../pseudo/H_ONCV_PBE-1.0.oncvpsp.upf
     MD5 check sum: 1790becc920ee074925cf490c71280fe
     Pseudo is Norm-conserving, Zval =  1.0
     Generated using ONCVPSP code by D. R. Hamann
     Using radial grid of 1166 points,  2 beta functions with: 
                l(1) =   0
                l(2) =   0

     atomic species   valence    mass     pseudopotential
        Mo            14.00    95.94000     Mo( 1.00)
        S              6.00    32.06500     S ( 1.00)
        H              1.00     1.00794     H ( 1.00)

     No symmetry found



   Cartesian axes

     site n.     atom                  positions (alat units)
         1           Mo  tau(   1) = (   0.6952221   0.1890506   0.2985846  )
         2           S   tau(   2) = (   0.8646417   0.0856217   0.4689279  )
         3           S   tau(   3) = (   0.8663890   0.0857843   0.1351291  )
         4           Mo  tau(   4) = (   0.8560186   0.4753274   0.2873942  )
         5           S   tau(   5) = (   0.6873294   0.3936244   0.4596353  )
         6           S   tau(   6) = (   0.6929804   0.3713468   0.1185692  )
         7           Mo  tau(   7) = (   0.6862796   0.7633098   0.2825370  )
         8           S   tau(   8) = (   0.8545980   0.6708292   0.4486168  )
         9           S   tau(   9) = (   0.8545123   0.6666874   0.1146125  )
        10           Mo  tau(  10) = (   0.8629403   1.0471007   0.3006803  )
        11           S   tau(  11) = (   0.6868280   0.9456650   0.4634891  )
        12           S   tau(  12) = (   0.6998113   0.9568511   0.1205389  )
        13           Mo  tau(  13) = (   0.3618216   0.1847309   0.2935964  )
        14           S   tau(  14) = (   0.5260962   0.0863870   0.4600448  )
        15           S   tau(  15) = (   0.5348379   0.0894875   0.1297123  )
        16           Mo  tau(  16) = (   0.5265817   0.4772436   0.2784130  )
        17           S   tau(  17) = (   0.3624753   0.3882513   0.4525556  )
        18           S   tau(  18) = (   0.3635411   0.3752055   0.1119148  )
        19           Mo  tau(  19) = (   0.3652268   0.7630864   0.2781795  )
        20           S   tau(  20) = (   0.5269494   0.6690381   0.1096838  )
        21           Mo  tau(  21) = (   0.5300192   1.0470394   0.2900995  )
        22           S   tau(  22) = (   0.3670346   0.9457522   0.4574073  )
        23           S   tau(  23) = (   0.3604225   0.9585725   0.1159032  )
        24           Mo  tau(  24) = (   0.0313099   0.1847895   0.3013130  )
        25           S   tau(  25) = (   0.1956761   0.0838230   0.4650863  )
        26           S   tau(  26) = (   0.1967693   0.0903508   0.1278874  )
        27           Mo  tau(  27) = (   0.1967578   0.4753919   0.2813011  )
        28           S   tau(  28) = (   0.0287851   0.3864324   0.4586755  )
        29           S   tau(  29) = (   0.0244514   0.3729871   0.1239344  )
        30           Mo  tau(  30) = (   0.0286728   0.7631204   0.2856894  )
        31           S   tau(  31) = (   0.2011512   0.6675435   0.4465001  )
        32           S   tau(  32) = (   0.1969214   0.6672839   0.1104564  )
        33           Mo  tau(  33) = (   0.1950294   1.0511147   0.2932237  )
        34           S   tau(  34) = (   0.0312912   0.9612169   0.4667423  )
        35           S   tau(  35) = (   0.0292670   0.9563028   0.1216485  )
        36           H   tau(  36) = (   0.4444444   0.8988550   0.5792558  )

     number of k points=     1  Gaussian smearing, width (Ry)=  0.0100
                       cart. coord. in units 2pi/alat
        k(    1) = (   0.0000000   0.0000000   0.0000000), wk =   2.0000000

     Dense  grid:  1177734 G-vectors     FFT dimensions: ( 120, 135, 320)

     Smooth grid:   842757 G-vectors     FFT dimensions: ( 108, 120, 270)

     Estimated max dynamical RAM per process >     146.59 MB

     Estimated total dynamical RAM >       6.87 GB

     Initial potential from superposition of free atoms

     starting charge     306.9873, renormalised to     307.0000

     negative rho (up, down):  1.401E-04 0.000E+00


---------------------------------------------------------------------------------
Carrying out rVV10 run using the following parameters:
Nqs =      20    Nr_points =    1024   r_max =   100.000
b_value =  6.30000    beta =  0.00901
     q_mesh =  0.00010000  0.00030000  0.00058939  0.00100810
               0.00161396  0.00249058  0.00375900  0.00559430
               0.00824984  0.01209221  0.01765183  0.02569619
               0.03733578  0.05417739  0.07854596  0.11380545
               0.16482331  0.23864234  0.34545298  0.50000000

Gradients computed in Reciprocal space

---------------------------------------------------------------------------------


     Starting wfcs are  213 randomized atomic wfcs

     total cpu time spent up to now is        3.4 secs

     Self-consistent Calculation

     iteration #  1     ecut=    80.00 Ry     beta= 0.70
     Davidson diagonalization with overlap
     ethr =  1.00E-02,  avg # of iterations =  2.0

     Threshold (ethr) on eigenvalues was too large:
     Diagonalizing with lowered threshold

     Davidson diagonalization with overlap
     ethr =  3.95E-04,  avg # of iterations =  4.0

     negative rho (up, down):  2.096E-08 0.000E+00

     total cpu time spent up to now is       18.0 secs

     total energy              =   -2205.62681265 Ry
     estimated scf accuracy    <       1.50098886 Ry

     iteration #  2     ecut=    80.00 Ry     beta= 0.70
     Davidson diagonalization with overlap
     ethr =  4.89E-04,  avg # of iterations =  2.0

     total cpu time spent up to now is       20.4 secs

     total energy              =   -2205.45728729 Ry
     estimated scf accuracy    <       0.61279787 Ry

     iteration #  3     ecut=    80.00 Ry     beta= 0.70
     Davidson diagonalization with overlap
     ethr =  2.00E-04,  avg # of iterations =  5.0

     total cpu time spent up to now is       23.0 secs

     total energy              =   -2205.55040830 Ry
     estimated scf accuracy    <       0.06009224 Ry

     iteration #  4     ecut=    80.00 Ry     beta= 0.70
     Davidson diagonalization with overlap
     ethr =  1.96E-05,  avg # of iterations = 12.0

     total cpu time spent up to now is       26.0 secs

     total energy              =   -2205.55446775 Ry
     estimated scf accuracy    <       0.03039048 Ry

     iteration #  5     ecut=    80.00 Ry     beta= 0.70
     Davidson diagonalization with overlap
     ethr =  9.90E-06,  avg # of iterations =  1.0

     total cpu time spent up to now is       28.1 secs

     total energy              =   -2205.55321864 Ry
     estimated scf accuracy    <       0.02043323 Ry

     iteration #  6     ecut=    80.00 Ry     beta= 0.70
     Davidson diagonalization with overlap
     ethr =  6.66E-06,  avg # of iterations =  1.0

     total cpu time spent up to now is       30.2 secs

     total energy              =   -2205.55277813 Ry
     estimated scf accuracy    <       0.01183223 Ry

     iteration #  7     ecut=    80.00 Ry     beta= 0.70
     Davidson diagonalization with overlap
     ethr =  3.85E-06,  avg # of iterations =  1.0

     total cpu time spent up to now is       32.3 secs

     total energy              =   -2205.55096293 Ry
     estimated scf accuracy    <       0.00945657 Ry

     iteration #  8     ecut=    80.00 Ry     beta= 0.70
     Davidson diagonalization with overlap
     ethr =  3.08E-06,  avg # of iterations =  2.0

     negative rho (up, down):  9.302E-04 0.000E+00

     total cpu time spent up to now is       37.2 secs

     total energy              =   -2205.55034803 Ry
     estimated scf accuracy    <       0.00478648 Ry

     iteration #  9     ecut=    80.00 Ry     beta= 0.70
     Davidson diagonalization with overlap
     ethr =  1.56E-06,  avg # of iterations =  2.0

     negative rho (up, down):  2.217E-02 0.000E+00

     total cpu time spent up to now is       41.7 secs

     total energy              =   -2205.55005160 Ry
     estimated scf accuracy    <       0.00297639 Ry

     iteration # 10     ecut=    80.00 Ry     beta= 0.70
     Davidson diagonalization with overlap
     ethr =  9.70E-07,  avg # of iterations =  2.0

     negative rho (up, down):  3.143E-02 0.000E+00

     total cpu time spent up to now is       46.0 secs

     total energy              =   -2205.55004367 Ry
     estimated scf accuracy    <       0.00161994 Ry

     iteration # 11     ecut=    80.00 Ry     beta= 0.70
     Davidson diagonalization with overlap
     ethr =  5.28E-07,  avg # of iterations =  2.0

     negative rho (up, down):  2.406E-02 0.000E+00

     total cpu time spent up to now is       51.6 secs

     total energy              =   -2205.55008189 Ry
     estimated scf accuracy    <       0.00057963 Ry

     iteration # 12     ecut=    80.00 Ry     beta= 0.70
     Davidson diagonalization with overlap
     ethr =  1.89E-07,  avg # of iterations =  4.0

     negative rho (up, down):  9.317E-03 0.000E+00

     total cpu time spent up to now is       58.0 secs

     total energy              =   -2205.55014007 Ry
     estimated scf accuracy    <       0.00009856 Ry

     iteration # 13     ecut=    80.00 Ry     beta= 0.70
     Davidson diagonalization with overlap
     c_bands:  1 eigenvalues not converged
     ethr =  3.21E-08,  avg # of iterations = 20.0

     negative rho (up, down):  2.762E-03 0.000E+00

     total cpu time spent up to now is       64.4 secs

     total energy              =   -2205.55018271 Ry
     estimated scf accuracy    <       0.00001943 Ry

     iteration # 14     ecut=    80.00 Ry     beta= 0.70
     Davidson diagonalization with overlap
     c_bands:  1 eigenvalues not converged
     ethr =  6.33E-09,  avg # of iterations = 20.0

     negative rho (up, down):  5.762E-04 0.000E+00

     total cpu time spent up to now is       73.6 secs

     total energy              =   -2205.55017901 Ry
     estimated scf accuracy    <       0.00000655 Ry

     iteration # 15     ecut=    80.00 Ry     beta= 0.70
     Davidson diagonalization with overlap
     ethr =  2.13E-09,  avg # of iterations =  3.0

     negative rho (up, down):  4.166E-04 0.000E+00

     total cpu time spent up to now is       81.6 secs

     total energy              =   -2205.55018254 Ry
     estimated scf accuracy    <       0.00000182 Ry

     iteration # 16     ecut=    80.00 Ry     beta= 0.70
     Davidson diagonalization with overlap
     ethr =  5.94E-10,  avg # of iterations =  5.0

     negative rho (up, down):  1.361E-04 0.000E+00

     total cpu time spent up to now is       83.7 secs

     End of self-consistent calculation

          k = 0.0000 0.0000 0.0000 (105382 PWs)   bands (ev):

   -62.8656 -62.8477 -62.8281 -62.7944 -62.7759 -62.7723 -62.7674 -62.7501
   -62.7427 -62.6384 -62.6150 -62.5315 -37.1681 -37.1283 -37.1134 -37.1073
   -37.0861 -37.0686 -37.0499 -37.0397 -37.0247 -37.0074 -37.0047 -36.9856
   -36.9671 -36.9621 -36.9565 -36.9537 -36.9521 -36.9415 -36.9356 -36.9233
   -36.8968 -36.8875 -36.8718 -36.8588 -36.8515 -36.8335 -36.8220 -36.8044
   -36.7890 -36.7753 -36.7637 -36.7562 -36.7103 -36.6682 -36.5798 -36.5643
   -16.1968 -15.6477 -15.0644 -15.0276 -14.8875 -14.7998 -14.6430 -14.4318
   -14.3945 -14.3619 -14.3370 -14.2876 -14.2800 -14.2354 -14.1063 -14.0767
   -14.0465 -14.0334 -13.9597 -13.8390 -13.7863 -13.7609 -13.7212  -8.8343
    -7.6238  -7.3938  -7.2702  -7.2433  -7.2174  -7.1512  -7.0881  -7.0567
    -6.7812  -6.7152  -6.7072  -6.6673  -6.5196  -6.4463  -6.4213  -6.3987
    -6.3013  -6.2012  -6.1690  -5.9110  -5.8972  -5.8486  -5.7697  -5.7331
    -5.7146  -5.6553  -5.6181  -5.5889  -5.5519  -5.4879  -5.4564  -5.4232
    -5.4051  -5.3099  -5.1579  -5.1241  -5.0019  -4.9673  -4.9116  -4.8774
    -4.8334  -4.7739  -4.7371  -4.5044  -4.4260  -4.2979  -4.2400  -4.2084
    -4.1517  -4.0191  -3.9623  -3.8072  -3.7762  -3.7211  -3.6713  -3.6390
    -3.6047  -3.5044  -3.4924  -3.4366  -3.4262  -3.4023  -3.3734  -3.3166
    -3.2930  -3.1517  -3.0773  -2.9188  -2.8438  -2.8035  -2.7001  -2.6779
    -2.6509  -2.6018  -2.5854  -2.5657  -2.4867  -2.1948  -1.9542  -1.9238
    -1.8682  -0.7938  -0.6381  -0.5639  -0.1225  -0.0875  -0.0232   0.0114
     0.0605   0.1633   0.2182   0.2530   0.3065   0.3546   0.4681   0.5001
     0.5292   0.5749   0.6183   0.6297   0.7015   0.7372   0.7864   0.7982
     0.8092   0.8624   0.9130   0.9331   1.0068   1.0462   1.0811   1.2533
     1.4418

     the Fermi energy is    -0.8052 ev

!    total energy              =   -2205.55018349 Ry
     estimated scf accuracy    <       0.00000080 Ry
     smearing contrib. (-TS)   =      -0.00709305 Ry
     internal energy E=F+TS    =   -2205.54309044 Ry

     The total energy is F=E-TS. E is the sum of the following terms:
     one-electron contribution =  -18044.11276647 Ry
     hartree contribution      =    9009.40144557 Ry
     xc contribution           =    -385.32283703 Ry
     ewald contribution        =    7214.49106750 Ry

     convergence has been achieved in  16 iterations

     negative rho (up, down):  1.361E-04 0.000E+00

     Forces acting on atoms (cartesian axes, Ry/au):

     atom    1 type  1   force =     0.01346149   -0.02713228    0.00547330
     atom    2 type  2   force =    -0.01379220    0.01814007    0.00132201
     atom    3 type  2   force =    -0.01166894    0.00915549   -0.00377050
     atom    4 type  1   force =     0.01143290   -0.00364667    0.00078034
     atom    5 type  2   force =    -0.00141864   -0.00508436   -0.00707373
     atom    6 type  2   force =     0.00096906    0.01152436    0.00156069
     atom    7 type  1   force =    -0.00273512   -0.00298037   -0.00863570
     atom    8 type  2   force =     0.00129364   -0.00554387    0.01725322
     atom    9 type  2   force =     0.01428262    0.00381281    0.00887125
     atom   10 type  1   force =    -0.01048127    0.00851305   -0.02085355
     atom   11 type  2   force =     0.00255171   -0.00296124   -0.00681169
     atom   12 type  2   force =    -0.00181249    0.00046736    0.00478660
     atom   13 type  1   force =     0.00560996    0.00098872   -0.00764476
     atom   14 type  2   force =     0.00920783    0.00277816    0.01293342
     atom   15 type  2   force =    -0.01190649    0.00458060   -0.00993021
     atom   16 type  1   force =     0.00137984    0.00327206    0.00182713
     atom   17 type  2   force =     0.00519112   -0.00015417    0.00231733
     atom   18 type  2   force =    -0.00462566   -0.00583464    0.01458351
     atom   19 type  1   force =     0.00962785    0.00246876   -0.01345854
     atom   20 type  2   force =     0.00120789   -0.00501469    0.00114437
     atom   21 type  1   force =    -0.00145765    0.00489848    0.00187917
     atom   22 type  2   force =     0.04309963   -0.03599863    0.02546230
     atom   23 type  2   force =    -0.00108057    0.00169897    0.00751254
     atom   24 type  1   force =    -0.01155968    0.00149219   -0.01910224
     atom   25 type  2   force =     0.01311243    0.02366140    0.00870666
     atom   26 type  2   force =    -0.01101320   -0.00422415   -0.00465202
     atom   27 type  1   force =    -0.00569159   -0.00752048    0.00882446
     atom   28 type  2   force =     0.00069366   -0.00130741   -0.00606109
     atom   29 type  2   force =     0.00287147    0.00133736   -0.00350074
     atom   30 type  1   force =    -0.00006078    0.01527201   -0.00534933
     atom   31 type  2   force =    -0.00084642   -0.00413966    0.01668157
     atom   32 type  2   force =    -0.01268896    0.00292179    0.00489643
     atom   33 type  1   force =    -0.00847690    0.00805306   -0.02019570
     atom   34 type  2   force =    -0.00305431   -0.04189331   -0.01230167
     atom   35 type  2   force =    -0.00554782    0.00664974    0.01325800
     atom   36 type  3   force =    -0.01607442    0.02174948   -0.01073284
     The non-local contrib.  to forces
     atom    1 type  1   force =     0.00257749    0.03753807   -0.01018184
     atom    2 type  2   force =    -0.01073495    0.00230216   -0.26996894
     atom    3 type  2   force =    -0.01436171   -0.00348697    0.27117986
     atom    4 type  1   force =    -0.00119402    0.00997405    0.00449431
     atom    5 type  2   force =     0.00550792   -0.03453075   -0.25336635
     atom    6 type  2   force =    -0.00216625    0.00940301    0.26198160
     atom    7 type  1   force =    -0.02721081   -0.01018575   -0.01543241
     atom    8 type  2   force =     0.00661734   -0.00528182   -0.25319143
     atom    9 type  2   force =     0.01171447   -0.01019429    0.27701731
     atom   10 type  1   force =     0.00293984    0.00236646   -0.00545095
     atom   11 type  2   force =     0.00876827    0.00793089   -0.23960880
     atom   12 type  2   force =    -0.01423350   -0.00977624    0.26151872
     atom   13 type  1   force =    -0.00071278    0.02759579   -0.00762121
     atom   14 type  2   force =     0.01198909   -0.01438155   -0.25624638
     atom   15 type  2   force =    -0.01285681   -0.00732775    0.26235704
     atom   16 type  1   force =     0.00026990    0.03480943   -0.02375299
     atom   17 type  2   force =     0.00200844   -0.03020851   -0.24919966
     atom   18 type  2   force =    -0.00446707   -0.00623153    0.27373646
     atom   19 type  1   force =     0.02393022   -0.00900580   -0.00598364
     atom   20 type  2   force =    -0.00282672   -0.01713274    0.26459748
     atom   21 type  1   force =     0.00304087    0.02427861    0.00218979
     atom   22 type  2   force =     0.19243228   -0.08342953    0.14099024
     atom   23 type  2   force =     0.00883250   -0.01168541    0.27277285
     atom   24 type  1   force =     0.00378702    0.02155740   -0.00981859
     atom   25 type  2   force =     0.00608663    0.00986322   -0.25299879
     atom   26 type  2   force =    -0.00200265   -0.01777445    0.26640761
     atom   27 type  1   force =    -0.00001615    0.01118262    0.00805108
     atom   28 type  2   force =    -0.00282972   -0.02447907   -0.27242707
     atom   29 type  2   force =     0.00781457    0.00209798    0.26147378
     atom   30 type  1   force =    -0.00357380    0.00792947    0.01178971
     atom   31 type  2   force =    -0.00179859   -0.00059684   -0.24620478
     atom   32 type  2   force =    -0.00776964   -0.01470162    0.27333591
     atom   33 type  1   force =    -0.00291883    0.00361256   -0.01457076
     atom   34 type  2   force =    -0.00765703   -0.04035700   -0.26400169
     atom   35 type  2   force =     0.00102814   -0.00608744    0.27507552
     atom   36 type  3   force =    -0.02608134    0.01706996   -0.03987021
     The ionic contribution  to forces
     atom    1 type  1   force =     0.45137873    0.32205441    5.66719081
     atom    2 type  2   force =    -0.63281746    0.46720174   39.27417763
     atom    3 type  2   force =    -0.15512778    0.03867702  -36.08604825
     atom    4 type  1   force =     0.12454850    0.51031101    0.66275266
     atom    5 type  2   force =    -0.93372202    1.46008920   38.74277546
     atom    6 type  2   force =     0.35616898   -0.50840133  -38.02100022
     atom    7 type  1   force =    -2.38063182   -2.93073746    2.29415416
     atom    8 type  2   force =    -0.92818057   -0.04133944   37.36485936
     atom    9 type  2   force =     0.35398892   -0.05763418  -38.01509702
     atom   10 type  1   force =    -1.00885170   -0.22523850    5.57238703
     atom   11 type  2   force =    -0.15918539   -1.52086011   38.95019795
     atom   12 type  2   force =     0.47911757    0.70539523  -37.90871661
     atom   13 type  1   force =     0.44646663    1.12068972    2.78610699
     atom   14 type  2   force =     0.10979783    0.20033591   38.45687121
     atom   15 type  2   force =     0.16840964   -0.02348750  -36.83271025
     atom   16 type  1   force =     0.01291768    3.80188570    0.40439108
     atom   17 type  2   force =     0.79462237    1.45210854   37.92018943
     atom   18 type  2   force =    -0.16609520   -0.65605581  -38.56750319
     atom   19 type  1   force =     2.56693531   -2.71643230    0.10735670
     atom   20 type  2   force =     0.24241504   -0.23762407  -38.53189795
     atom   21 type  1   force =     0.21057491    0.36498918    0.62556501
     atom   22 type  2   force =    -0.36055114   -1.21495282   37.15094305
     atom   23 type  2   force =    -0.10698218    0.68353687  -38.38416374
     atom   24 type  1   force =    -0.58251751    1.20297552    5.83729321
     atom   25 type  2   force =     0.57667122    0.40245605   39.24076782
     atom   26 type  2   force =    -0.30721052    0.09522566  -37.34624221
     atom   27 type  1   force =    -0.04133414    0.30120342   -2.29261425
     atom   28 type  2   force =     0.03579291    0.98617545   38.20892825
     atom   29 type  2   force =    -0.27082574   -0.43412923  -37.25499447
     atom   30 type  1   force =    -0.43122212   -0.97619273   -0.13349567
     atom   31 type  2   force =     1.07001335   -0.21986590   37.24782857
     atom   32 type  2   force =    -0.50519418   -0.03602037  -38.66570338
     atom   33 type  1   force =     0.55774269   -0.68047994    1.81414944
     atom   34 type  2   force =     0.14282356   -1.40955918   39.31704205
     atom   35 type  2   force =    -0.31723407    0.48677170  -37.83946685
     atom   36 type  3   force =     0.58729768   -0.71307144    8.23372618
     The local contribution  to forces
     atom    1 type  1   force =    -0.44056464   -0.38673139   -5.65050030
     atom    2 type  2   force =     0.62950052   -0.45126796  -39.02302757
     atom    3 type  2   force =     0.15720293   -0.02616165   35.83231650
     atom    4 type  1   force =    -0.11193394   -0.52408490   -0.66546950
     atom    5 type  2   force =     0.92732805   -1.43261768  -38.51624625
     atom    6 type  2   force =    -0.35333118    0.51145942   37.78165179
     atom    7 type  1   force =     2.40502435    2.93788592   -2.28625885
     atom    8 type  2   force =     0.92314505    0.04051247  -37.11407855
     atom    9 type  2   force =    -0.35097911    0.07100778   37.76811608
     atom   10 type  1   force =     0.99549896    0.23155745   -5.58675077
     atom   11 type  2   force =     0.15299058    1.51069878  -38.73624431
     atom   12 type  2   force =    -0.46789825   -0.69603642   37.67297027
     atom   13 type  1   force =    -0.44007898   -1.14725815   -2.78508748
     atom   14 type  2   force =    -0.11205627   -0.18355915  -38.20737629
     atom   15 type  2   force =    -0.16815524    0.03493986   36.58133901
     atom   16 type  1   force =    -0.01191149   -3.83348602   -0.37769467
     atom   17 type  2   force =    -0.79141104   -1.42367443  -37.68828606
     atom   18 type  2   force =     0.16579953    0.65670424   38.32962471
     atom   19 type  1   force =    -2.58126294    2.72781882   -0.11368844
     atom   20 type  2   force =    -0.23871819    0.24907536   38.28983272
     atom   21 type  1   force =    -0.21513363   -0.38417950   -0.62482171
     atom   22 type  2   force =     0.22335884    1.25692609  -37.26233010
     atom   23 type  2   force =     0.09766926   -0.67114168   38.14032430
     atom   24 type  1   force =     0.56720245   -1.22313050   -5.84553656
     atom   25 type  2   force =    -0.56962758   -0.38824959  -38.99874721
     atom   26 type  2   force =     0.29835670   -0.08271229   37.09645555
     atom   27 type  1   force =     0.03578146   -0.31997346    2.29436429
     atom   28 type  2   force =    -0.03246067   -0.96484694  -37.96276144
     atom   29 type  2   force =     0.26652040    0.43386144   37.01073132
     atom   30 type  1   force =     0.43484739    0.98359971    0.11734455
     atom   31 type  2   force =    -1.06908437    0.21637676  -37.00439934
     atom   32 type  2   force =     0.50012830    0.05277906   38.41850503
     atom   33 type  1   force =    -0.56333139    0.68501962   -1.81873176
     atom   34 type  2   force =    -0.13873843    1.40679761  -39.08540990
     atom   35 type  2   force =     0.31093913   -0.47469646   37.59919014
     atom   36 type  3   force =    -0.57731471    0.71775960   -8.20452520
     The core correction contribution to forces
     atom    1 type  1   force =     0.00000000    0.00000000    0.00000000
     atom    2 type  2   force =     0.00027796   -0.00010200    0.02070172
     atom    3 type  2   force =     0.00063087    0.00011488   -0.02094710
     atom    4 type  1   force =     0.00000000    0.00000000    0.00000000
     atom    5 type  2   force =    -0.00059727    0.00195637    0.02032269
     atom    6 type  2   force =     0.00024941   -0.00096824   -0.02080950
     atom    7 type  1   force =     0.00000000    0.00000000    0.00000000
     atom    8 type  2   force =    -0.00025053    0.00052237    0.02029274
     atom    9 type  2   force =    -0.00038077    0.00058309   -0.02098452
     atom   10 type  1   force =     0.00000000    0.00000000    0.00000000
     atom   11 type  2   force =    -0.00004561   -0.00066049    0.01943311
     atom   12 type  2   force =     0.00121339    0.00099151   -0.02076103
     atom   13 type  1   force =     0.00000000    0.00000000    0.00000000
     atom   14 type  2   force =    -0.00054384    0.00037056    0.02024759
     atom   15 type  2   force =     0.00069613    0.00046922   -0.02065117
     atom   16 type  1   force =     0.00000000    0.00000000    0.00000000
     atom   17 type  2   force =     0.00002337    0.00161724    0.02015088
     atom   18 type  2   force =     0.00016597   -0.00026404   -0.02100295
     atom   19 type  1   force =     0.00000000    0.00000000    0.00000000
     atom   20 type  2   force =     0.00027457    0.00056730   -0.02112989
     atom   21 type  1   force =     0.00000000    0.00000000    0.00000000
     atom   22 type  2   force =    -0.01219521    0.00547236   -0.00350134
     atom   23 type  2   force =    -0.00064189    0.00102790   -0.02114560
     atom   24 type  1   force =     0.00000000    0.00000000    0.00000000
     atom   25 type  2   force =    -0.00001595   -0.00045593    0.02026605
     atom   26 type  2   force =    -0.00018077    0.00100325   -0.02100385
     atom   27 type  1   force =     0.00000000    0.00000000    0.00000000
     atom   28 type  2   force =     0.00019840    0.00180044    0.02081272
     atom   29 type  2   force =    -0.00062907   -0.00053389   -0.02048216
     atom   30 type  1   force =     0.00000000    0.00000000    0.00000000
     atom   31 type  2   force =     0.00008533   -0.00004361    0.02004145
     atom   32 type  2   force =     0.00015115    0.00084367   -0.02101032
     atom   33 type  1   force =     0.00000000    0.00000000    0.00000000
     atom   34 type  2   force =     0.00057293    0.00127324    0.02063202
     atom   35 type  2   force =    -0.00025420    0.00071616   -0.02127982
     atom   36 type  3   force =     0.00000000    0.00000000    0.00000000
     The Hubbard contrib.    to forces
     atom    1 type  1   force =     0.00000000    0.00000000    0.00000000
     atom    2 type  2   force =     0.00000000    0.00000000    0.00000000
     atom    3 type  2   force =     0.00000000    0.00000000    0.00000000
     atom    4 type  1   force =     0.00000000    0.00000000    0.00000000
     atom    5 type  2   force =     0.00000000    0.00000000    0.00000000
     atom    6 type  2   force =     0.00000000    0.00000000    0.00000000
     atom    7 type  1   force =     0.00000000    0.00000000    0.00000000
     atom    8 type  2   force =     0.00000000    0.00000000    0.00000000
     atom    9 type  2   force =     0.00000000    0.00000000    0.00000000
     atom   10 type  1   force =     0.00000000    0.00000000    0.00000000
     atom   11 type  2   force =     0.00000000    0.00000000    0.00000000
     atom   12 type  2   force =     0.00000000    0.00000000    0.00000000
     atom   13 type  1   force =     0.00000000    0.00000000    0.00000000
     atom   14 type  2   force =     0.00000000    0.00000000    0.00000000
     atom   15 type  2   force =     0.00000000    0.00000000    0.00000000
     atom   16 type  1   force =     0.00000000    0.00000000    0.00000000
     atom   17 type  2   force =     0.00000000    0.00000000    0.00000000
     atom   18 type  2   force =     0.00000000    0.00000000    0.00000000
     atom   19 type  1   force =     0.00000000    0.00000000    0.00000000
     atom   20 type  2   force =     0.00000000    0.00000000    0.00000000
     atom   21 type  1   force =     0.00000000    0.00000000    0.00000000
     atom   22 type  2   force =     0.00000000    0.00000000    0.00000000
     atom   23 type  2   force =     0.00000000    0.00000000    0.00000000
     atom   24 type  1   force =     0.00000000    0.00000000    0.00000000
     atom   25 type  2   force =     0.00000000    0.00000000    0.00000000
     atom   26 type  2   force =     0.00000000    0.00000000    0.00000000
     atom   27 type  1   force =     0.00000000    0.00000000    0.00000000
     atom   28 type  2   force =     0.00000000    0.00000000    0.00000000
     atom   29 type  2   force =     0.00000000    0.00000000    0.00000000
     atom   30 type  1   force =     0.00000000    0.00000000    0.00000000
     atom   31 type  2   force =     0.00000000    0.00000000    0.00000000
     atom   32 type  2   force =     0.00000000    0.00000000    0.00000000
     atom   33 type  1   force =     0.00000000    0.00000000    0.00000000
     atom   34 type  2   force =     0.00000000    0.00000000    0.00000000
     atom   35 type  2   force =     0.00000000    0.00000000    0.00000000
     atom   36 type  3   force =     0.00000000    0.00000000    0.00000000
     The SCF correction term to forces
     atom    1 type  1   force =     0.00006898    0.00000267   -0.00100524
     atom    2 type  2   force =    -0.00001923    0.00000218   -0.00053069
     atom    3 type  2   force =    -0.00001418    0.00000825   -0.00024138
     atom    4 type  1   force =     0.00001142    0.00014921   -0.00096700
     atom    5 type  2   force =     0.00006373    0.00001454   -0.00052915
     atom    6 type  2   force =     0.00004716    0.00002753   -0.00023285
     atom    7 type  1   force =     0.00008222    0.00005296   -0.00106848
     atom    8 type  2   force =    -0.00003859    0.00003859   -0.00059877
     atom    9 type  2   force =    -0.00006182    0.00004644   -0.00015047
     atom   10 type  1   force =    -0.00006931   -0.00017632   -0.00100873
     atom   11 type  2   force =     0.00002293   -0.00007427   -0.00055952
     atom   12 type  2   force =    -0.00001265   -0.00011069   -0.00019463
     atom   13 type  1   force =    -0.00006585   -0.00004259   -0.00101293
     atom   14 type  2   force =     0.00002008    0.00000843   -0.00053259
     atom   15 type  2   force =    -0.00000115   -0.00001719   -0.00023471
     atom   16 type  1   force =     0.00010281    0.00005899   -0.00108615
     atom   17 type  2   force =    -0.00005296   -0.00000097   -0.00050712
     atom   18 type  2   force =    -0.00002983    0.00000853   -0.00024139
     atom   19 type  1   force =     0.00002431    0.00008409   -0.00111303
     atom   20 type  2   force =     0.00006224    0.00009550   -0.00022786
     atom   21 type  1   force =     0.00005926   -0.00019377   -0.00102380
     atom   22 type  2   force =     0.00005392   -0.00001868   -0.00060943
     atom   23 type  2   force =     0.00004081   -0.00004267   -0.00024513
     atom   24 type  1   force =    -0.00003258    0.00008581   -0.00101017
     atom   25 type  2   force =    -0.00000284    0.00004370   -0.00055108
     atom   26 type  2   force =     0.00002310    0.00002972   -0.00023900
     atom   27 type  1   force =    -0.00012370    0.00006298   -0.00094653
     atom   28 type  2   force =    -0.00000820    0.00003874   -0.00058341
     atom   29 type  2   force =    -0.00000963    0.00003711   -0.00019908
     atom   30 type  1   force =    -0.00011318   -0.00006840   -0.00095778
     atom   31 type  2   force =    -0.00006308   -0.00001402   -0.00055420
     atom   32 type  2   force =    -0.00000553    0.00001708   -0.00020068
     atom   33 type  1   force =     0.00002969   -0.00010315   -0.00101250
     atom   34 type  2   force =    -0.00005629   -0.00005195   -0.00053402
     atom   35 type  2   force =    -0.00002777   -0.00005818   -0.00023085
     atom   36 type  3   force =     0.00002301   -0.00001260   -0.00003347

     Total force =     0.120911     Total SCF correction =     0.004087

     BFGS Geometry Optimization
     Energy error            =      0.0E+00 Ry
     Gradient error          =      4.3E-02 Ry/Bohr

     number of scf cycles    =   1
     number of bfgs steps    =   0

     energy             new  =   -2205.5501834885 Ry

     new trust radius        =       0.0616588057 bohr
     new conv_thr            =       0.0000010000 Ry


ATOMIC_POSITIONS (angstrom)
Mo            6.5816719247        1.7734484461        2.8265393787
S             8.1694108185        0.8193033362        4.4352379318
S             8.1870581506        0.8160866239        1.2758881613
Mo            8.1012125934        4.4931272114        2.7182313331
S             6.4991585433        3.7197209607        4.3429173938
S             6.5538626001        3.5178359819        1.1221061084
Mo            6.4885343357        7.2168601420        2.6673146667
S             8.0824122944        6.3409373032        4.2515915736
S             8.0884756851        6.3067199693        1.0885574646
Mo            8.1550725968        9.9066853237        2.8324265393
S             6.4965179037        8.9413597939        4.3795009420
S             6.6169880711        9.0489585281        1.1424402614
Mo            3.4246283267        1.7474790609        2.7724257302
S             4.9800380644        0.8184113491        4.3573771656
S             5.0515331116        0.8486860596        1.2214036197
Mo            4.9804868590        4.5149095021        2.6338514254
S             3.4305886842        3.6715181044        4.2809358581
S             3.4354727862        3.5451411385        1.0660689429
Mo            3.4589565782        7.2176309510        2.6235549076
S             4.9838733809        6.3242786246        1.0378593055
Mo            5.0114925675        9.9041922132        2.7443953762
S             3.4937654608        8.9247016167        4.3390653828
S             3.4078573553        9.0658890397        1.1000437658
Mo            0.2899733673        1.7482991628        2.8393362376
S             1.8574010097        0.8052150790        4.4028168062
S             1.8549720996        0.8521905931        1.2069391089
Mo            1.8576794508        4.4916870970        2.6648670830
S             0.2725809205        3.6537069721        4.3343767099
S             0.2327507256        3.5279569277        1.1701653730
Mo            0.2711199891        7.2247276930        2.6988656864
S             1.9017903404        6.3106082229        4.2312716267
S             1.8555235043        6.3118899588        1.0471503603
Mo            1.8398608811        9.9444006493        2.7622591454
S             0.2942966261        9.0678288410        4.4073597002
S             0.2738356223        9.0470446050        1.1574166124
H             4.1944982271        8.5117648845        5.4722038521



     Writing config-only to output data dir ./MoS2-V-O.save/
     NEW-OLD atomic charge density approx. for the potential

     negative rho (up, down):  1.425E-04 0.000E+00

     total cpu time spent up to now is       87.1 secs

     Self-consistent Calculation

     iteration #  1     ecut=    80.00 Ry     beta= 0.70
     Davidson diagonalization with overlap
     ethr =  1.00E-06,  avg # of iterations =  8.0

     negative rho (up, down):  1.052E-04 0.000E+00

     total cpu time spent up to now is       99.2 secs

     total energy              =   -2205.56154652 Ry
     estimated scf accuracy    <       0.00124012 Ry

     iteration #  2     ecut=    80.00 Ry     beta= 0.70
     Davidson diagonalization with overlap
     ethr =  4.04E-07,  avg # of iterations =  3.0

     negative rho (up, down):  9.525E-05 0.000E+00

     total cpu time spent up to now is      111.5 secs

     total energy              =   -2205.56159584 Ry
     estimated scf accuracy    <       0.00029402 Ry

     iteration #  3     ecut=    80.00 Ry     beta= 0.70
     Davidson diagonalization with overlap
     ethr =  9.58E-08,  avg # of iterations =  3.0

     negative rho (up, down):  8.704E-05 0.000E+00

     total cpu time spent up to now is      127.8 secs

     total energy              =   -2205.56161685 Ry
     estimated scf accuracy    <       0.00011250 Ry

     iteration #  4     ecut=    80.00 Ry     beta= 0.70
     Davidson diagonalization with overlap
     ethr =  3.66E-08,  avg # of iterations =  6.0

     negative rho (up, down):  8.309E-05 0.000E+00

     total cpu time spent up to now is      143.1 secs

     total energy              =   -2205.56163068 Ry
     estimated scf accuracy    <       0.00001253 Ry

     iteration #  5     ecut=    80.00 Ry     beta= 0.70
     Davidson diagonalization with overlap
     ethr =  4.08E-09,  avg # of iterations =  5.0

     negative rho (up, down):  8.030E-05 0.000E+00

     total cpu time spent up to now is      158.0 secs

     total energy              =   -2205.56163452 Ry
     estimated scf accuracy    <       0.00000397 Ry

     iteration #  6     ecut=    80.00 Ry     beta= 0.70
     Davidson diagonalization with overlap
     ethr =  1.29E-09,  avg # of iterations =  2.0

     negative rho (up, down):  7.849E-05 0.000E+00

     total cpu time spent up to now is      172.8 secs

     total energy              =   -2205.56163494 Ry
     estimated scf accuracy    <       0.00000121 Ry

     iteration #  7     ecut=    80.00 Ry     beta= 0.70
     Davidson diagonalization with overlap
     ethr =  3.94E-10,  avg # of iterations =  5.0

     negative rho (up, down):  1.366E-04 0.000E+00

     total cpu time spent up to now is      174.9 secs

     End of self-consistent calculation

          k = 0.0000 0.0000 0.0000 (105382 PWs)   bands (ev):

   -62.8671 -62.8472 -62.8199 -62.7900 -62.7728 -62.7695 -62.7653 -62.7485
   -62.7407 -62.6411 -62.6104 -62.5250 -37.1655 -37.1268 -37.1098 -37.1060
   -37.0796 -37.0657 -37.0444 -37.0368 -37.0158 -37.0049 -37.0021 -36.9819
   -36.9637 -36.9584 -36.9530 -36.9500 -36.9490 -36.9386 -36.9338 -36.9228
   -36.8969 -36.8839 -36.8674 -36.8559 -36.8489 -36.8310 -36.8214 -36.8048
   -36.7852 -36.7760 -36.7619 -36.7566 -36.7053 -36.6639 -36.5784 -36.5599
   -16.2328 -15.6760 -15.0561 -15.0353 -14.8755 -14.7960 -14.6449 -14.4246
   -14.3772 -14.3563 -14.3374 -14.2933 -14.2836 -14.2330 -14.1059 -14.0759
   -14.0482 -14.0319 -13.9607 -13.8289 -13.7737 -13.7621 -13.7337  -8.9329
    -7.6138  -7.3831  -7.2582  -7.2269  -7.2154  -7.1506  -7.1017  -7.0574
    -6.7708  -6.7041  -6.6894  -6.6696  -6.5247  -6.4527  -6.4226  -6.3954
    -6.3023  -6.1985  -6.1661  -5.9056  -5.9027  -5.8385  -5.7633  -5.7410
    -5.7093  -5.6548  -5.6149  -5.5902  -5.5524  -5.4903  -5.4604  -5.4110
    -5.3879  -5.2880  -5.1594  -5.1070  -4.9870  -4.9603  -4.9131  -4.8852
    -4.8365  -4.7792  -4.7375  -4.5103  -4.4359  -4.2822  -4.2438  -4.1966
    -4.1475  -4.0247  -3.9715  -3.8098  -3.7750  -3.7236  -3.6670  -3.6332
    -3.5995  -3.5030  -3.4962  -3.4347  -3.4163  -3.3966  -3.3717  -3.3191
    -3.2948  -3.1591  -3.0747  -2.9097  -2.8371  -2.7967  -2.7002  -2.6850
    -2.6379  -2.6068  -2.5869  -2.5596  -2.4891  -2.1886  -1.9469  -1.9293
    -1.8864  -0.7975  -0.6328  -0.5605  -0.1116  -0.0814  -0.0155   0.0148
     0.0799   0.1674   0.2166   0.2733   0.3034   0.3648   0.4817   0.5016
     0.5335   0.5781   0.6273   0.6409   0.7139   0.7287   0.7798   0.8053
     0.8111   0.8682   0.9170   0.9310   1.0255   1.0538   1.0771   1.2554
     1.4477

     the Fermi energy is    -0.8072 ev

!    total energy              =   -2205.56163455 Ry
     estimated scf accuracy    <       0.00000062 Ry
     smearing contrib. (-TS)   =      -0.00691490 Ry
     internal energy E=F+TS    =   -2205.55471965 Ry

     The total energy is F=E-TS. E is the sum of the following terms:
     one-electron contribution =  -18043.53749143 Ry
     hartree contribution      =    9009.15977854 Ry
     xc contribution           =    -385.33784579 Ry
     ewald contribution        =    7214.16083903 Ry

     convergence has been achieved in   7 iterations

     negative rho (up, down):  1.366E-04 0.000E+00

     Forces acting on atoms (cartesian axes, Ry/au):

     atom    1 type  1   force =     0.00337531   -0.01365937   -0.00021161
     atom    2 type  2   force =    -0.00851770    0.01176571   -0.00013192
     atom    3 type  2   force =    -0.01053008    0.00725151   -0.00881638
     atom    4 type  1   force =     0.00844235   -0.00108228    0.00191582
     atom    5 type  2   force =     0.00050665   -0.00592278   -0.00661394
     atom    6 type  2   force =     0.00151546    0.00708124    0.00354503
     atom    7 type  1   force =    -0.00084438   -0.00356661   -0.00223873
     atom    8 type  2   force =     0.00098498   -0.00410655    0.01030174
     atom    9 type  2   force =     0.01233061    0.00328911    0.00660386
     atom   10 type  1   force =    -0.00518427    0.00669211   -0.00713279
     atom   11 type  2   force =     0.00456520   -0.00188547   -0.00807564
     atom   12 type  2   force =    -0.00355874    0.00052987    0.00040029
     atom   13 type  1   force =     0.00378300   -0.00074456   -0.00248997
     atom   14 type  2   force =     0.00673004    0.00158563    0.00914716
     atom   15 type  2   force =    -0.00796420    0.00263683   -0.00792339
     atom   16 type  1   force =     0.00142569    0.00232907    0.00158241
     atom   17 type  2   force =     0.00482823   -0.00068345    0.00213290
     atom   18 type  2   force =    -0.00393425   -0.00400842    0.01169944
     atom   19 type  1   force =     0.00608565   -0.00014517   -0.00426845
     atom   20 type  2   force =     0.00148418   -0.00496909   -0.00285312
     atom   21 type  1   force =    -0.00117671    0.00469108    0.00359264
     atom   22 type  2   force =     0.02109634   -0.02244420    0.00254749
     atom   23 type  2   force =    -0.00109425    0.00265587    0.00408752
     atom   24 type  1   force =    -0.00672855    0.00108619   -0.00897904
     atom   25 type  2   force =     0.00833527    0.01775094    0.00127686
     atom   26 type  2   force =    -0.00869146   -0.00172414   -0.00670010
     atom   27 type  1   force =    -0.00409982   -0.00461658    0.00769677
     atom   28 type  2   force =     0.00005341   -0.00280226   -0.00457364
     atom   29 type  2   force =     0.00237537    0.00188025   -0.00522363
     atom   30 type  1   force =    -0.00007328    0.00584977    0.00332496
     atom   31 type  2   force =    -0.00004697   -0.00202961    0.00865043
     atom   32 type  2   force =    -0.01032502    0.00163495    0.00423897
     atom   33 type  1   force =    -0.00099956    0.00361543   -0.00173162
     atom   34 type  2   force =    -0.00364054   -0.03017708   -0.01540918
     atom   35 type  2   force =    -0.00591894    0.00786956    0.00495314
     atom   36 type  3   force =    -0.00458906    0.01437252    0.00567574
     The non-local contrib.  to forces
     atom    1 type  1   force =     0.00478917    0.03381868   -0.01013043
     atom    2 type  2   force =    -0.00717614   -0.00224432   -0.26907668
     atom    3 type  2   force =    -0.01201692   -0.00607177    0.26626102
     atom    4 type  1   force =     0.00030745    0.01053637    0.00404615
     atom    5 type  2   force =     0.00706108   -0.03603337   -0.25411666
     atom    6 type  2   force =    -0.00157148    0.00495999    0.26432497
     atom    7 type  1   force =    -0.02763474   -0.01154284   -0.01725869
     atom    8 type  2   force =     0.00666261   -0.00460462   -0.25828505
     atom    9 type  2   force =     0.00962425   -0.01044216    0.27629590
     atom   10 type  1   force =     0.00210578    0.00255501   -0.00547111
     atom   11 type  2   force =     0.00953022    0.00885746   -0.24308816
     atom   12 type  2   force =    -0.01543203   -0.00921836    0.25963379
     atom   13 type  1   force =     0.00037433    0.02842859   -0.00783971
     atom   14 type  2   force =     0.01014062   -0.01503735   -0.25747569
     atom   15 type  2   force =    -0.00989429   -0.00880608    0.26261485
     atom   16 type  1   force =    -0.00058741    0.03629831   -0.02502606
     atom   17 type  2   force =     0.00154975   -0.03002224   -0.24974221
     atom   18 type  2   force =    -0.00370554   -0.00524778    0.27221951
     atom   19 type  1   force =     0.02590660   -0.00879387   -0.00772126
     atom   20 type  2   force =    -0.00289678   -0.01619922    0.26259538
     atom   21 type  1   force =     0.00309684    0.02337021    0.00001140
     atom   22 type  2   force =     0.18369402   -0.07171410    0.12977285
     atom   23 type  2   force =     0.00779402   -0.01068786    0.27176938
     atom   24 type  1   force =     0.00156774    0.02233147   -0.00925795
     atom   25 type  2   force =     0.00237092    0.00605884   -0.25719547
     atom   26 type  2   force =    -0.00031983   -0.01564037    0.26543883
     atom   27 type  1   force =    -0.00101838    0.00988453    0.00679822
     atom   28 type  2   force =    -0.00278326   -0.02448584   -0.27151971
     atom   29 type  2   force =     0.00726397    0.00071906    0.26065492
     atom   30 type  1   force =    -0.00370996    0.00913223    0.01082749
     atom   31 type  2   force =    -0.00050839   -0.00027531   -0.25204000
     atom   32 type  2   force =    -0.00543689   -0.01540468    0.27348555
     atom   33 type  1   force =    -0.00635429    0.00384858   -0.01693487
     atom   34 type  2   force =    -0.00922250   -0.03098891   -0.26691930
     atom   35 type  2   force =     0.00061450   -0.00462965    0.26992991
     atom   36 type  3   force =    -0.02869545    0.01816480   -0.04526286
     The ionic contribution  to forces
     atom    1 type  1   force =     0.15371122    0.67338484    5.74682766
     atom    2 type  2   force =    -0.44426311    0.34404436   39.38230349
     atom    3 type  2   force =    -0.14440817    0.05233461  -36.22120624
     atom    4 type  1   force =    -0.03772028    0.62558848    0.73245975
     atom    5 type  2   force =    -0.94282050    1.46548114   38.64941917
     atom    6 type  2   force =     0.31670512   -0.53543155  -37.92550087
     atom    7 type  1   force =    -2.26131691   -3.00392718    2.17162152
     atom    8 type  2   force =    -0.94276076   -0.02342382   37.41459153
     atom    9 type  2   force =     0.32775861   -0.09545258  -37.94551243
     atom   10 type  1   force =    -0.81130441   -0.28899463    5.36603134
     atom   11 type  2   force =    -0.09284133   -1.54138584   38.92592347
     atom   12 type  2   force =     0.41856376    0.65948722  -37.92056648
     atom   13 type  1   force =     0.41622303    1.03590666    2.71295865
     atom   14 type  2   force =    -0.00520481    0.21238017   38.53956532
     atom   15 type  2   force =     0.17194160    0.01048740  -36.88780007
     atom   16 type  1   force =     0.03161438    3.71608343    0.49306546
     atom   17 type  2   force =     0.80468804    1.44069406   37.92394895
     atom   18 type  2   force =    -0.15012384   -0.59019591  -38.48041265
     atom   19 type  1   force =     2.29021765   -2.75100620   -0.16223711
     atom   20 type  2   force =     0.23255460   -0.28476162  -38.57186005
     atom   21 type  1   force =    -0.01382452    0.37664267    0.77594455
     atom   22 type  2   force =    -0.59892723   -1.13007801   37.12277537
     atom   23 type  2   force =    -0.09957959    0.68368530  -38.32111017
     atom   24 type  1   force =    -0.34186328    1.05619688    5.57465779
     atom   25 type  2   force =     0.51150771    0.28119263   39.22751528
     atom   26 type  2   force =    -0.23980819    0.14324385  -37.34888748
     atom   27 type  1   force =     0.08602806    0.49757919   -2.01906374
     atom   28 type  2   force =     0.04750115    0.93546303   38.23727474
     atom   29 type  2   force =    -0.24380669   -0.37039111  -37.32724964
     atom   30 type  1   force =    -0.33382181   -1.16789489   -0.12768906
     atom   31 type  2   force =     1.09790077   -0.16271443   37.24782930
     atom   32 type  2   force =    -0.46566846   -0.08744271  -38.57781625
     atom   33 type  1   force =     0.75219231   -0.67740953    1.84012016
     atom   34 type  2   force =     0.18791928   -1.22869237   39.24693779
     atom   35 type  2   force =    -0.29893775    0.45113180  -37.81842826
     atom   36 type  3   force =     0.62197437   -0.72180534    8.32356921
     The local contribution  to forces
     atom    1 type  1   force =    -0.15483911   -0.72102435   -5.73780646
     atom    2 type  2   force =     0.44256948   -0.32992709  -39.13460476
     atom    3 type  2   force =     0.14536570   -0.03926368   35.96686215
     atom    4 type  1   force =     0.04599272   -0.63751972   -0.73558583
     atom    5 type  2   force =     0.93696009   -1.43743649  -38.42255127
     atom    6 type  2   force =    -0.31380767    0.53834723   37.68527883
     atom    7 type  1   force =     2.28804327    3.01196310   -2.15775383
     atom    8 type  2   force =     0.93743634    0.02335982  -37.16678042
     atom    9 type  2   force =    -0.32468797    0.10864318   37.69645614
     atom   10 type  1   force =     0.80411551    0.29330904   -5.36892071
     atom   11 type  2   force =     0.08789467    1.53148515  -38.71083140
     atom   12 type  2   force =    -0.40781025   -0.65059298   37.68175452
     atom   13 type  1   force =    -0.41299350   -1.06487981   -2.70860487
     atom   14 type  2   force =     0.00243499   -0.19616497  -38.29365659
     atom   15 type  2   force =    -0.17058887    0.00038110   36.63767614
     atom   16 type  1   force =    -0.02971446   -3.75014591   -0.46746678
     atom   17 type  2   force =    -0.80149894   -1.41297626  -37.69265609
     atom   18 type  2   force =     0.14975396    0.59164008   38.24066464
     atom   19 type  1   force =    -2.30997924    2.75955542    0.16459465
     atom   20 type  2   force =    -0.22849631    0.29547900   38.32723752
     atom   21 type  1   force =     0.00985712   -0.39512148   -0.77343216
     atom   22 type  2   force =     0.44841712    1.17435236  -37.24668183
     atom   23 type  2   force =     0.09122074   -0.67136213   38.07422586
     atom   24 type  1   force =     0.33345094   -1.07733380   -5.57541041
     atom   25 type  2   force =    -0.50565252   -0.26901911  -38.98973862
     atom   26 type  2   force =     0.23155841   -0.13028777   37.09745817
     atom   27 type  1   force =    -0.08916574   -0.51237739    2.01893693
     atom   28 type  2   force =    -0.04486260   -0.91555070  -37.99161102
     atom   29 type  2   force =     0.23948043    0.37189657   37.08171884
     atom   30 type  1   force =     0.33742611    1.16475892    0.11911884
     atom   31 type  2   force =    -1.09754336    0.16090505  -37.00766372
     atom   32 type  2   force =     0.46069914    0.10370203   38.32922915
     atom   33 type  1   force =    -0.74716733    0.67723627   -1.82626636
     atom   34 type  2   force =    -0.18300561    1.22842450  -39.01658111
     atom   35 type  2   force =     0.29260619   -0.43921411   37.57438279
     atom   36 type  3   force =    -0.59788423    0.71801802   -8.27269938
     The core correction contribution to forces
     atom    1 type  1   force =     0.00000000    0.00000000    0.00000000
     atom    2 type  2   force =     0.00023864    0.00000948    0.02071575
     atom    3 type  2   force =     0.00053165    0.00023732   -0.02084352
     atom    4 type  1   force =     0.00000000    0.00000000    0.00000000
     atom    5 type  2   force =    -0.00067063    0.00200335    0.02029858
     atom    6 type  2   force =     0.00020966   -0.00079559   -0.02083241
     atom    7 type  1   force =     0.00000000    0.00000000    0.00000000
     atom    8 type  2   force =    -0.00025363    0.00049719    0.02043420
     atom    9 type  2   force =    -0.00027791    0.00055301   -0.02097398
     atom   10 type  1   force =     0.00000000    0.00000000    0.00000000
     atom   11 type  2   force =    -0.00001355   -0.00072130    0.01956784
     atom   12 type  2   force =     0.00121548    0.00095436   -0.02071078
     atom   13 type  1   force =     0.00000000    0.00000000    0.00000000
     atom   14 type  2   force =    -0.00052212    0.00043032    0.02029800
     atom   15 type  2   force =     0.00059456    0.00056749   -0.02066490
     atom   16 type  1   force =     0.00000000    0.00000000    0.00000000
     atom   17 type  2   force =     0.00005460    0.00158434    0.02016423
     atom   18 type  2   force =     0.00012836   -0.00025531   -0.02096852
     atom   19 type  1   force =     0.00000000    0.00000000    0.00000000
     atom   20 type  2   force =     0.00028507    0.00048620   -0.02109456
     atom   21 type  1   force =     0.00000000    0.00000000    0.00000000
     atom   22 type  2   force =    -0.01197251    0.00492636   -0.00338206
     atom   23 type  2   force =    -0.00056269    0.00100250   -0.02114738
     atom   24 type  1   force =     0.00000000    0.00000000    0.00000000
     atom   25 type  2   force =     0.00012119   -0.00032650    0.02036880
     atom   26 type  2   force =    -0.00021996    0.00095967   -0.02097685
     atom   27 type  1   force =     0.00000000    0.00000000    0.00000000
     atom   28 type  2   force =     0.00019675    0.00172877    0.02083288
     atom   29 type  2   force =    -0.00057789   -0.00042220   -0.02049867
     atom   30 type  1   force =     0.00000000    0.00000000    0.00000000
     atom   31 type  2   force =     0.00004383   -0.00000281    0.02017708
     atom   32 type  2   force =     0.00003818    0.00081320   -0.02098710
     atom   33 type  1   force =     0.00000000    0.00000000    0.00000000
     atom   34 type  2   force =     0.00062973    0.00094739    0.02075265
     atom   35 type  2   force =    -0.00025416    0.00062898   -0.02115036
     atom   36 type  3   force =     0.00000000    0.00000000    0.00000000
     The Hubbard contrib.    to forces
     atom    1 type  1   force =     0.00000000    0.00000000    0.00000000
     atom    2 type  2   force =     0.00000000    0.00000000    0.00000000
     atom    3 type  2   force =     0.00000000    0.00000000    0.00000000
     atom    4 type  1   force =     0.00000000    0.00000000    0.00000000
     atom    5 type  2   force =     0.00000000    0.00000000    0.00000000
     atom    6 type  2   force =     0.00000000    0.00000000    0.00000000
     atom    7 type  1   force =     0.00000000    0.00000000    0.00000000
     atom    8 type  2   force =     0.00000000    0.00000000    0.00000000
     atom    9 type  2   force =     0.00000000    0.00000000    0.00000000
     atom   10 type  1   force =     0.00000000    0.00000000    0.00000000
     atom   11 type  2   force =     0.00000000    0.00000000    0.00000000
     atom   12 type  2   force =     0.00000000    0.00000000    0.00000000
     atom   13 type  1   force =     0.00000000    0.00000000    0.00000000
     atom   14 type  2   force =     0.00000000    0.00000000    0.00000000
     atom   15 type  2   force =     0.00000000    0.00000000    0.00000000
     atom   16 type  1   force =     0.00000000    0.00000000    0.00000000
     atom   17 type  2   force =     0.00000000    0.00000000    0.00000000
     atom   18 type  2   force =     0.00000000    0.00000000    0.00000000
     atom   19 type  1   force =     0.00000000    0.00000000    0.00000000
     atom   20 type  2   force =     0.00000000    0.00000000    0.00000000
     atom   21 type  1   force =     0.00000000    0.00000000    0.00000000
     atom   22 type  2   force =     0.00000000    0.00000000    0.00000000
     atom   23 type  2   force =     0.00000000    0.00000000    0.00000000
     atom   24 type  1   force =     0.00000000    0.00000000    0.00000000
     atom   25 type  2   force =     0.00000000    0.00000000    0.00000000
     atom   26 type  2   force =     0.00000000    0.00000000    0.00000000
     atom   27 type  1   force =     0.00000000    0.00000000    0.00000000
     atom   28 type  2   force =     0.00000000    0.00000000    0.00000000
     atom   29 type  2   force =     0.00000000    0.00000000    0.00000000
     atom   30 type  1   force =     0.00000000    0.00000000    0.00000000
     atom   31 type  2   force =     0.00000000    0.00000000    0.00000000
     atom   32 type  2   force =     0.00000000    0.00000000    0.00000000
     atom   33 type  1   force =     0.00000000    0.00000000    0.00000000
     atom   34 type  2   force =     0.00000000    0.00000000    0.00000000
     atom   35 type  2   force =     0.00000000    0.00000000    0.00000000
     atom   36 type  3   force =     0.00000000    0.00000000    0.00000000
     The SCF correction term to forces
     atom    1 type  1   force =    -0.00028588    0.00015732    0.00087928
     atom    2 type  2   force =     0.00011352   -0.00012085    0.00051192
     atom    3 type  2   force =    -0.00000226    0.00001090    0.00009185
     atom    4 type  1   force =    -0.00013745    0.00030845    0.00097740
     atom    5 type  2   force =    -0.00002330    0.00005847    0.00031789
     atom    6 type  2   force =    -0.00002008   -0.00000297    0.00025618
     atom    7 type  1   force =     0.00006410   -0.00006382    0.00113393
     atom    8 type  2   force =    -0.00009949    0.00006075    0.00032314
     atom    9 type  2   force =    -0.00008628   -0.00001647    0.00031989
     atom   10 type  1   force =    -0.00010106   -0.00018144    0.00120934
     atom   11 type  2   force =    -0.00000472   -0.00012507    0.00033427
     atom   12 type  2   force =    -0.00009562   -0.00010450    0.00027089
     atom   13 type  1   force =     0.00017923   -0.00020414    0.00097762
     atom   14 type  2   force =    -0.00011856   -0.00002667    0.00039778
     atom   15 type  2   force =    -0.00001711    0.00000278    0.00023225
     atom   16 type  1   force =     0.00011326    0.00008910    0.00099145
     atom   17 type  2   force =     0.00003487    0.00003251    0.00039968
     atom   18 type  2   force =     0.00001289    0.00004637    0.00017811
     atom   19 type  1   force =    -0.00005927    0.00009534    0.00107691
     atom   20 type  2   force =     0.00003768    0.00002242    0.00025024
     atom   21 type  1   force =    -0.00030607   -0.00020446    0.00105051
     atom   22 type  2   force =    -0.00011497    0.00006506    0.00004482
     atom   23 type  2   force =     0.00003335    0.00001393    0.00033149
     atom   24 type  1   force =     0.00011614   -0.00011249    0.00101319
     atom   25 type  2   force =    -0.00001195   -0.00015905    0.00030852
     atom   26 type  2   force =     0.00009820   -0.00000367    0.00024888
     atom   27 type  1   force =     0.00005634    0.00029296    0.00100701
     atom   28 type  2   force =     0.00000147    0.00003835    0.00043111
     atom   29 type  2   force =     0.00001563    0.00007379    0.00013259
     atom   30 type  1   force =     0.00003247   -0.00015063    0.00104935
     atom   31 type  2   force =     0.00006027    0.00005376    0.00032942
     atom   32 type  2   force =     0.00004310   -0.00003702    0.00030928
     atom   33 type  1   force =     0.00032984   -0.00006402    0.00133110
     atom   34 type  2   force =     0.00003864    0.00012818    0.00038245
     atom   35 type  2   force =     0.00005237   -0.00005159    0.00020071
     atom   36 type  3   force =     0.00001634   -0.00000909    0.00005043

     Total force =     0.075195     Total SCF correction =     0.004090
     Energy error            =      1.1E-02 Ry
     Gradient error          =      3.0E-02 Ry/Bohr

     number of scf cycles    =   2
     number of bfgs steps    =   1

     energy             old  =   -2205.5501834885 Ry
     energy             new  =   -2205.5616345545 Ry

     CASE: energy            _new < energy            _old

     new trust radius        =       0.0678246863 bohr
     new conv_thr            =       0.0000000302 Ry


ATOMIC_POSITIONS (angstrom)
Mo            6.5865279350        1.7576681626        2.8271292983
S             8.1600132530        0.8321553945        4.4353097853
S             8.1762022488        0.8237210341        1.2676483395
Mo            8.1102102888        4.4916649602        2.7200163443
S             6.4994005373        3.7138243017        4.3361349821
S             6.5553243931        3.5256569348        1.1254256187
Mo            6.4874090796        7.2133207816        2.6641352960
S             8.0834563678        6.3365630825        4.2630384824
S             8.1012753835        6.3101346329        1.0955855515
Mo            8.1490573738        9.9137398345        2.8232397538
S             6.5008694060        8.9392925514        4.3714780190
S             6.6136209290        9.0494878293        1.1434677922
Mo            3.4287291113        1.7469682526        2.7691670554
S             4.9872240916        0.8201905926        4.3672033357
S             5.0428863038        0.8516392912        1.2130722706
Mo            4.9819283384        4.5174084758        2.6354932140
S             3.4355437616        3.6708989012        4.2831282078
S             3.4313791559        3.5408115153        1.0783595581
Mo            3.4656388369        7.2178535772        2.6179186577
S             4.9853416418        6.3192254063        1.0355275269
Mo            5.0102576903        9.9089859789        2.7478015915
S             3.5183066412        8.8999876459        4.3448968373
S             3.4067479394        9.0684509475        1.1046800716
Mo            0.2824556867        1.7494598067        2.8287836709
S             1.8665428846        0.8240802431        4.4051654876
S             1.8458160939        0.8500855657        1.2004242381
Mo            1.8532901991        4.4865872416        2.6728438060
S             0.2727258088        3.6510725456        4.3295209952
S             0.2352334590        3.5297897058        1.1651040155
Mo            0.2710473379        7.2320028381        2.7010145664
S             1.9016294566        6.3082481573        4.2411942650
S             1.8447024291        6.3137326479        1.0515486654
Mo            1.8377871029        9.9487008440        2.7578864258
S             0.2906821766        9.0355213685        4.3921496102
S             0.2678767044        9.0548644772        1.1636229254
H             4.1882114090        8.5274064402        5.4756452758



     Writing config-only to output data dir ./MoS2-V-O.save/
     NEW-OLD atomic charge density approx. for the potential

     negative rho (up, down):  1.484E-04 0.000E+00

     total cpu time spent up to now is      178.2 secs

     Self-consistent Calculation

     iteration #  1     ecut=    80.00 Ry     beta= 0.70
     Davidson diagonalization with overlap
     ethr =  1.00E-06,  avg # of iterations =  8.0

     negative rho (up, down):  1.080E-04 0.000E+00

     total cpu time spent up to now is      190.6 secs

     total energy              =   -2205.56980627 Ry
     estimated scf accuracy    <       0.00119794 Ry

     iteration #  2     ecut=    80.00 Ry     beta= 0.70
     Davidson diagonalization with overlap
     ethr =  3.90E-07,  avg # of iterations =  2.0

     negative rho (up, down):  1.000E-04 0.000E+00

     total cpu time spent up to now is      202.0 secs

     total energy              =   -2205.56986958 Ry
     estimated scf accuracy    <       0.00032593 Ry

     iteration #  3     ecut=    80.00 Ry     beta= 0.70
     Davidson diagonalization with overlap
     ethr =  1.06E-07,  avg # of iterations =  5.0

     negative rho (up, down):  8.601E-05 0.000E+00

     total cpu time spent up to now is      219.1 secs

     total energy              =   -2205.56989192 Ry
     estimated scf accuracy    <       0.00008537 Ry

     iteration #  4     ecut=    80.00 Ry     beta= 0.70
     Davidson diagonalization with overlap
     ethr =  2.78E-08,  avg # of iterations =  4.0

     negative rho (up, down):  8.308E-05 0.000E+00

     total cpu time spent up to now is      231.2 secs

     total energy              =   -2205.56990669 Ry
     estimated scf accuracy    <       0.00000446 Ry

     iteration #  5     ecut=    80.00 Ry     beta= 0.70
     Davidson diagonalization with overlap
     ethr =  1.45E-09,  avg # of iterations =  7.0

     negative rho (up, down):  8.473E-05 0.000E+00

     total cpu time spent up to now is      250.6 secs

     total energy              =   -2205.56990960 Ry
     estimated scf accuracy    <       0.00000249 Ry

     iteration #  6     ecut=    80.00 Ry     beta= 0.70
     Davidson diagonalization with overlap
     ethr =  8.12E-10,  avg # of iterations =  2.0

     negative rho (up, down):  8.925E-05 0.000E+00

     total cpu time spent up to now is      265.0 secs

     total energy              =   -2205.56990970 Ry
     estimated scf accuracy    <       0.00000048 Ry

     iteration #  7     ecut=    80.00 Ry     beta= 0.70
     Davidson diagonalization with overlap
     ethr =  1.57E-10,  avg # of iterations =  5.0

     negative rho (up, down):  9.350E-05 0.000E+00

     total cpu time spent up to now is      279.6 secs

     total energy              =   -2205.56990974 Ry
     estimated scf accuracy    <       0.00000011 Ry

     iteration #  8     ecut=    80.00 Ry     beta= 0.70
     Davidson diagonalization with overlap
     ethr =  3.43E-11,  avg # of iterations =  5.0

     negative rho (up, down):  1.046E-04 0.000E+00

     total cpu time spent up to now is      292.3 secs

     total energy              =   -2205.56990966 Ry
     estimated scf accuracy    <       0.00000005 Ry

     iteration #  9     ecut=    80.00 Ry     beta= 0.70
     Davidson diagonalization with overlap
     ethr =  1.54E-11,  avg # of iterations =  3.0

     negative rho (up, down):  1.371E-04 0.000E+00

     total cpu time spent up to now is      294.3 secs

     End of self-consistent calculation

          k = 0.0000 0.0000 0.0000 (105382 PWs)   bands (ev):

   -62.8717 -62.8459 -62.8124 -62.7856 -62.7701 -62.7638 -62.7606 -62.7454
   -62.7356 -62.6468 -62.6013 -62.5154 -37.1632 -37.1291 -37.1071 -37.1048
   -37.0745 -37.0623 -37.0385 -37.0328 -37.0064 -37.0019 -36.9985 -36.9781
   -36.9596 -36.9539 -36.9494 -36.9467 -36.9437 -36.9328 -36.9306 -36.9206
   -36.8966 -36.8795 -36.8634 -36.8526 -36.8452 -36.8280 -36.8200 -36.8060
   -36.7805 -36.7756 -36.7584 -36.7545 -36.6981 -36.6575 -36.5748 -36.5513
   -16.2713 -15.6981 -15.0509 -15.0394 -14.8636 -14.7887 -14.6458 -14.4167
   -14.3701 -14.3529 -14.3329 -14.2991 -14.2727 -14.2290 -14.1113 -14.0746
   -14.0461 -14.0261 -13.9593 -13.8287 -13.7654 -13.7551 -13.7365  -9.0098
    -7.6078  -7.3773  -7.2568  -7.2218  -7.1968  -7.1501  -7.1124  -7.0513
    -6.7642  -6.6974  -6.6766  -6.6629  -6.5287  -6.4583  -6.4281  -6.3889
    -6.2993  -6.1989  -6.1623  -5.9118  -5.9004  -5.8308  -5.7636  -5.7463
    -5.7034  -5.6466  -5.6067  -5.5837  -5.5579  -5.4936  -5.4617  -5.4051
    -5.3649  -5.2699  -5.1586  -5.0909  -4.9662  -4.9648  -4.9082  -4.8938
    -4.8439  -4.7827  -4.7339  -4.5142  -4.4455  -4.2741  -4.2439  -4.1844
    -4.1386  -4.0299  -3.9742  -3.8127  -3.7716  -3.7261  -3.6580  -3.6232
    -3.5936  -3.5141  -3.4921  -3.4265  -3.4143  -3.3850  -3.3686  -3.3239
    -3.2907  -3.1703  -3.0698  -2.9014  -2.8307  -2.7866  -2.7027  -2.6858
    -2.6376  -2.6095  -2.5894  -2.5446  -2.4892  -2.1840  -1.9426  -1.9324
    -1.8968  -0.8021  -0.6235  -0.5514  -0.0988  -0.0786  -0.0122   0.0210
     0.1094   0.1731   0.2120   0.2969   0.3045   0.3714   0.4914   0.5006
     0.5395   0.5868   0.6331   0.6521   0.7221   0.7246   0.7697   0.8080
     0.8195   0.8809   0.9237   0.9324   1.0400   1.0596   1.0728   1.2577
     1.4585

     the Fermi energy is    -0.8094 ev

!    total energy              =   -2205.56990955 Ry
     estimated scf accuracy    <          8.8E-09 Ry
     smearing contrib. (-TS)   =      -0.00665319 Ry
     internal energy E=F+TS    =   -2205.56325636 Ry

     The total energy is F=E-TS. E is the sum of the following terms:
     one-electron contribution =  -18044.24245555 Ry
     hartree contribution      =    9009.53588554 Ry
     xc contribution           =    -385.35406952 Ry
     ewald contribution        =    7214.49738317 Ry

     convergence has been achieved in   9 iterations

     negative rho (up, down):  1.371E-04 0.000E+00

     Forces acting on atoms (cartesian axes, Ry/au):

     atom    1 type  1   force =    -0.00613968    0.00079462   -0.00598435
     atom    2 type  2   force =    -0.00244532    0.00451400   -0.00064006
     atom    3 type  2   force =    -0.00767678    0.00417451   -0.01091419
     atom    4 type  1   force =     0.00419742    0.00080777    0.00123923
     atom    5 type  2   force =     0.00250106   -0.00593793   -0.00466619
     atom    6 type  2   force =     0.00194683    0.00270807    0.00433679
     atom    7 type  1   force =     0.00094774   -0.00409800    0.00137061
     atom    8 type  2   force =     0.00020422   -0.00296896    0.00441966
     atom    9 type  2   force =     0.00870537    0.00253141    0.00445310
     atom   10 type  1   force =    -0.00047512    0.00465202    0.00126605
     atom   11 type  2   force =     0.00531362   -0.00059754   -0.00646961
     atom   12 type  2   force =    -0.00467212    0.00039261   -0.00170952
     atom   13 type  1   force =     0.00110257   -0.00189553    0.00090914
     atom   14 type  2   force =     0.00324492    0.00020915    0.00505383
     atom   15 type  2   force =    -0.00402130   -0.00004902   -0.00490516
     atom   16 type  1   force =     0.00156162    0.00116629    0.00080902
     atom   17 type  2   force =     0.00413005   -0.00099947    0.00235892
     atom   18 type  2   force =    -0.00285082   -0.00151120    0.00782905
     atom   19 type  1   force =     0.00262120   -0.00281011    0.00067493
     atom   20 type  2   force =     0.00152573   -0.00400017   -0.00501462
     atom   21 type  1   force =    -0.00048995    0.00365066    0.00151328
     atom   22 type  2   force =     0.00152570   -0.00879632   -0.01610976
     atom   23 type  2   force =    -0.00092043    0.00284334    0.00203369
     atom   24 type  1   force =    -0.00264980    0.00078915   -0.00210450
     atom   25 type  2   force =     0.00256033    0.00998578   -0.00384452
     atom   26 type  2   force =    -0.00456584    0.00002978   -0.00511448
     atom   27 type  1   force =    -0.00159856   -0.00151819    0.00437834
     atom   28 type  2   force =    -0.00061482   -0.00407313   -0.00103908
     atom   29 type  2   force =     0.00187250    0.00227087   -0.00527181
     atom   30 type  1   force =    -0.00061897   -0.00338146    0.00553131
     atom   31 type  2   force =     0.00103639   -0.00078827    0.00219342
     atom   32 type  2   force =    -0.00638848    0.00016147    0.00453312
     atom   33 type  1   force =     0.00390272    0.00000620    0.01040698
     atom   34 type  2   force =    -0.00362517   -0.01377893   -0.01219063
     atom   35 type  2   force =    -0.00435223    0.00710501   -0.00021379
     atom   36 type  3   force =     0.00520543    0.00841155    0.02088181
     The non-local contrib.  to forces
     atom    1 type  1   force =     0.00644659    0.02996479   -0.00965670
     atom    2 type  2   force =    -0.00290283   -0.00783715   -0.26735136
     atom    3 type  2   force =    -0.00810610   -0.00924874    0.26275187
     atom    4 type  1   force =     0.00209037    0.01120173    0.00378210
     atom    5 type  2   force =     0.00863254   -0.03658562   -0.25426223
     atom    6 type  2   force =    -0.00093116    0.00041124    0.26607843
     atom    7 type  1   force =    -0.02812367   -0.01273963   -0.01887746
     atom    8 type  2   force =     0.00685957   -0.00392389   -0.26250073
     atom    9 type  2   force =     0.00575798   -0.01098215    0.27548244
     atom   10 type  1   force =     0.00109084    0.00283652   -0.00468818
     atom   11 type  2   force =     0.00874847    0.00976152   -0.24487559
     atom   12 type  2   force =    -0.01608457   -0.00872876    0.25951213
     atom   13 type  1   force =     0.00153125    0.02932861   -0.00766197
     atom   14 type  2   force =     0.00717297   -0.01607811   -0.25849393
     atom   15 type  2   force =    -0.00675577   -0.01076453    0.26278879
     atom   16 type  1   force =    -0.00193349    0.03819479   -0.02607221
     atom   17 type  2   force =     0.00056222   -0.02971666   -0.25018352
     atom   18 type  2   force =    -0.00258358   -0.00393587    0.27031774
     atom   19 type  1   force =     0.02755886   -0.00854223   -0.00859052
     atom   20 type  2   force =    -0.00306472   -0.01413802    0.26144773
     atom   21 type  1   force =     0.00324196    0.02209985   -0.00178292
     atom   22 type  2   force =     0.17204986   -0.05508881    0.12630197
     atom   23 type  2   force =     0.00715250   -0.01053149    0.27152503
     atom   24 type  1   force =    -0.00062916    0.02357017   -0.00776035
     atom   25 type  2   force =    -0.00199562   -0.00035319   -0.26001891
     atom   26 type  2   force =     0.00257844   -0.01363144    0.26657091
     atom   27 type  1   force =    -0.00220506    0.00841539    0.00547840
     atom   28 type  2   force =    -0.00265914   -0.02404588   -0.26929821
     atom   29 type  2   force =     0.00645084   -0.00132321    0.26090322
     atom   30 type  1   force =    -0.00386185    0.01047768    0.01061536
     atom   31 type  2   force =     0.00088801   -0.00063557   -0.25688142
     atom   32 type  2   force =    -0.00130721   -0.01614820    0.27418780
     atom   33 type  1   force =    -0.00918726    0.00312038   -0.01836199
     atom   34 type  2   force =    -0.00933158   -0.01752184   -0.26634817
     atom   35 type  2   force =     0.00159253   -0.00482327    0.26715065
     atom   36 type  3   force =    -0.03032425    0.01807818   -0.05005063
     The ionic contribution  to forces
     atom    1 type  1   force =    -0.12161072    1.02736542    5.67091338
     atom    2 type  2   force =    -0.23304105    0.21386779   39.49244040
     atom    3 type  2   force =    -0.10146953    0.04175160  -36.42435317
     atom    4 type  1   force =    -0.25525619    0.73011587    0.81405193
     atom    5 type  2   force =    -0.94838985    1.46926716   38.51953105
     atom    6 type  2   force =     0.27877807   -0.54137729  -37.81133332
[...]
     atom   27 type  1   force =    -0.00336570    0.00510018   -0.00017719
     atom   28 type  2   force =     0.00377711   -0.01530303   -0.26995949
     atom   29 type  2   force =    -0.00137431   -0.01089525    0.26388157
     atom   30 type  1   force =    -0.00571839    0.01313244    0.00789956
     atom   31 type  2   force =    -0.00207362   -0.00184330   -0.25896857
     atom   32 type  2   force =     0.00874123   -0.01333503    0.27412094
     atom   33 type  1   force =    -0.01195639    0.00652739   -0.00657951
     atom   34 type  2   force =     0.00926323   -0.00467511   -0.26608824
     atom   35 type  2   force =    -0.00069899   -0.00977247    0.26691209
     atom   36 type  3   force =    -0.00761234   -0.01664311   -0.05720031
     The ionic contribution  to forces
     atom    1 type  1   force =     0.01428725    0.55308169    1.48075707
     atom    2 type  2   force =    -0.21940325    0.04763680   38.87349842
     atom    3 type  2   force =     0.16386066   -0.25357618  -37.56979769
     atom    4 type  1   force =     0.00374776    0.95567112    0.06871584
     atom    5 type  2   force =    -0.90316419    1.30279635   38.37539197
     atom    6 type  2   force =     0.26705880   -0.19916217  -38.52887848
     atom    7 type  1   force =    -2.33258841   -1.69609751    2.64033394
     atom    8 type  2   force =    -1.15875883    0.17701959   38.07173556
     atom    9 type  2   force =     0.39083536    0.23727082  -37.75159625
     atom   10 type  1   force =    -0.56152960   -0.80832078    3.17570596
     atom   11 type  2   force =    -0.29066362   -1.60176156   38.28994678
     atom   12 type  2   force =     0.28359473    0.08416580  -37.75034256
     atom   13 type  1   force =    -0.00471431    0.90633181    1.97155011
     atom   14 type  2   force =     0.13831199    0.22140443   38.54346871
     atom   15 type  2   force =    -0.03884552   -0.14869476  -37.97717235
     atom   16 type  1   force =    -0.76407178    3.99112904    0.36358002
     atom   17 type  2   force =     0.88515520    1.52250791   38.15234786
     atom   18 type  2   force =    -0.30124132   -0.06261214  -37.99383041
     atom   19 type  1   force =     2.15317024   -2.83237975    3.03143155
     atom   20 type  2   force =    -0.18065951    0.05452648  -38.56796807
     atom   21 type  1   force =     0.46211907   -0.75556987    0.15314023
     atom   22 type  2   force =     0.19305252   -2.10021160   36.70492356
     atom   23 type  2   force =    -0.36215260    0.13561592  -37.67126975
     atom   24 type  1   force =    -0.04137287    0.33885217    2.62266441
     atom   25 type  2   force =     0.12862360    0.33117649   39.04408004
     atom   26 type  2   force =    -0.10814722   -0.17633543  -37.51701068
     atom   27 type  1   force =     0.65148259    1.17988757    1.58773620
     atom   28 type  2   force =     0.01391575    0.67836681   38.45568900
     atom   29 type  2   force =     0.10387073    0.02434640  -37.76175124
     atom   30 type  1   force =     0.09305692   -0.79537167    2.32328081
     atom   31 type  2   force =     1.30046321    0.04793646   37.95881481
     atom   32 type  2   force =    -0.23564632    0.09663053  -37.33842799
     atom   33 type  1   force =     0.05538361   -0.93882288    4.17078711
     atom   34 type  2   force =    -0.08918251   -0.68243691   39.00692831
     atom   35 type  2   force =     0.09477516    0.00545195  -37.26006453
     atom   36 type  3   force =     0.19537673    0.15954709    8.62160173
     The local contribution  to forces
     atom    1 type  1   force =    -0.01445610   -0.58336977   -1.47838726
     atom    2 type  2   force =     0.21798306   -0.03495219  -38.63024750
     atom    3 type  2   force =    -0.16109437    0.26400876   37.32292811
     atom    4 type  1   force =    -0.00341383   -0.96645852   -0.07250279
     atom    5 type  2   force =     0.89953166   -1.27635364  -38.14034986
     atom    6 type  2   force =    -0.26814379    0.20530430   38.28873387
     atom    7 type  1   force =     2.36818063    1.70663031   -2.61405257
     atom    8 type  2   force =     1.14784719   -0.17925205  -37.82657370
     atom    9 type  2   force =    -0.38702854   -0.22218546   37.50428379
     atom   10 type  1   force =     0.56213454    0.80389826   -3.17800650
     atom   11 type  2   force =     0.29047346    1.60131048  -38.05419900
     atom   12 type  2   force =    -0.27181569   -0.07598192   37.50358845
     atom   13 type  1   force =     0.00277643   -0.93405449   -1.96361565
     atom   14 type  2   force =    -0.13533884   -0.20790012  -38.30985316
     atom   15 type  2   force =     0.03795576    0.15686962   37.73608928
     atom   16 type  1   force =     0.77356253   -4.03459134   -0.34631240
     atom   17 type  2   force =    -0.87658235   -1.50040028  -37.92073791
     atom   18 type  2   force =     0.29684834    0.07006695   37.74897935
     atom   19 type  1   force =    -2.18673532    2.83675879   -3.01625374
     atom   20 type  2   force =     0.18161447   -0.04232225   38.32630492
     atom   21 type  1   force =    -0.46754897    0.73784391   -0.14992445
     atom   22 type  2   force =    -0.23118304    1.98906175  -36.92532499
     atom   23 type  2   force =     0.35431389   -0.12617824   37.41960592
     atom   24 type  1   force =     0.04312245   -0.36412323   -2.62185492
     atom   25 type  2   force =    -0.13053130   -0.31285904  -38.80671454
     atom   26 type  2   force =     0.10554142    0.18746722   37.27004207
     atom   27 type  1   force =    -0.64812047   -1.18470699   -1.58855153
     atom   28 type  2   force =    -0.01643358   -0.66356938  -38.20760918
     atom   29 type  2   force =    -0.10291683   -0.01422896   37.51866784
     atom   30 type  1   force =    -0.08713459    0.78287306   -2.33101480
     atom   31 type  2   force =    -1.29849126   -0.04728337  -37.71977909
     atom   32 type  2   force =     0.22746719   -0.08317638   37.08389669
     atom   33 type  1   force =    -0.04350979    0.93218546   -4.16501502
     atom   34 type  2   force =     0.08103507    0.68717487  -38.76286802
     atom   35 type  2   force =    -0.09424939    0.00435332   37.01446340
     atom   36 type  3   force =    -0.18862377   -0.14299007   -8.56334274
     The core correction contribution to forces
     atom    1 type  1   force =     0.00000000    0.00000000    0.00000000
     atom    2 type  2   force =    -0.00019687    0.00062639    0.02065633
     atom    3 type  2   force =     0.00033076    0.00040472   -0.02096200
     atom    4 type  1   force =     0.00000000    0.00000000    0.00000000
     atom    5 type  2   force =    -0.00048438    0.00135716    0.02036431
     atom    6 type  2   force =     0.00020309   -0.00010628   -0.02071575
     atom    7 type  1   force =     0.00000000    0.00000000    0.00000000
     atom    8 type  2   force =    -0.00063367    0.00008944    0.02067400
     atom    9 type  2   force =     0.00048908    0.00090600   -0.02080947
     atom   10 type  1   force =     0.00000000    0.00000000    0.00000000
     atom   11 type  2   force =     0.00030715   -0.00051077    0.02004339
     atom   12 type  2   force =     0.00086711    0.00045612   -0.02085990
     atom   13 type  1   force =     0.00000000    0.00000000    0.00000000
     atom   14 type  2   force =     0.00037325    0.00076738    0.02014624
     atom   15 type  2   force =    -0.00002985    0.00048885   -0.02069023
     atom   16 type  1   force =     0.00000000    0.00000000    0.00000000
     atom   17 type  2   force =     0.00084523    0.00120526    0.02015133
     atom   18 type  2   force =    -0.00037697    0.00022596   -0.02078471
     atom   19 type  1   force =     0.00000000    0.00000000    0.00000000
     atom   20 type  2   force =    -0.00016777    0.00052247   -0.02116626
     atom   21 type  1   force =     0.00000000    0.00000000    0.00000000
     atom   22 type  2   force =    -0.00269167   -0.00743984   -0.00847858
     atom   23 type  2   force =    -0.00083679    0.00080666   -0.02120815
     atom   24 type  1   force =     0.00000000    0.00000000    0.00000000
     atom   25 type  2   force =    -0.00003901    0.00140811    0.02029288
     atom   26 type  2   force =    -0.00014008    0.00053268   -0.02105708
     atom   27 type  1   force =     0.00000000    0.00000000    0.00000000
     atom   28 type  2   force =    -0.00029863    0.00096811    0.02097254
     atom   29 type  2   force =     0.00014675    0.00042019   -0.02069984
     atom   30 type  1   force =     0.00000000    0.00000000    0.00000000
     atom   31 type  2   force =     0.00014426    0.00014179    0.02029444
     atom   32 type  2   force =    -0.00052643    0.00074943   -0.02097177
     atom   33 type  1   force =     0.00000000    0.00000000    0.00000000
     atom   34 type  2   force =    -0.00062989   -0.00002592    0.02075050
     atom   35 type  2   force =     0.00014533    0.00059118   -0.02100654
     atom   36 type  3   force =     0.00000000    0.00000000    0.00000000
     The Hubbard contrib.    to forces
     atom    1 type  1   force =     0.00000000    0.00000000    0.00000000
     atom    2 type  2   force =     0.00000000    0.00000000    0.00000000
     atom    3 type  2   force =     0.00000000    0.00000000    0.00000000
     atom    4 type  1   force =     0.00000000    0.00000000    0.00000000
     atom    5 type  2   force =     0.00000000    0.00000000    0.00000000
     atom    6 type  2   force =     0.00000000    0.00000000    0.00000000
     atom    7 type  1   force =     0.00000000    0.00000000    0.00000000
     atom    8 type  2   force =     0.00000000    0.00000000    0.00000000
     atom    9 type  2   force =     0.00000000    0.00000000    0.00000000
     atom   10 type  1   force =     0.00000000    0.00000000    0.00000000
     atom   11 type  2   force =     0.00000000    0.00000000    0.00000000
     atom   12 type  2   force =     0.00000000    0.00000000    0.00000000
     atom   13 type  1   force =     0.00000000    0.00000000    0.00000000
     atom   14 type  2   force =     0.00000000    0.00000000    0.00000000
     atom   15 type  2   force =     0.00000000    0.00000000    0.00000000
     atom   16 type  1   force =     0.00000000    0.00000000    0.00000000
     atom   17 type  2   force =     0.00000000    0.00000000    0.00000000
     atom   18 type  2   force =     0.00000000    0.00000000    0.00000000
     atom   19 type  1   force =     0.00000000    0.00000000    0.00000000
     atom   20 type  2   force =     0.00000000    0.00000000    0.00000000
     atom   21 type  1   force =     0.00000000    0.00000000    0.00000000
     atom   22 type  2   force =     0.00000000    0.00000000    0.00000000
     atom   23 type  2   force =     0.00000000    0.00000000    0.00000000
     atom   24 type  1   force =     0.00000000    0.00000000    0.00000000
     atom   25 type  2   force =     0.00000000    0.00000000    0.00000000
     atom   26 type  2   force =     0.00000000    0.00000000    0.00000000
     atom   27 type  1   force =     0.00000000    0.00000000    0.00000000
     atom   28 type  2   force =     0.00000000    0.00000000    0.00000000
     atom   29 type  2   force =     0.00000000    0.00000000    0.00000000
     atom   30 type  1   force =     0.00000000    0.00000000    0.00000000
     atom   31 type  2   force =     0.00000000    0.00000000    0.00000000
     atom   32 type  2   force =     0.00000000    0.00000000    0.00000000
     atom   33 type  1   force =     0.00000000    0.00000000    0.00000000
     atom   34 type  2   force =     0.00000000    0.00000000    0.00000000
     atom   35 type  2   force =     0.00000000    0.00000000    0.00000000
     atom   36 type  3   force =     0.00000000    0.00000000    0.00000000
     The SCF correction term to forces
     atom    1 type  1   force =     0.00003085   -0.00000149   -0.00003845
     atom    2 type  2   force =     0.00001311    0.00000453   -0.00002980
     atom    3 type  2   force =    -0.00000744    0.00000631    0.00000341
     atom    4 type  1   force =     0.00002462   -0.00002038   -0.00002779
     atom    5 type  2   force =     0.00000169   -0.00000839   -0.00001713
     atom    6 type  2   force =     0.00000466   -0.00000747   -0.00001490
     atom    7 type  1   force =     0.00000291    0.00000811   -0.00004556
     atom    8 type  2   force =     0.00001888    0.00000273   -0.00001160
     atom    9 type  2   force =    -0.00000288   -0.00000180   -0.00001039
     atom   10 type  1   force =     0.00000794    0.00001576   -0.00002897
     atom   11 type  2   force =     0.00001833   -0.00000315   -0.00002846
     atom   12 type  2   force =     0.00001524   -0.00000118   -0.00000607
     atom   13 type  1   force =    -0.00000555    0.00001862   -0.00001909
     atom   14 type  2   force =    -0.00000332    0.00001572   -0.00002045
     atom   15 type  2   force =     0.00001512    0.00001297   -0.00000880
     atom   16 type  1   force =    -0.00002064   -0.00001373   -0.00002604
     atom   17 type  2   force =    -0.00001536   -0.00000106   -0.00001051
     atom   18 type  2   force =     0.00000237   -0.00000138    0.00000710
     atom   19 type  1   force =     0.00000691   -0.00001634   -0.00000602
     atom   20 type  2   force =     0.00000591    0.00000089    0.00000290
     atom   21 type  1   force =     0.00001661    0.00000317   -0.00003320
     atom   22 type  2   force =    -0.00000659   -0.00002118   -0.00000724
     atom   23 type  2   force =     0.00000537   -0.00000365   -0.00000489
     atom   24 type  1   force =     0.00000494    0.00001114   -0.00001608
     atom   25 type  2   force =    -0.00001670    0.00001314    0.00000133
     atom   26 type  2   force =    -0.00001134    0.00001697    0.00000463
     atom   27 type  1   force =     0.00000154   -0.00003095    0.00000015
     atom   28 type  2   force =     0.00001235   -0.00000837   -0.00001608
     atom   29 type  2   force =    -0.00001041   -0.00000576    0.00000686
     atom   30 type  1   force =     0.00000660   -0.00000040   -0.00000519
     atom   31 type  2   force =    -0.00000955    0.00000041   -0.00000271
     atom   32 type  2   force =    -0.00000723   -0.00000470    0.00000428
     atom   33 type  1   force =    -0.00003884   -0.00000397   -0.00000361
     atom   34 type  2   force =     0.00000169   -0.00000110   -0.00000810
     atom   35 type  2   force =    -0.00001841    0.00000129    0.00000431
     atom   36 type  3   force =    -0.00000285   -0.00000080   -0.00000084

     Total force =     0.006758     Total SCF correction =     0.000150
     Energy error            =      8.2E-05 Ry
     Gradient error          =      2.2E-03 Ry/Bohr

     bfgs converged in  25 scf cycles and  24 bfgs steps
     (criteria: energy <  1.0E-04 Ry, force <  1.0E-02 Ry/Bohr)

     End of BFGS Geometry Optimization

     Final energy             =   -2205.5970894230 Ry

     File ./MoS2-V-O.bfgs deleted, as requested
Begin final coordinates

ATOMIC_POSITIONS (angstrom)
Mo            6.5886285594        1.7326509471        2.7414173890
S             8.1434868195        0.8285087321        4.3706047619
S             8.1749967152        0.8058387322        1.1729361362
Mo            8.1481956358        4.4592337895        2.7056821138
S             6.5553149985        3.6296295944        4.3012966434
S             6.5926579205        3.5258418792        1.0843787585
Mo            6.5050318171        7.1356742020        2.6734323587
S             8.0828095213        6.2675259017        4.2998231600
S             8.1539097247        6.2999720752        1.1187406735
Mo            8.1500865810        9.9057055354        2.7809554622
S             6.5285556679        8.9142279862        4.3282649357
S             6.5993649387        9.0003987072        1.1328135302
Mo            3.4495739440        1.7300408664        2.7525938464
S             5.0294995505        0.8176146761        4.3403652139
S             5.0154131680        0.8243664142        1.1447930330
Mo            5.0416740567        4.4796101170        2.6304329529
S             3.5098749578        3.6351599341        4.2989439054
S             3.4315367528        3.5367885900        1.1110070298
Mo            3.5045396152        7.1915609522        2.6832501921
S             4.9803759574        6.2817341167        1.0479539329
Mo            5.0155814114        9.9184263688        2.7272018320
S             3.4968453528        8.9750923041        4.3050259446
S             3.3971290801        9.0332729490        1.1513527839
Mo            0.2811340269        1.7262956191        2.7762184803
S             1.8726871324        0.8594701168        4.3861288346
S             1.8590389620        0.8183163791        1.1826160185
Mo            1.8767780543        4.4512714214        2.7316200148
S             0.2705254573        3.5829775763        4.3308888739
S             0.2933566526        3.5350563699        1.1449280291
Mo            0.2790158918        7.1936615114        2.7510169015
S             1.9182761227        6.2772061799        4.3037937755
S             1.8706700450        6.2917669312        1.1412475408
Mo            1.8500428310        9.9383608227        2.8051531557
S             0.2577626581        8.9990444889        4.3833343942
S             0.2844329639        9.0241238082        1.1928616096
H             3.6665479121        9.3547753705        5.6216873186
End final coordinates



     Writing all to output data dir ./MoS2-V-O.save/
 
     init_run     :      3.14s CPU      3.30s WALL (       1 calls)
     electrons    :   2213.19s CPU   2427.50s WALL (      25 calls)
     update_pot   :     34.34s CPU     35.71s WALL (      24 calls)
     forces       :     33.91s CPU     36.70s WALL (      25 calls)

     Called by init_run:
     wfcinit      :      0.39s CPU      0.43s WALL (       1 calls)
     potinit      :      2.05s CPU      2.13s WALL (       1 calls)
     hinit0       :      0.17s CPU      0.18s WALL (       1 calls)

     Called by electrons:
     c_bands      :    257.44s CPU    260.16s WALL (     206 calls)
     sum_band     :     66.22s CPU     73.05s WALL (     206 calls)
     v_of_rho     :     93.62s CPU    106.74s WALL (     224 calls)
     newd         :     35.03s CPU     40.57s WALL (     224 calls)
     mix_rho      :   1773.23s CPU   1957.97s WALL (     206 calls)

     Called by c_bands:
     init_us_2    :      4.53s CPU      4.70s WALL (     413 calls)
     init_us_2:cp :      4.53s CPU      4.69s WALL (     413 calls)
     regterg      :    242.62s CPU    245.15s WALL (     206 calls)

     Called by *egterg:
     rdiaghg      :     20.35s CPU     20.51s WALL (    1149 calls)
     h_psi        :    139.13s CPU    140.29s WALL (    1181 calls)
     s_psi        :     17.59s CPU     17.65s WALL (    1181 calls)
     g_psi        :      0.95s CPU      0.96s WALL (     974 calls)

     Called by h_psi:
     h_psi:calbec :     19.24s CPU     19.31s WALL (    1181 calls)
     vloc_psi     :    100.44s CPU    101.42s WALL (    1181 calls)
     add_vuspsi   :     17.17s CPU     17.27s WALL (    1181 calls)

     General routines
     calbec       :     27.52s CPU     27.62s WALL (    1487 calls)
     fft          :     66.79s CPU     76.23s WALL (   15120 calls)
     ffts         :    784.71s CPU    963.18s WALL (  426704 calls)
     fftw         :     87.44s CPU     88.18s WALL (  128360 calls)
     interpolate  :      1.60s CPU      1.85s WALL (     224 calls)
 
     Parallel routines
 
     PWSCF        :  38m 9.71s CPU  41m50.15s WALL

 
   This run was terminated on:   8:30:41   4Nov2023            

=------------------------------------------------------------------------------=
   JOB DONE.
=------------------------------------------------------------------------------=
