
     Program PWSCF v.7.2 starts on  3Nov2023 at 22:59:17 

     This program is part of the open-source Quantum ESPRESSO suite
     for quantum simulation of materials; please cite
         "P. Giannozzi et al., J. Phys.:Condens. Matter 21 395502 (2009);
         "P. Giannozzi et al., J. Phys.:Condens. Matter 29 465901 (2017);
         "P. Giannozzi et al., J. Chem. Phys. 152 154105 (2020);
          URL http://www.quantum-espresso.org", 
     in publications or presentations arising from this work. More details at
     http://www.quantum-espresso.org/quote

     Parallel version (MPI & OpenMP), running on      48 processor cores
     Number of MPI processes:                48
     Threads/MPI process:                     1

     MPI processes distributed on     1 nodes
     110828 MiB available memory on the printing compute node when the environment starts
 
     Waiting for input...
     Reading input from standard input
Warning: card &CELL ignored
Warning: card CELL_DYNAMICS = 'BFGS', ignored
Warning: card CELL_DOFREE = '2DXY' ignored
Warning: card / ignored

     Current dimensions of program PWSCF are:
     Max number of different atomic species (ntypx) = 10
     Max number of k-points (npk) =  40000
     Max angular momentum in pseudopotentials (lmaxx) =  4

     IMPORTANT: XC functional enforced from input :
     Exchange-correlation= RVV10
                           (   1   4  13   4  26   0   0)
     Any further DFT definition will be discarded
     Please, verify this is what you really want


     gamma-point specific algorithms are used
     signal trapping enabled: kill the code with -SIGUSR1 to stop cleanly the simulation 
 
     R & G space division:  proc/nbgrp/npool/nimage =      48
     Subspace diagonalization in iterative solution of the eigenvalue problem:
     one sub-group per band group will be used
     scalapack distributed-memory algorithm (size of sub-group:  2*  2 procs)

 
     Parallelization info
     --------------------
     sticks:   dense  smooth     PW     G-vecs:    dense   smooth      PW
     Min         243     194     47                49060    35090    4376
     Max         246     196     50                49086    35128    4410
     Sum       11735    9389   2349              2355467  1685513  210763
 
     Using Slab Decomposition
 


     bravais-lattice index     =            0
     lattice parameter (alat)  =      17.8707  a.u.
     unit-cell volume          =   17436.2743 (a.u.)^3
     number of atoms/cell      =           36
     number of atomic types    =            3
     number of electrons       =       307.00
     number of Kohn-Sham states=          185
     kinetic-energy cutoff     =      80.0000  Ry
     charge density cutoff     =     400.0000  Ry
     scf convergence threshold =      1.0E-06
     mixing beta               =       0.7000
     number of iterations used =            8  local-TF  mixing
     energy convergence thresh.=      1.0E-04
     force convergence thresh. =      1.0E-02
     Exchange-correlation= RVV10
                           (   1   4  13   4  26   0   0)
     nstep                     =          200


     celldm(1)=  17.870686  celldm(2)=   0.000000  celldm(3)=   0.000000
     celldm(4)=   0.000000  celldm(5)=   0.000000  celldm(6)=   0.000000

     crystal axes: (cart. coord. in units of alat)
               a(1) = (   1.000000   0.000000   0.000000 )  
               a(2) = (   0.000000   1.155671   0.000000 )  
               a(3) = (   0.000000   0.000000   2.643601 )  

     reciprocal axes: (cart. coord. in units 2 pi/alat)
               b(1) = (  1.000000  0.000000  0.000000 )  
               b(2) = (  0.000000  0.865298  0.000000 )  
               b(3) = (  0.000000  0.000000  0.378272 )  


     PseudoPot. # 1 for Mo read from file:
     ../pseudo/Mo_ONCV_PBE-1.0.oncvpsp.upf
     MD5 check sum: 1b5d28e075c9ccadda658a603575cd1f
     Pseudo is Norm-conserving, Zval = 14.0
     Generated using ONCVPSP code by D. R. Hamann
     Using radial grid of 1526 points,  6 beta functions with: 
                l(1) =   0
                l(2) =   0
                l(3) =   1
                l(4) =   1
                l(5) =   2
                l(6) =   2

     PseudoPot. # 2 for S  read from file:
     ../pseudo/s_pbe_v1.4.uspp.F.UPF
     MD5 check sum: 88d86576ff6df21479756cfb9bdac1df
     Pseudo is Ultrasoft + core correction, Zval =  6.0
     Generated by new atomic code, or converted to UPF format
     Using radial grid of  907 points,  6 beta functions with: 
                l(1) =   0
                l(2) =   0
                l(3) =   1
                l(4) =   1
                l(5) =   2
                l(6) =   2
     Q(r) pseudized with  8 coefficients,  rinner =    1.300   1.300   1.300
                                                       1.300   1.300

     PseudoPot. # 3 for H  read from file:
     ../pseudo/H_ONCV_PBE-1.0.oncvpsp.upf
     MD5 check sum: 1790becc920ee074925cf490c71280fe
     Pseudo is Norm-conserving, Zval =  1.0
     Generated using ONCVPSP code by D. R. Hamann
     Using radial grid of 1166 points,  2 beta functions with: 
                l(1) =   0
                l(2) =   0

     atomic species   valence    mass     pseudopotential
        Mo            14.00    95.94000     Mo( 1.00)
        S              6.00    32.06500     S ( 1.00)
        H              1.00     1.00794     H ( 1.00)

     No symmetry found



   Cartesian axes

     site n.     atom                  positions (alat units)
         1           Mo  tau(   1) = (   0.6952221   0.1890506   0.2985846  )
         2           S   tau(   2) = (   0.8646417   0.0856217   0.4689279  )
         3           S   tau(   3) = (   0.8663890   0.0857843   0.1351291  )
         4           Mo  tau(   4) = (   0.8560186   0.4753274   0.2873942  )
         5           S   tau(   5) = (   0.6873294   0.3936244   0.4596353  )
         6           S   tau(   6) = (   0.6929804   0.3713468   0.1185692  )
         7           Mo  tau(   7) = (   0.6862796   0.7633098   0.2825370  )
         8           S   tau(   8) = (   0.8545980   0.6708292   0.4486168  )
         9           S   tau(   9) = (   0.8545123   0.6666874   0.1146125  )
        10           Mo  tau(  10) = (   0.8629403   1.0471007   0.3006803  )
        11           S   tau(  11) = (   0.6868280   0.9456650   0.4634891  )
        12           S   tau(  12) = (   0.6998113   0.9568511   0.1205389  )
        13           Mo  tau(  13) = (   0.3618216   0.1847309   0.2935964  )
        14           S   tau(  14) = (   0.5260962   0.0863870   0.4600448  )
        15           S   tau(  15) = (   0.5348379   0.0894875   0.1297123  )
        16           Mo  tau(  16) = (   0.5265817   0.4772436   0.2784130  )
        17           S   tau(  17) = (   0.3624753   0.3882513   0.4525556  )
        18           S   tau(  18) = (   0.3635411   0.3752055   0.1119148  )
        19           Mo  tau(  19) = (   0.3652268   0.7630864   0.2781795  )
        20           S   tau(  20) = (   0.5269494   0.6690381   0.1096838  )
        21           Mo  tau(  21) = (   0.5300192   1.0470394   0.2900995  )
        22           S   tau(  22) = (   0.3670346   0.9457522   0.4574073  )
        23           S   tau(  23) = (   0.3604225   0.9585725   0.1159032  )
        24           Mo  tau(  24) = (   0.0313099   0.1847895   0.3013130  )
        25           S   tau(  25) = (   0.1956761   0.0838230   0.4650863  )
        26           S   tau(  26) = (   0.1967693   0.0903508   0.1278874  )
        27           Mo  tau(  27) = (   0.1967578   0.4753919   0.2813011  )
        28           S   tau(  28) = (   0.0287851   0.3864324   0.4586755  )
        29           S   tau(  29) = (   0.0244514   0.3729871   0.1239344  )
        30           Mo  tau(  30) = (   0.0286728   0.7631204   0.2856894  )
        31           S   tau(  31) = (   0.2011512   0.6675435   0.4465001  )
        32           S   tau(  32) = (   0.1969214   0.6672839   0.1104564  )
        33           Mo  tau(  33) = (   0.1950294   1.0511147   0.2932237  )
        34           S   tau(  34) = (   0.0312912   0.9612169   0.4667423  )
        35           S   tau(  35) = (   0.0292670   0.9563028   0.1216485  )
        36           H   tau(  36) = (   0.3333333   0.2568157   0.5650415  )

     number of k points=     1  Gaussian smearing, width (Ry)=  0.0100
                       cart. coord. in units 2pi/alat
        k(    1) = (   0.0000000   0.0000000   0.0000000), wk =   2.0000000

     Dense  grid:  1177734 G-vectors     FFT dimensions: ( 120, 135, 320)

     Smooth grid:   842757 G-vectors     FFT dimensions: ( 108, 120, 270)

     Estimated max dynamical RAM per process >     146.59 MB

     Estimated total dynamical RAM >       6.87 GB

     Initial potential from superposition of free atoms

     starting charge     306.9873, renormalised to     307.0000

     negative rho (up, down):  1.410E-04 0.000E+00


---------------------------------------------------------------------------------
Carrying out rVV10 run using the following parameters:
Nqs =      20    Nr_points =    1024   r_max =   100.000
b_value =  6.30000    beta =  0.00901
     q_mesh =  0.00010000  0.00030000  0.00058939  0.00100810
               0.00161396  0.00249058  0.00375900  0.00559430
               0.00824984  0.01209221  0.01765183  0.02569619
               0.03733578  0.05417739  0.07854596  0.11380545
               0.16482331  0.23864234  0.34545298  0.50000000

Gradients computed in Reciprocal space

---------------------------------------------------------------------------------


     Starting wfcs are  213 randomized atomic wfcs

     total cpu time spent up to now is        2.8 secs

     Self-consistent Calculation

     iteration #  1     ecut=    80.00 Ry     beta= 0.70
     Davidson diagonalization with overlap
     ethr =  1.00E-02,  avg # of iterations =  2.0

     Threshold (ethr) on eigenvalues was too large:
     Diagonalizing with lowered threshold

     Davidson diagonalization with overlap
     ethr =  3.77E-04,  avg # of iterations =  4.0

     negative rho (up, down):  1.814E-08 0.000E+00

     total cpu time spent up to now is       24.1 secs

     total energy              =   -2205.58649883 Ry
     estimated scf accuracy    <       1.45234086 Ry

     iteration #  2     ecut=    80.00 Ry     beta= 0.70
     Davidson diagonalization with overlap
     ethr =  4.73E-04,  avg # of iterations =  2.0

     total cpu time spent up to now is       26.5 secs

     total energy              =   -2205.41827272 Ry
     estimated scf accuracy    <       0.58117713 Ry

     iteration #  3     ecut=    80.00 Ry     beta= 0.70
     Davidson diagonalization with overlap
     ethr =  1.89E-04,  avg # of iterations =  5.0

     total cpu time spent up to now is       29.1 secs

     total energy              =   -2205.51779978 Ry
     estimated scf accuracy    <       0.04659725 Ry

     iteration #  4     ecut=    80.00 Ry     beta= 0.70
     Davidson diagonalization with overlap
     c_bands:  1 eigenvalues not converged
     ethr =  1.52E-05,  avg # of iterations = 20.0

     total cpu time spent up to now is       32.6 secs

     total energy              =   -2205.51929714 Ry
     estimated scf accuracy    <       0.02435080 Ry

     iteration #  5     ecut=    80.00 Ry     beta= 0.70
     Davidson diagonalization with overlap
     ethr =  7.93E-06,  avg # of iterations =  3.0

     total cpu time spent up to now is       34.9 secs

     total energy              =   -2205.51887729 Ry
     estimated scf accuracy    <       0.01804201 Ry

     iteration #  6     ecut=    80.00 Ry     beta= 0.70
     Davidson diagonalization with overlap
     ethr =  5.88E-06,  avg # of iterations =  2.0

     total cpu time spent up to now is       37.1 secs

     total energy              =   -2205.51771843 Ry
     estimated scf accuracy    <       0.01113065 Ry

     iteration #  7     ecut=    80.00 Ry     beta= 0.70
     Davidson diagonalization with overlap
     ethr =  3.63E-06,  avg # of iterations =  2.0

     total cpu time spent up to now is       40.7 secs

     total energy              =   -2205.51650639 Ry
     estimated scf accuracy    <       0.00629246 Ry

     iteration #  8     ecut=    80.00 Ry     beta= 0.70
     Davidson diagonalization with overlap
     ethr =  2.05E-06,  avg # of iterations =  8.0

     negative rho (up, down):  8.752E-03 0.000E+00

     total cpu time spent up to now is       45.4 secs

     total energy              =   -2205.51585879 Ry
     estimated scf accuracy    <       0.00356799 Ry

     iteration #  9     ecut=    80.00 Ry     beta= 0.70
     Davidson diagonalization with overlap
     ethr =  1.16E-06,  avg # of iterations =  2.0

     negative rho (up, down):  3.019E-02 0.000E+00

     total cpu time spent up to now is       49.6 secs

     total energy              =   -2205.51582247 Ry
     estimated scf accuracy    <       0.00202924 Ry

     iteration # 10     ecut=    80.00 Ry     beta= 0.70
     Davidson diagonalization with overlap
     ethr =  6.61E-07,  avg # of iterations =  2.0

     negative rho (up, down):  2.570E-02 0.000E+00

     total cpu time spent up to now is       54.8 secs

     total energy              =   -2205.51588125 Ry
     estimated scf accuracy    <       0.00074978 Ry

     iteration # 11     ecut=    80.00 Ry     beta= 0.70
     Davidson diagonalization with overlap
     ethr =  2.44E-07,  avg # of iterations =  2.0

     negative rho (up, down):  1.083E-02 0.000E+00

     total cpu time spent up to now is       60.2 secs

     total energy              =   -2205.51594521 Ry
     estimated scf accuracy    <       0.00009475 Ry

     iteration # 12     ecut=    80.00 Ry     beta= 0.70
     Davidson diagonalization with overlap
     c_bands:  1 eigenvalues not converged
     ethr =  3.09E-08,  avg # of iterations = 20.0

     negative rho (up, down):  3.153E-03 0.000E+00

     total cpu time spent up to now is       67.0 secs

     total energy              =   -2205.51599348 Ry
     estimated scf accuracy    <       0.00001480 Ry

     iteration # 13     ecut=    80.00 Ry     beta= 0.70
     Davidson diagonalization with overlap
     ethr =  4.82E-09,  avg # of iterations =  5.0

     negative rho (up, down):  3.610E-04 0.000E+00

     total cpu time spent up to now is       75.9 secs

     total energy              =   -2205.51599461 Ry
     estimated scf accuracy    <       0.00000333 Ry

     iteration # 14     ecut=    80.00 Ry     beta= 0.70
     Davidson diagonalization with overlap
     ethr =  1.08E-09,  avg # of iterations =  4.0

     negative rho (up, down):  1.369E-04 0.000E+00

     total cpu time spent up to now is       78.1 secs

     End of self-consistent calculation

          k = 0.0000 0.0000 0.0000 (105382 PWs)   bands (ev):

   -62.8942 -62.8644 -62.8533 -62.8416 -62.8261 -62.8127 -62.8019 -62.7912
   -62.7739 -62.7252 -62.6913 -62.6644 -37.2152 -37.1473 -37.1372 -37.1269
   -37.1207 -37.0932 -37.0863 -37.0658 -37.0603 -37.0525 -37.0394 -37.0321
   -37.0241 -37.0134 -37.0092 -37.0022 -36.9912 -36.9880 -36.9848 -36.9631
   -36.9445 -36.9272 -36.9137 -36.9122 -36.8974 -36.8817 -36.8704 -36.8621
   -36.8537 -36.8493 -36.8373 -36.8229 -36.8142 -36.7875 -36.6596 -36.6402
   -16.0457 -15.4352 -15.1202 -15.0496 -14.9128 -14.8280 -14.6862 -14.4800
   -14.4372 -14.3928 -14.3691 -14.3334 -14.3086 -14.2888 -14.1848 -14.1174
   -14.1039 -14.0823 -14.0084 -13.8898 -13.8208 -13.8014 -13.7757  -8.3149
    -7.5784  -7.3887  -7.3170  -7.2636  -7.2526  -7.1904  -7.1630  -7.0353
    -6.8241  -6.7801  -6.7491  -6.6777  -6.5897  -6.4967  -6.4514  -6.4178
    -6.2997  -6.2137  -6.1371  -5.9674  -5.9354  -5.9103  -5.8418  -5.7733
    -5.7509  -5.6937  -5.6871  -5.6368  -5.6085  -5.5382  -5.5164  -5.4756
    -5.4080  -5.3584  -5.2036  -5.1304  -5.0620  -5.0136  -4.9736  -4.9589
    -4.8985  -4.8103  -4.6550  -4.5080  -4.3699  -4.3216  -4.3067  -4.2416
    -4.1860  -4.0234  -4.0069  -3.8544  -3.8090  -3.7634  -3.7281  -3.6809
    -3.6288  -3.6063  -3.5250  -3.5029  -3.4700  -3.4515  -3.4229  -3.3704
    -3.3420  -3.1772  -3.1301  -2.8836  -2.8799  -2.7890  -2.7719  -2.7157
    -2.7050  -2.6419  -2.6300  -2.6109  -2.5576  -2.2676  -2.0155  -1.9854
    -1.8764  -0.9811  -0.6962  -0.6132  -0.1635  -0.1414  -0.0967  -0.0464
     0.0384   0.1622   0.1920   0.2488   0.2797   0.2951   0.3994   0.4723
     0.4873   0.5267   0.5593   0.6109   0.6334   0.7014   0.7298   0.7339
     0.7934   0.8160   0.8303   0.9064   0.9315   0.9779   1.0409   1.1119
     1.4068

     the Fermi energy is    -0.9815 ev

!    total energy              =   -2205.51599693 Ry
     estimated scf accuracy    <       0.00000035 Ry
     smearing contrib. (-TS)   =      -0.00571514 Ry
     internal energy E=F+TS    =   -2205.51028178 Ry

     The total energy is F=E-TS. E is the sum of the following terms:
     one-electron contribution =  -18047.74360919 Ry
     hartree contribution      =    9010.77757095 Ry
     xc contribution           =    -385.25436548 Ry
     ewald contribution        =    7216.71012193 Ry

     convergence has been achieved in  14 iterations

     negative rho (up, down):  1.369E-04 0.000E+00

     Forces acting on atoms (cartesian axes, Ry/au):

     atom    1 type  1   force =     0.01214387   -0.02724952    0.00285602
     atom    2 type  2   force =    -0.01467445    0.01767013    0.00055819
     atom    3 type  2   force =    -0.01199234    0.00967040   -0.00314546
     atom    4 type  1   force =     0.01356536    0.00444306    0.00206738
     atom    5 type  2   force =     0.00247288   -0.00402201   -0.01151467
     atom    6 type  2   force =    -0.00148100    0.00998919    0.00133382
     atom    7 type  1   force =     0.00155170   -0.00195208   -0.00798510
     atom    8 type  2   force =     0.00141371   -0.00460181    0.01752035
     atom    9 type  2   force =     0.01251961    0.00371454    0.01163758
     atom   10 type  1   force =    -0.01138282    0.01015687   -0.02695634
     atom   11 type  2   force =     0.00380694   -0.00288589   -0.00702724
     atom   12 type  2   force =    -0.00101198    0.00000833    0.00652915
     atom   13 type  1   force =     0.00946683   -0.01015237   -0.04192242
     atom   14 type  2   force =     0.01030425   -0.00102056    0.01193676
     atom   15 type  2   force =    -0.01206634    0.00344477   -0.00765405
     atom   16 type  1   force =     0.00299774    0.00835320    0.00157639
     atom   17 type  2   force =    -0.01196882   -0.04387964    0.05526566
     atom   18 type  2   force =    -0.00446292   -0.00774900    0.01472489
     atom   19 type  1   force =     0.01316256   -0.00579684   -0.00365550
     atom   20 type  2   force =     0.00582594   -0.00687927    0.00217561
     atom   21 type  1   force =    -0.00614981    0.00572393    0.00000838
     atom   22 type  2   force =    -0.00259685   -0.00230269   -0.00254863
     atom   23 type  2   force =    -0.00156185    0.00184366    0.00964192
     atom   24 type  1   force =    -0.00794679   -0.00350571   -0.02040056
     atom   25 type  2   force =     0.01629130    0.02323237    0.01524033
     atom   26 type  2   force =    -0.01206795   -0.00013596   -0.00477662
     atom   27 type  1   force =    -0.00657596   -0.00429840    0.00648985
     atom   28 type  2   force =    -0.00256003    0.00009293   -0.00741217
     atom   29 type  2   force =     0.00408348    0.00001770   -0.00301529
     atom   30 type  1   force =    -0.00335339    0.00868028   -0.00517283
     atom   31 type  2   force =     0.00113402    0.00290260    0.01810390
     atom   32 type  2   force =    -0.01209078    0.00557419    0.00617688
     atom   33 type  1   force =     0.01510751   -0.00726932   -0.01231592
     atom   34 type  2   force =     0.00308920   -0.04394964   -0.01038855
     atom   35 type  2   force =    -0.00778050    0.00679765    0.01587097
     atom   36 type  3   force =     0.00278764    0.05533490   -0.02382269
     The non-local contrib.  to forces
     atom    1 type  1   force =    -0.00035328    0.03233094   -0.01236733
     atom    2 type  2   force =    -0.01088644    0.00417073   -0.26998963
     atom    3 type  2   force =    -0.01521517   -0.00131090    0.27154894
     atom    4 type  1   force =    -0.00030553    0.01008142    0.00758468
     atom    5 type  2   force =     0.01314328   -0.03271423   -0.24661730
     atom    6 type  2   force =    -0.01058751    0.01370740    0.26190012
     atom    7 type  1   force =    -0.02301888   -0.00648710   -0.01440438
     atom    8 type  2   force =     0.00469763   -0.00300075   -0.25332805
     atom    9 type  2   force =     0.00884164   -0.01072328    0.27763049
     atom   10 type  1   force =     0.00489980   -0.00065807    0.00030734
     atom   11 type  2   force =     0.01317620    0.00546169   -0.26038243
     atom   12 type  2   force =    -0.01251178   -0.01599854    0.26227580
     atom   13 type  1   force =     0.00125977    0.01798243    0.00058679
     atom   14 type  2   force =     0.01280849   -0.01553970   -0.24935228
     atom   15 type  2   force =    -0.01426868   -0.00494768    0.26114861
     atom   16 type  1   force =    -0.01185775    0.03390293   -0.02710026
     atom   17 type  2   force =    -0.04787649   -0.25679613    0.00950082
     atom   18 type  2   force =    -0.00339651   -0.00522874    0.27668802
     atom   19 type  1   force =     0.01690502   -0.00345365   -0.01153985
     atom   20 type  2   force =     0.00035478   -0.02348602    0.26553802
     atom   21 type  1   force =     0.00253589    0.01851122    0.00656240
     atom   22 type  2   force =    -0.00596403    0.00372303   -0.25832515
     atom   23 type  2   force =     0.00446452   -0.01480470    0.26882344
     atom   24 type  1   force =     0.00591524    0.01193944   -0.01251211
     atom   25 type  2   force =     0.01735716    0.02218012   -0.21777648
     atom   26 type  2   force =    -0.00296580   -0.01464425    0.26646406
     atom   27 type  1   force =     0.00465700    0.00483578    0.00530929
     atom   28 type  2   force =    -0.00085727   -0.02414291   -0.27645250
     atom   29 type  2   force =     0.01003499    0.00271987    0.26049390
     atom   30 type  1   force =    -0.00191183    0.01822626    0.01067228
     atom   31 type  2   force =    -0.00586761    0.00736477   -0.24931626
     atom   32 type  2   force =    -0.00425787   -0.01398004    0.27521943
     atom   33 type  1   force =    -0.00883392    0.00395596    0.00115753
     atom   34 type  2   force =    -0.00091231   -0.03792549   -0.27293306
     atom   35 type  2   force =    -0.00145013   -0.01228826    0.27145601
     atom   36 type  3   force =     0.00322471    0.01891146   -0.01713946
     The ionic contribution  to forces
     atom    1 type  1   force =     0.57868164    0.16576734    5.54100408
     atom    2 type  2   force =    -0.68973608    0.34488682   39.26792958
     atom    3 type  2   force =    -0.17027771   -0.00628305  -36.10164688
     atom    4 type  1   force =     0.07139575    0.68150297    0.61604527
     atom    5 type  2   force =    -0.82079026    1.57731628   38.70573979
     atom    6 type  2   force =     0.37161247   -0.48308450  -38.05639920
     atom    7 type  1   force =    -2.57587923   -2.73274637    2.57451014
     atom    8 type  2   force =    -0.99092611    0.07444643   37.39202646
     atom    9 type  2   force =     0.33989868   -0.01712809  -37.99681878
     atom   10 type  1   force =    -1.11494639   -0.40644493    5.65934215
     atom   11 type  2   force =    -0.53346591   -1.64495267   39.14342221
     atom   12 type  2   force =     0.45216866    0.67802967  -37.84650509
     atom   13 type  1   force =     0.58216595    0.71666220    1.92566836
     atom   14 type  2   force =     0.36493649   -0.29201022   38.36267299
     atom   15 type  2   force =     0.19363052   -0.10161323  -36.86571046
     atom   16 type  1   force =     0.16454865    4.18949423    0.23913182
     atom   17 type  2   force =     1.00984124    2.40119405   37.18124590
     atom   18 type  2   force =    -0.15310926   -0.61148651  -38.66209252
     atom   19 type  1   force =     2.73000533   -2.36546138    0.61600678
     atom   20 type  2   force =     0.24296137   -0.16938895  -38.48610972
     atom   21 type  1   force =     0.13374424   -0.12613757    1.08316080
     atom   22 type  2   force =     0.46735728   -1.80305580   38.41842847
     atom   23 type  2   force =    -0.08413558    0.64135931  -38.29912878
     atom   24 type  1   force =    -0.82599506    1.04991976    5.60295436
     atom   25 type  2   force =     0.31708296   -0.15761379   39.03452574
     atom   26 type  2   force =    -0.31862103    0.02166941  -37.40874543
     atom   27 type  1   force =    -0.14730400    0.70268193   -2.57050587
     atom   28 type  2   force =    -0.16290741    1.11623824   38.13698594
     atom   29 type  2   force =    -0.29963338   -0.40707547  -37.30750983
     atom   30 type  1   force =    -0.39007985   -0.85001882   -0.03399606
     atom   31 type  2   force =     1.18290313    0.06661210   37.30448012
     atom   32 type  2   force =    -0.49226610    0.02468371  -38.64696252
     atom   33 type  1   force =     0.70989325   -1.06645635    1.95628963
     atom   34 type  2   force =     0.19958810   -1.49436153   39.35488562
     atom   35 type  2   force =    -0.31308273    0.46131117  -37.81068742
     atom   36 type  3   force =    -0.02925963   -0.17845640    7.97636234
     The local contribution  to forces
     atom    1 type  1   force =    -0.56630761   -0.22534302   -5.52514357
     atom    2 type  2   force =     0.68570486   -0.33122530  -39.01788730
     atom    3 type  2   force =     0.17280314    0.01728588   35.84821713
     atom    4 type  1   force =    -0.05743214   -0.68702946   -0.62099254
     atom    5 type  2   force =     0.81094038   -1.55048742  -38.49052256
     atom    6 type  2   force =    -0.36317640    0.48059989   37.81689786
     atom    7 type  1   force =     2.60050877    2.73755039   -2.56764649
     atom    8 type  2   force =     0.98785036   -0.07646895  -37.14130293
     atom    9 type  2   force =    -0.33598592    0.03094772   37.75207342
     atom   10 type  1   force =     1.09875840    0.41704180   -5.68587419
     atom   11 type  2   force =     0.52470557    1.63720228  -38.91051861
     atom   12 type  2   force =    -0.44184944   -0.66346018   37.61185539
     atom   13 type  1   force =    -0.57396959   -0.74490327   -1.96753982
     atom   14 type  2   force =    -0.36696719    0.30638602  -38.12105510
     atom   15 type  2   force =    -0.19219432    0.10963654   36.61782849
     atom   16 type  1   force =    -0.14968253   -4.21513464   -0.21001891
     atom   17 type  2   force =    -0.97688160   -2.20314091  -37.14052579
     atom   18 type  2   force =     0.15193042    0.60940766   38.42152951
     atom   19 type  1   force =    -2.73400907    2.36335072   -0.60772697
     atom   20 type  2   force =    -0.23766957    0.18517324   38.24409435
     atom   21 type  1   force =    -0.14253033    0.11311772   -1.08897774
     atom   22 type  2   force =    -0.46417658    1.79756266  -38.18300317
     atom   23 type  2   force =     0.07853355   -0.62609216   38.06124292
     atom   24 type  1   force =     0.81223892   -1.06541311   -5.61009578
     atom   25 type  2   force =    -0.31742596    0.16010217  -38.81971293
     atom   26 type  2   force =     0.30965715   -0.00800519   37.15885042
     atom   27 type  1   force =     0.13603968   -0.71160430    2.57229249
     atom   28 type  2   force =     0.16126644   -1.09375532  -37.88880240
     atom   29 type  2   force =     0.29444045    0.40507555   37.06475650
     atom   30 type  1   force =     0.38881138    0.84057098    0.01873140
     atom   31 type  2   force =    -1.17619054   -0.07086407  -37.05723242
     atom   32 type  2   force =     0.48453270   -0.00591890   38.39934502
     atom   33 type  1   force =    -0.68593722    1.05500462   -1.96896446
     atom   34 type  2   force =    -0.19591682    1.48719485  -39.11323650
     atom   35 type  2   force =     0.30691791   -0.44334989   37.57653985
     atom   36 type  3   force =     0.02881877    0.21487937   -7.98301238
     The core correction contribution to forces
     atom    1 type  1   force =     0.00000000    0.00000000    0.00000000
     atom    2 type  2   force =     0.00026636   -0.00026685    0.02070954
     atom    3 type  2   force =     0.00069066   -0.00006898   -0.02095336
     atom    4 type  1   force =     0.00000000    0.00000000    0.00000000
     atom    5 type  2   force =    -0.00080184    0.00182920    0.02005148
     atom    6 type  2   force =     0.00067242   -0.00118646   -0.02080301
     atom    7 type  1   force =     0.00000000    0.00000000    0.00000000
     atom    8 type  2   force =    -0.00015993    0.00048527    0.02032765
     atom    9 type  2   force =    -0.00023907    0.00065956   -0.02101852
     atom   10 type  1   force =     0.00000000    0.00000000    0.00000000
     atom   11 type  2   force =    -0.00061084   -0.00058282    0.02064161
     atom   12 type  2   force =     0.00114951    0.00133433   -0.02078153
     atom   13 type  1   force =     0.00000000    0.00000000    0.00000000
     atom   14 type  2   force =    -0.00049576    0.00006059    0.01987065
     atom   15 type  2   force =     0.00075021    0.00033432   -0.02058502
     atom   16 type  1   force =     0.00000000    0.00000000    0.00000000
     atom   17 type  2   force =     0.00286042    0.01486044    0.00534992
     atom   18 type  2   force =     0.00007156   -0.00035869   -0.02117211
     atom   19 type  1   force =     0.00000000    0.00000000    0.00000000
     atom   20 type  2   force =     0.00011463    0.00091940   -0.02117853
     atom   21 type  1   force =     0.00000000    0.00000000    0.00000000
     atom   22 type  2   force =     0.00013774   -0.00052755    0.02047883
     atom   23 type  2   force =    -0.00043763    0.00123308   -0.02093185
     atom   24 type  1   force =     0.00000000    0.00000000    0.00000000
     atom   25 type  2   force =    -0.00072827   -0.00154770    0.01841183
     atom   26 type  2   force =    -0.00011583    0.00078041   -0.02100087
     atom   27 type  1   force =     0.00000000    0.00000000    0.00000000
     atom   28 type  2   force =    -0.00000647    0.00178512    0.02098860
     atom   29 type  2   force =    -0.00072749   -0.00059480   -0.02043843
     atom   30 type  1   force =     0.00000000    0.00000000    0.00000000
     atom   31 type  2   force =     0.00029547   -0.00015600    0.02028217
     atom   32 type  2   force =    -0.00003857    0.00083127   -0.02111358
     atom   33 type  1   force =     0.00000000    0.00000000    0.00000000
     atom   34 type  2   force =     0.00036495    0.00115044    0.02109694
     atom   35 type  2   force =    -0.00012569    0.00104577   -0.02111270
     atom   36 type  3   force =     0.00000000    0.00000000    0.00000000
     The Hubbard contrib.    to forces
     atom    1 type  1   force =     0.00000000    0.00000000    0.00000000
     atom    2 type  2   force =     0.00000000    0.00000000    0.00000000
     atom    3 type  2   force =     0.00000000    0.00000000    0.00000000
     atom    4 type  1   force =     0.00000000    0.00000000    0.00000000
     atom    5 type  2   force =     0.00000000    0.00000000    0.00000000
     atom    6 type  2   force =     0.00000000    0.00000000    0.00000000
     atom    7 type  1   force =     0.00000000    0.00000000    0.00000000
     atom    8 type  2   force =     0.00000000    0.00000000    0.00000000
     atom    9 type  2   force =     0.00000000    0.00000000    0.00000000
     atom   10 type  1   force =     0.00000000    0.00000000    0.00000000
     atom   11 type  2   force =     0.00000000    0.00000000    0.00000000
     atom   12 type  2   force =     0.00000000    0.00000000    0.00000000
     atom   13 type  1   force =     0.00000000    0.00000000    0.00000000
     atom   14 type  2   force =     0.00000000    0.00000000    0.00000000
     atom   15 type  2   force =     0.00000000    0.00000000    0.00000000
     atom   16 type  1   force =     0.00000000    0.00000000    0.00000000
     atom   17 type  2   force =     0.00000000    0.00000000    0.00000000
     atom   18 type  2   force =     0.00000000    0.00000000    0.00000000
     atom   19 type  1   force =     0.00000000    0.00000000    0.00000000
     atom   20 type  2   force =     0.00000000    0.00000000    0.00000000
     atom   21 type  1   force =     0.00000000    0.00000000    0.00000000
     atom   22 type  2   force =     0.00000000    0.00000000    0.00000000
     atom   23 type  2   force =     0.00000000    0.00000000    0.00000000
     atom   24 type  1   force =     0.00000000    0.00000000    0.00000000
     atom   25 type  2   force =     0.00000000    0.00000000    0.00000000
     atom   26 type  2   force =     0.00000000    0.00000000    0.00000000
     atom   27 type  1   force =     0.00000000    0.00000000    0.00000000
     atom   28 type  2   force =     0.00000000    0.00000000    0.00000000
     atom   29 type  2   force =     0.00000000    0.00000000    0.00000000
     atom   30 type  1   force =     0.00000000    0.00000000    0.00000000
     atom   31 type  2   force =     0.00000000    0.00000000    0.00000000
     atom   32 type  2   force =     0.00000000    0.00000000    0.00000000
     atom   33 type  1   force =     0.00000000    0.00000000    0.00000000
     atom   34 type  2   force =     0.00000000    0.00000000    0.00000000
     atom   35 type  2   force =     0.00000000    0.00000000    0.00000000
     atom   36 type  3   force =     0.00000000    0.00000000    0.00000000
     The SCF correction term to forces
     atom    1 type  1   force =     0.00012230   -0.00000895   -0.00062045
     atom    2 type  2   force =    -0.00002398    0.00010056   -0.00018730
     atom    3 type  2   force =     0.00000592    0.00004329   -0.00029458
     atom    4 type  1   force =    -0.00009355   -0.00011605   -0.00055332
     atom    5 type  2   force =    -0.00001950    0.00002999   -0.00014939
     atom    6 type  2   force =    -0.00000281   -0.00005132   -0.00024524
     atom    7 type  1   force =    -0.00005978   -0.00027319   -0.00042768
     atom    8 type  2   force =    -0.00004906   -0.00006798   -0.00018609
     atom    9 type  2   force =     0.00000346   -0.00004555   -0.00021233
     atom   10 type  1   force =    -0.00009545    0.00021390   -0.00071494
     atom   11 type  2   force =     0.00000111   -0.00001855   -0.00017332
     atom   12 type  2   force =     0.00003024    0.00009887   -0.00029872
     atom   13 type  1   force =     0.00000988    0.00010208   -0.00062105
     atom   14 type  2   force =     0.00002140    0.00007857   -0.00018280
     atom   15 type  2   force =     0.00001510    0.00003066   -0.00031898
     atom   16 type  1   force =    -0.00001145    0.00008652   -0.00041955
     atom   17 type  2   force =     0.00008680   -0.00000127   -0.00028849
     atom   18 type  2   force =     0.00004005   -0.00008688   -0.00021130
     atom   19 type  1   force =     0.00026045   -0.00023670   -0.00037876
     atom   20 type  2   force =     0.00006390   -0.00010111   -0.00015180
     atom   21 type  1   force =     0.00009957    0.00022839   -0.00072038
     atom   22 type  2   force =     0.00004791   -0.00000922   -0.00011090
     atom   23 type  2   force =     0.00001247    0.00014396   -0.00034711
     atom   24 type  1   force =    -0.00010671    0.00004403   -0.00073033
     atom   25 type  2   force =     0.00000460    0.00010739   -0.00019113
     atom   26 type  2   force =    -0.00002326    0.00005949   -0.00032810
     atom   27 type  1   force =     0.00003053   -0.00021598   -0.00058936
     atom   28 type  2   force =    -0.00005614   -0.00003637   -0.00011511
     atom   29 type  2   force =    -0.00003193   -0.00011163   -0.00030072
     atom   30 type  1   force =    -0.00017392   -0.00010231   -0.00056376
     atom   31 type  2   force =    -0.00000726   -0.00005837   -0.00009300
     atom   32 type  2   force =    -0.00006176   -0.00004604   -0.00029477
     atom   33 type  1   force =    -0.00001542    0.00022227   -0.00078192
     atom   34 type  2   force =    -0.00003555   -0.00001208   -0.00018484
     atom   35 type  2   force =    -0.00004069    0.00007468   -0.00030807
     atom   36 type  3   force =     0.00000297   -0.00000370   -0.00001649

     Total force =     0.146167     Total SCF correction =     0.002528

     BFGS Geometry Optimization
     Energy error            =      0.0E+00 Ry
     Gradient error          =      5.5E-02 Ry/Bohr

     number of scf cycles    =   1
     number of bfgs steps    =   0

     energy             new  =   -2205.5159969282 Ry

     new trust radius        =       0.0715749177 bohr
     new conv_thr            =       0.0000010000 Ry


ATOMIC_POSITIONS (angstrom)
Mo            6.5809746659        1.7733864043        2.8251543750
S             8.1689439523        0.8190546557        4.4348337318
S             8.1868870142        0.8163591006        1.2762189223
Mo            8.1023410442        4.4974081085        2.7189124061
S             6.5012178494        3.7202831338        4.3405673475
S             6.5525660879        3.5170236069        1.1219860574
Mo            6.4908028218        7.2174042882        2.6676589508
S             8.0824758326        6.3414358215        4.2517329314
S             8.0875427399        6.3066679642        1.0900213416
Mo            8.1545955216        9.9075551954        2.8291970816
S             6.4971821421        8.9413996678        4.3793868797
S             6.6174116809        9.0487156196        1.1433623780
Mo            3.4266692962        1.7415834457        2.7542867729
S             4.9806182667        0.8164011541        4.3568497539
S             5.0514485222        0.8480850048        1.2226081119
Mo            4.9813430179        4.5175983264        2.6337187383
S             3.4215080367        3.6483795782        4.3089549072
S             3.4355589051        3.5441281060        1.0661437599
Mo            3.4608270662        7.2132569853        2.6287424555
S             4.9863171500        6.3232919350        1.0384050130
Mo            5.0090095831        9.9046290271        2.7434053928
S             3.4695839243        8.9425327354        4.3242426365
S             3.4076026728        9.0659656050        1.1011705846
Mo            0.2918852276        1.7456543906        2.8386491964
S             1.8590832000        0.8049880497        4.4062742753
S             1.8544139512        0.8543539735        1.2068731753
Mo            1.8572114625        4.4933921465        2.6636316626
S             0.2708591377        3.6544480050        4.3336617475
S             0.2333920915        3.5272585931        1.1704222617
Mo            0.2693776147        7.2212395011        2.6989590840
S             1.9028383457        6.3143348268        4.2320242944
S             1.8558400493        6.3132935439        1.0478279452
Mo            1.8523412141        9.9362923925        2.7664289470
S             0.2975476317        9.0667406782        4.4083720835
S             0.2726541348        9.0471228739        1.1587993332
H             3.1537284906        2.4579264108        5.3308553357



     Writing config-only to output data dir ./MoS2-V-O.save/
     NEW-OLD atomic charge density approx. for the potential

     negative rho (up, down):  1.454E-04 0.000E+00

     total cpu time spent up to now is       81.5 secs

     Self-consistent Calculation

     iteration #  1     ecut=    80.00 Ry     beta= 0.70
     Davidson diagonalization with overlap
     ethr =  1.00E-06,  avg # of iterations = 10.0

     negative rho (up, down):  8.155E-05 0.000E+00

     total cpu time spent up to now is       97.1 secs

     total energy              =   -2205.53425710 Ry
     estimated scf accuracy    <       0.00237578 Ry

     iteration #  2     ecut=    80.00 Ry     beta= 0.70
     Davidson diagonalization with overlap
     ethr =  7.74E-07,  avg # of iterations =  2.0

     negative rho (up, down):  7.120E-05 0.000E+00

     total cpu time spent up to now is      110.7 secs

     total energy              =   -2205.53429148 Ry
     estimated scf accuracy    <       0.00048086 Ry

     iteration #  3     ecut=    80.00 Ry     beta= 0.70
     Davidson diagonalization with overlap
     ethr =  1.57E-07,  avg # of iterations =  2.0

     negative rho (up, down):  6.972E-05 0.000E+00

     total cpu time spent up to now is      123.9 secs

     total energy              =   -2205.53431828 Ry
     estimated scf accuracy    <       0.00011456 Ry

     iteration #  4     ecut=    80.00 Ry     beta= 0.70
     Davidson diagonalization with overlap
     ethr =  3.73E-08,  avg # of iterations =  5.0

     negative rho (up, down):  6.645E-05 0.000E+00

     total cpu time spent up to now is      140.1 secs

     total energy              =   -2205.53433796 Ry
     estimated scf accuracy    <       0.00001212 Ry

     iteration #  5     ecut=    80.00 Ry     beta= 0.70
     Davidson diagonalization with overlap
     ethr =  3.95E-09,  avg # of iterations = 10.0

     negative rho (up, down):  6.037E-05 0.000E+00

     total cpu time spent up to now is      151.3 secs

     total energy              =   -2205.53434110 Ry
     estimated scf accuracy    <       0.00000513 Ry

     iteration #  6     ecut=    80.00 Ry     beta= 0.70
     Davidson diagonalization with overlap
     ethr =  1.67E-09,  avg # of iterations =  2.0

     negative rho (up, down):  5.618E-05 0.000E+00

     total cpu time spent up to now is      166.0 secs

     total energy              =   -2205.53434222 Ry
     estimated scf accuracy    <       0.00000202 Ry

     iteration #  7     ecut=    80.00 Ry     beta= 0.70
     Davidson diagonalization with overlap
     ethr =  6.57E-10,  avg # of iterations =  2.0

     negative rho (up, down):  1.374E-04 0.000E+00

     total cpu time spent up to now is      167.9 secs

     End of self-consistent calculation

          k = 0.0000 0.0000 0.0000 (105382 PWs)   bands (ev):

   -62.8947 -62.8526 -62.8466 -62.8365 -62.8172 -62.8045 -62.7921 -62.7864
   -62.7631 -62.7129 -62.6725 -62.6528 -37.2069 -37.1400 -37.1309 -37.1149
   -37.1105 -37.0886 -37.0796 -37.0577 -37.0510 -37.0417 -37.0319 -37.0232
   -37.0192 -37.0044 -36.9999 -36.9935 -36.9821 -36.9768 -36.9755 -36.9600
   -36.9370 -36.9199 -36.9055 -36.9030 -36.8881 -36.8697 -36.8566 -36.8518
   -36.8449 -36.8382 -36.8235 -36.8128 -36.8018 -36.7774 -36.6451 -36.6240
   -16.0552 -15.4745 -15.1079 -15.0519 -14.8977 -14.8252 -14.6876 -14.4568
   -14.4243 -14.3911 -14.3681 -14.3244 -14.2994 -14.2867 -14.1826 -14.1129
   -14.0939 -14.0828 -14.0052 -13.8694 -13.8176 -13.7972 -13.7787  -8.4315
    -7.5723  -7.3826  -7.3035  -7.2515  -7.2399  -7.1895  -7.1601  -7.0613
    -6.8142  -6.7699  -6.7425  -6.6616  -6.5808  -6.4894  -6.4501  -6.4098
    -6.2898  -6.2034  -6.1398  -5.9552  -5.9133  -5.9065  -5.8278  -5.7651
    -5.7483  -5.6904  -5.6768  -5.6325  -5.5966  -5.5352  -5.5192  -5.4710
    -5.3848  -5.3376  -5.1961  -5.1037  -5.0497  -5.0013  -4.9621  -4.9552
    -4.9001  -4.8114  -4.6515  -4.5039  -4.3957  -4.3081  -4.2857  -4.2270
    -4.1869  -4.0321  -4.0090  -3.8499  -3.7994  -3.7577  -3.7277  -3.6680
    -3.6316  -3.5970  -3.5264  -3.4999  -3.4604  -3.4454  -3.4182  -3.3629
    -3.3311  -3.1740  -3.1384  -2.8788  -2.8707  -2.7709  -2.7539  -2.7087
    -2.6821  -2.6503  -2.6396  -2.5939  -2.5513  -2.2549  -2.0066  -1.9825
    -1.8860  -0.9623  -0.6866  -0.5825  -0.1551  -0.1349  -0.0938  -0.0272
     0.0538   0.1664   0.1976   0.2689   0.2910   0.3057   0.4025   0.4779
     0.5165   0.5337   0.5797   0.6226   0.6428   0.7025   0.7326   0.7401
     0.7971   0.8260   0.8472   0.9105   0.9415   1.0030   1.0544   1.1217
     1.4184

     the Fermi energy is    -0.9628 ev

!    total energy              =   -2205.53434196 Ry
     estimated scf accuracy    <       0.00000099 Ry
     smearing contrib. (-TS)   =      -0.00573544 Ry
     internal energy E=F+TS    =   -2205.52860651 Ry

     The total energy is F=E-TS. E is the sum of the following terms:
     one-electron contribution =  -18046.88086366 Ry
     hartree contribution      =    9010.44823274 Ry
     xc contribution           =    -385.26635650 Ry
     ewald contribution        =    7216.17038090 Ry

     convergence has been achieved in   7 iterations

     negative rho (up, down):  1.374E-04 0.000E+00

     Forces acting on atoms (cartesian axes, Ry/au):

     atom    1 type  1   force =     0.00316432   -0.01344991   -0.00060246
     atom    2 type  2   force =    -0.00891148    0.01124975   -0.00181777
     atom    3 type  2   force =    -0.01044574    0.00760799   -0.00952136
     atom    4 type  1   force =     0.00953698    0.00179544    0.00241184
     atom    5 type  2   force =     0.00342872   -0.00440374   -0.01141274
     atom    6 type  2   force =    -0.00052617    0.00751799    0.00368707
     atom    7 type  1   force =     0.00223670   -0.00138585   -0.00135260
     atom    8 type  2   force =     0.00129176   -0.00288480    0.01223200
     atom    9 type  2   force =     0.01125089    0.00347187    0.00756550
     atom   10 type  1   force =    -0.00409860    0.00770652   -0.00923558
     atom   11 type  2   force =     0.00304759   -0.00187529   -0.00856816
     atom   12 type  2   force =    -0.00297850    0.00045129    0.00129336
     atom   13 type  1   force =     0.00604236   -0.00672062   -0.01688624
     atom   14 type  2   force =     0.00601245   -0.00100972    0.00543516
     atom   15 type  2   force =    -0.00556093    0.00041797   -0.01084727
     atom   16 type  1   force =    -0.00157397    0.00253224    0.00603038
     atom   17 type  2   force =    -0.00939812   -0.03859625    0.04208012
     atom   18 type  2   force =    -0.00326544   -0.00404542    0.01165882
     atom   19 type  1   force =     0.00874984   -0.00501566    0.00117457
     atom   20 type  2   force =     0.00596991   -0.00655896   -0.00131203
     atom   21 type  1   force =    -0.00402429    0.00349470    0.00283574
     atom   22 type  2   force =    -0.00098098   -0.00229493   -0.00269607
     atom   23 type  2   force =     0.00015143   -0.00006241    0.00446208
     atom   24 type  1   force =    -0.00497516   -0.00181459   -0.00806769
     atom   25 type  2   force =     0.01267425    0.01529019    0.00205295
     atom   26 type  2   force =    -0.01062687   -0.00259836   -0.00944916
     atom   27 type  1   force =    -0.00240280   -0.00473144    0.01095548
     atom   28 type  2   force =    -0.00271823   -0.00135548   -0.00705224
     atom   29 type  2   force =     0.00382194    0.00120755   -0.00488966
     atom   30 type  1   force =    -0.00198159    0.00183030    0.00300451
     atom   31 type  2   force =     0.00191142    0.00200617    0.01117376
     atom   32 type  2   force =    -0.00923106    0.00365988    0.00574211
     atom   33 type  1   force =     0.00674505   -0.00184034    0.00058442
     atom   34 type  2   force =     0.00056718   -0.03199948   -0.01542049
     atom   35 type  2   force =    -0.00589989    0.00720204    0.00844917
     atom   36 type  3   force =     0.00299701    0.05520137   -0.02369752
     The non-local contrib.  to forces
     atom    1 type  1   force =     0.00110381    0.02868981   -0.01333260
     atom    2 type  2   force =    -0.00686583    0.00014297   -0.26955406
     atom    3 type  2   force =    -0.01256275   -0.00360766    0.26638364
     atom    4 type  1   force =     0.00107898    0.01215449    0.00698477
     atom    5 type  2   force =     0.01516886   -0.03361120   -0.24656098
     atom    6 type  2   force =    -0.00984138    0.01136343    0.26519433
     atom    7 type  1   force =    -0.02333128   -0.00792692   -0.01523974
     atom    8 type  2   force =     0.00471677   -0.00227043   -0.25676089
     atom    9 type  2   force =     0.00721618   -0.01096714    0.27513391
     atom   10 type  1   force =     0.00325689   -0.00071458   -0.00097500
     atom   11 type  2   force =     0.01124949    0.00623185   -0.26171855
     atom   12 type  2   force =    -0.01323042   -0.01565627    0.25988232
     atom   13 type  1   force =     0.00302007    0.01708915    0.00108920
     atom   14 type  2   force =     0.00995839   -0.01582814   -0.25174084
     atom   15 type  2   force =    -0.00987739   -0.00719598    0.25842401
     atom   16 type  1   force =    -0.01191962    0.03662074   -0.03000269
     atom   17 type  2   force =    -0.05199436   -0.26812405    0.01434806
     atom   18 type  2   force =    -0.00241587   -0.00447214    0.27596593
     atom   19 type  1   force =     0.01945862   -0.00337616   -0.01301818
     atom   20 type  2   force =     0.00064193   -0.02229031    0.26309716
     atom   21 type  1   force =     0.00156666    0.01870847    0.00415979
     atom   22 type  2   force =    -0.00398452    0.00295596   -0.25878333
     atom   23 type  2   force =     0.00583352   -0.01649680    0.26571040
     atom   24 type  1   force =     0.00399605    0.01251436   -0.01273781
     atom   25 type  2   force =     0.01248704    0.01327520   -0.22609785
     atom   26 type  2   force =    -0.00124453   -0.01608319    0.26415499
     atom   27 type  1   force =     0.00423493    0.00416770    0.00214745
     atom   28 type  2   force =    -0.00033497   -0.02462237   -0.27602049
     atom   29 type  2   force =     0.00949126    0.00231050    0.26052244
     atom   30 type  1   force =    -0.00236848    0.01929453    0.00988328
     atom   31 type  2   force =    -0.00448951    0.00712837   -0.25409168
     atom   32 type  2   force =    -0.00166171   -0.01513966    0.27565273
     atom   33 type  1   force =    -0.00729867    0.00147527   -0.00126453
     atom   34 type  2   force =    -0.00277552   -0.02830133   -0.27727851
     atom   35 type  2   force =    -0.00042268   -0.01190886    0.26777604
     atom   36 type  3   force =     0.00431239    0.02353588   -0.02074110
     The ionic contribution  to forces
     atom    1 type  1   force =     0.34202428    0.58884680    5.63817150
     atom    2 type  2   force =    -0.49492208    0.22402733   39.35629200
     atom    3 type  2   force =    -0.13943331    0.02652956  -36.22178050
     atom    4 type  1   force =    -0.11422746    0.63031788    0.70963637
     atom    5 type  2   force =    -0.86035531    1.55780911   38.57115191
     atom    6 type  2   force =     0.35462181   -0.49880473  -37.93265985
     atom    7 type  1   force =    -2.53059775   -2.75965621    2.50220488
     atom    8 type  2   force =    -1.02353137    0.10127775   37.49482783
     atom    9 type  2   force =     0.31156367   -0.05694719  -37.95641367
     atom   10 type  1   force =    -0.82193135   -0.45027930    5.36175893
     atom   11 type  2   force =    -0.48873072   -1.64871557   39.12171609
     atom   12 type  2   force =     0.38324056    0.62480655  -37.84919497
     atom   13 type  1   force =     0.50470593    0.89301950    1.12459571
     atom   14 type  2   force =     0.23982081   -0.21924798   38.45060018
     atom   15 type  2   force =     0.29940991   -0.08343595  -36.96390506
     atom   16 type  1   force =    -0.02556173    3.95669118    0.53667531
     atom   17 type  2   force =     1.06491608    2.47765979   37.23698958
     atom   18 type  2   force =    -0.13460053   -0.45863518  -38.52923717
     atom   19 type  1   force =     2.57212497   -2.51391707    0.62050304
     atom   20 type  2   force =     0.20990423   -0.20054794  -38.52135058
     atom   21 type  1   force =     0.14579678   -0.22243993    1.26370122
     atom   22 type  2   force =     0.44279632   -1.80505969   38.45343973
     atom   23 type  2   force =    -0.06631332    0.55603547  -38.29630439
     atom   24 type  1   force =    -0.59391228    0.90725278    5.37777732
     atom   25 type  2   force =     0.24025258   -0.20967057   39.00932670
     atom   26 type  2   force =    -0.37320663   -0.00581225  -37.41433497
     atom   27 type  1   force =     0.17161394    0.77977603   -2.22824560
     atom   28 type  2   force =    -0.14248645    1.02848008   38.12743339
     atom   29 type  2   force =    -0.29294971   -0.35407523  -37.34818872
     atom   30 type  1   force =    -0.27469302   -0.95567847   -0.04396201
     atom   31 type  2   force =     1.22157015    0.05460268   37.33024976
     atom   32 type  2   force =    -0.42762790   -0.01680027  -38.56018654
     atom   33 type  1   force =     0.45307032   -0.86811373    2.04191548
     atom   34 type  2   force =     0.15798908   -1.27169162   39.25538244
     atom   35 type  2   force =    -0.26424608    0.45390242  -37.73350092
     atom   36 type  3   force =    -0.04609443   -0.26150607    8.01491559
     The local contribution  to forces
     atom    1 type  1   force =    -0.33990453   -0.63111357   -5.62673885
     atom    2 type  2   force =     0.49257250   -0.21275052  -39.10992558
     atom    3 type  2   force =     0.14093676   -0.01542208   35.96644374
     atom    4 type  1   force =     0.12261333   -0.64066056   -0.71542653
     atom    5 type  2   force =     0.84957311   -1.53040772  -38.35655388
     atom    6 type  2   force =    -0.34593529    0.49605349   37.69169414
     atom    7 type  1   force =     2.55617067    2.76631776   -2.48942979
     atom    8 type  2   force =     1.02030053   -0.10231382  -37.24681434
     atom    9 type  2   force =    -0.30732191    0.07081006   37.70954152
     atom   10 type  1   force =     0.81456856    0.45857374   -5.37134013
     atom   11 type  2   force =     0.48100101    1.64121217  -38.88976628
     atom   12 type  2   force =    -0.37404203   -0.60996843   37.61101798
     atom   13 type  1   force =    -0.50174708   -0.91711632   -1.14403695
     atom   14 type  2   force =    -0.24319866    0.23382561  -38.21399117
     atom   15 type  2   force =    -0.29582756    0.09060580   36.71486355
     atom   16 type  1   force =     0.03626463   -3.99066763   -0.50208409
     atom   17 type  2   force =    -1.02554524   -2.26417493  -37.21392400
     atom   18 type  2   force =     0.13372805    0.45921808   38.28577304
     atom   19 type  1   force =    -2.58287865    2.51254209   -0.60746806
     atom   20 type  2   force =    -0.20465774    0.21546819   38.27777256
     atom   21 type  1   force =    -0.15132130    0.20716024   -1.26626559
     atom   22 type  2   force =    -0.43981421    1.80031932  -38.21841494
     atom   23 type  2   force =     0.06107235   -0.54084442   38.05562001
     atom   24 type  1   force =     0.58491232   -0.92164235   -5.37446046
     atom   25 type  2   force =    -0.23953204    0.21279342  -38.80035633
     atom   26 type  2   force =     0.36412597    0.01845395   37.16132661
     atom   27 type  1   force =    -0.17857589   -0.78857384    2.23563090
     atom   28 type  2   force =     0.14008825   -1.00687934  -37.88007610
     atom   29 type  2   force =     0.28795967    0.35347113   37.10296550
     atom   30 type  1   force =     0.27505642    0.93832732    0.03592893
     atom   31 type  2   force =    -1.21546039   -0.05949704  -37.08590032
     atom   32 type  2   force =     0.42015337    0.03482016   38.31108636
     atom   33 type  1   force =    -0.43909497    0.86471489   -2.04137459
     atom   34 type  2   force =    -0.15502471    1.26698552  -39.01529343
     atom   35 type  2   force =     0.25888692   -0.43582339   37.49488744
     atom   36 type  3   force =     0.04478057    0.29316224   -8.01796974
     The core correction contribution to forces
     atom    1 type  1   force =     0.00000000    0.00000000    0.00000000
     atom    2 type  2   force =     0.00019601   -0.00018626    0.02073630
     atom    3 type  2   force =     0.00057488    0.00005756   -0.02085126
     atom    4 type  1   force =     0.00000000    0.00000000    0.00000000
     atom    5 type  2   force =    -0.00088978    0.00182850    0.01998727
     atom    6 type  2   force =     0.00063801   -0.00110391   -0.02085211
     atom    7 type  1   force =     0.00000000    0.00000000    0.00000000
     atom    8 type  2   force =    -0.00017656    0.00047533    0.02043132
     atom    9 type  2   force =    -0.00017458    0.00064326   -0.02097133
     atom   10 type  1   force =     0.00000000    0.00000000    0.00000000
     atom   11 type  2   force =    -0.00047554   -0.00062594    0.02067502
     atom   12 type  2   force =     0.00110438    0.00129655   -0.02071351
     atom   13 type  1   force =     0.00000000    0.00000000    0.00000000
     atom   14 type  2   force =    -0.00045851    0.00012252    0.01994098
     atom   15 type  2   force =     0.00068056    0.00041599   -0.02052914
     atom   16 type  1   force =     0.00000000    0.00000000    0.00000000
     atom   17 type  2   force =     0.00320655    0.01594916    0.00428792
     atom   18 type  2   force =     0.00002689   -0.00026883   -0.02119383
     atom   19 type  1   force =     0.00000000    0.00000000    0.00000000
     atom   20 type  2   force =     0.00010140    0.00086400   -0.02113330
     atom   21 type  1   force =     0.00000000    0.00000000    0.00000000
     atom   22 type  2   force =     0.00003384   -0.00052042    0.02051753
     atom   23 type  2   force =    -0.00045915    0.00126993   -0.02086631
     atom   24 type  1   force =     0.00000000    0.00000000    0.00000000
     atom   25 type  2   force =    -0.00052570   -0.00118637    0.01860045
     atom   26 type  2   force =    -0.00026438    0.00080742   -0.02092603
     atom   27 type  1   force =     0.00000000    0.00000000    0.00000000
     atom   28 type  2   force =    -0.00003906    0.00171953    0.02100158
     atom   29 type  2   force =    -0.00069960   -0.00053775   -0.02047901
     atom   30 type  1   force =     0.00000000    0.00000000    0.00000000
     atom   31 type  2   force =     0.00022395   -0.00010755    0.02038277
     atom   32 type  2   force =    -0.00014479    0.00085954   -0.02111066
     atom   33 type  1   force =     0.00000000    0.00000000    0.00000000
     atom   34 type  2   force =     0.00039678    0.00084077    0.02123049
     atom   35 type  2   force =    -0.00015226    0.00103513   -0.02101156
     atom   36 type  3   force =     0.00000000    0.00000000    0.00000000
     The Hubbard contrib.    to forces
     atom    1 type  1   force =     0.00000000    0.00000000    0.00000000
     atom    2 type  2   force =     0.00000000    0.00000000    0.00000000
     atom    3 type  2   force =     0.00000000    0.00000000    0.00000000
     atom    4 type  1   force =     0.00000000    0.00000000    0.00000000
     atom    5 type  2   force =     0.00000000    0.00000000    0.00000000
     atom    6 type  2   force =     0.00000000    0.00000000    0.00000000
     atom    7 type  1   force =     0.00000000    0.00000000    0.00000000
     atom    8 type  2   force =     0.00000000    0.00000000    0.00000000
     atom    9 type  2   force =     0.00000000    0.00000000    0.00000000
     atom   10 type  1   force =     0.00000000    0.00000000    0.00000000
     atom   11 type  2   force =     0.00000000    0.00000000    0.00000000
     atom   12 type  2   force =     0.00000000    0.00000000    0.00000000
     atom   13 type  1   force =     0.00000000    0.00000000    0.00000000
     atom   14 type  2   force =     0.00000000    0.00000000    0.00000000
     atom   15 type  2   force =     0.00000000    0.00000000    0.00000000
     atom   16 type  1   force =     0.00000000    0.00000000    0.00000000
     atom   17 type  2   force =     0.00000000    0.00000000    0.00000000
     atom   18 type  2   force =     0.00000000    0.00000000    0.00000000
     atom   19 type  1   force =     0.00000000    0.00000000    0.00000000
     atom   20 type  2   force =     0.00000000    0.00000000    0.00000000
     atom   21 type  1   force =     0.00000000    0.00000000    0.00000000
     atom   22 type  2   force =     0.00000000    0.00000000    0.00000000
     atom   23 type  2   force =     0.00000000    0.00000000    0.00000000
     atom   24 type  1   force =     0.00000000    0.00000000    0.00000000
     atom   25 type  2   force =     0.00000000    0.00000000    0.00000000
     atom   26 type  2   force =     0.00000000    0.00000000    0.00000000
     atom   27 type  1   force =     0.00000000    0.00000000    0.00000000
     atom   28 type  2   force =     0.00000000    0.00000000    0.00000000
     atom   29 type  2   force =     0.00000000    0.00000000    0.00000000
     atom   30 type  1   force =     0.00000000    0.00000000    0.00000000
     atom   31 type  2   force =     0.00000000    0.00000000    0.00000000
     atom   32 type  2   force =     0.00000000    0.00000000    0.00000000
     atom   33 type  1   force =     0.00000000    0.00000000    0.00000000
     atom   34 type  2   force =     0.00000000    0.00000000    0.00000000
     atom   35 type  2   force =     0.00000000    0.00000000    0.00000000
     atom   36 type  3   force =     0.00000000    0.00000000    0.00000000
     The SCF correction term to forces
     atom    1 type  1   force =    -0.00005824    0.00012319    0.00126517
     atom    2 type  2   force =     0.00010893    0.00001237    0.00060125
     atom    3 type  2   force =     0.00003967    0.00004676    0.00025070
     atom    4 type  1   force =     0.00007313   -0.00002023    0.00118491
     atom    5 type  2   force =    -0.00006716   -0.00002629    0.00053062
     atom    6 type  2   force =    -0.00000831    0.00000584    0.00027825
     atom    7 type  1   force =    -0.00000394   -0.00012434    0.00107974
     atom    8 type  2   force =    -0.00001661   -0.00005748    0.00051577
     atom    9 type  2   force =    -0.00003145   -0.00007099    0.00024276
     atom   10 type  1   force =     0.00000831    0.00012280    0.00128831
     atom   11 type  2   force =     0.00000435    0.00001834    0.00049325
     atom   12 type  2   force =    -0.00004999   -0.00003096    0.00026923
     atom   13 type  1   force =     0.00006444    0.00028320    0.00143347
     atom   14 type  2   force =    -0.00010858    0.00011441    0.00059369
     atom   15 type  2   force =     0.00005455    0.00002425    0.00026706
     atom   16 type  1   force =    -0.00035625   -0.00011591    0.00140954
     atom   17 type  2   force =     0.00001986    0.00008991    0.00034625
     atom   18 type  2   force =    -0.00000297    0.00010879    0.00031853
     atom   19 type  1   force =     0.00004591   -0.00026838    0.00112545
     atom   20 type  2   force =    -0.00001890   -0.00005676    0.00026981
     atom   21 type  1   force =    -0.00006543    0.00006205    0.00120800
     atom   22 type  2   force =    -0.00001140    0.00000605    0.00051263
     atom   23 type  2   force =     0.00001905   -0.00003046    0.00027006
     atom   24 type  1   force =     0.00002975    0.00005676    0.00132095
     atom   25 type  2   force =    -0.00000662    0.00007465    0.00054766
     atom   26 type  2   force =    -0.00003630    0.00003185    0.00029793
     atom   27 type  1   force =     0.00032523   -0.00010519    0.00139041
     atom   28 type  2   force =     0.00005501   -0.00005724    0.00057707
     atom   29 type  2   force =     0.00002132    0.00003504    0.00025782
     atom   30 type  1   force =     0.00002449   -0.00011694    0.00112199
     atom   31 type  2   force =     0.00006822   -0.00012415    0.00050090
     atom   32 type  2   force =     0.00005097   -0.00008374    0.00026790
     atom   33 type  1   force =     0.00006936    0.00007937    0.00127575
     atom   34 type  2   force =    -0.00001744    0.00016333    0.00050621
     atom   35 type  2   force =     0.00003521   -0.00000713    0.00026586
     atom   36 type  3   force =    -0.00000052    0.00000546    0.00006541

     Total force =     0.110998     Total SCF correction =     0.004874
     Energy error            =      1.8E-02 Ry
     Gradient error          =      5.5E-02 Ry/Bohr

     number of scf cycles    =   2
     number of bfgs steps    =   1

     energy             old  =   -2205.5159969282 Ry
     energy             new  =   -2205.5343419578 Ry

     CASE: energy            _new < energy            _old

     new trust radius        =       0.0787324095 bohr
     new conv_thr            =       0.0000000552 Ry


ATOMIC_POSITIONS (angstrom)
Mo            6.5843726096        1.7622558237        2.8252099415
S             8.1620286633        0.8276682555        4.4339059040
S             8.1794891496        0.8218744496        1.2705340282
Mo            8.1094509539        4.4990034316        2.7205251549
S             6.5034471994        3.7173048440        4.3327004721
S             6.5520742431        3.5225325920        1.1242032251
Mo            6.4922487668        7.2163737243        2.6658266745
S             8.0833812629        6.3392174191        4.2608685317
S             8.0954568535        6.3090899178        1.0957806283
Mo            8.1507851550        9.9131910725        2.8204333460
S             6.4993823834        8.9399719239        4.3737006501
S             6.6156295055        9.0489659346        1.1449640344
Mo            3.4312924904        1.7364925541        2.7392642788
S             4.9853387760        0.8157049021        4.3614734166
S             5.0467377993        0.8487840427        1.2155782440
Mo            4.9808814166        4.5201319904        2.6372627634
S             3.4146918238        3.6211036051        4.3397022514
S             3.4331492052        3.5408410517        1.0745828847
Mo            3.4674475941        7.2096995597        2.6288941133
S             4.9904054343        6.3187352241        1.0379762923
Mo            5.0059515746        9.9073367242        2.7449723153
S             3.4686892725        8.9409525578        4.3224075353
S             3.4074739839        9.0661817547        1.1049450107
Mo            0.2880579207        1.7441759066        2.8314214595
S             1.8682959288        0.8165887043        4.4094794693
S             1.8469057954        0.8529007805        1.2010064233
Mo            1.8549908534        4.4901953405        2.6705630309
S             0.2690102492        3.6537121952        4.3287602268
S             0.2360574936        3.5279277634        1.1673125108
Mo            0.2678276281        7.2234300414        2.6999149086
S             1.9040479059        6.3158371093        4.2406548954
S             1.8490994987        6.3160720966        1.0518381444
Mo            1.8581191507        9.9342881021        2.7650775237
S             0.2982807256        9.0430976727        4.3984453551
S             0.2683388281        9.0520235727        1.1656219968
H             3.1557622505        2.4959282144        5.3145322308



     Writing config-only to output data dir ./MoS2-V-O.save/
     NEW-OLD atomic charge density approx. for the potential

     negative rho (up, down):  1.468E-04 0.000E+00

     total cpu time spent up to now is      171.2 secs

     Self-consistent Calculation

     iteration #  1     ecut=    80.00 Ry     beta= 0.70
     Davidson diagonalization with overlap
     ethr =  1.00E-06,  avg # of iterations = 10.0

     negative rho (up, down):  7.172E-05 0.000E+00

     total cpu time spent up to now is      184.6 secs

     total energy              =   -2205.54852412 Ry
     estimated scf accuracy    <       0.00162236 Ry

     iteration #  2     ecut=    80.00 Ry     beta= 0.70
     Davidson diagonalization with overlap
     ethr =  5.28E-07,  avg # of iterations =  2.0

     negative rho (up, down):  4.469E-05 0.000E+00

     total cpu time spent up to now is      198.9 secs

     total energy              =   -2205.54855528 Ry
     estimated scf accuracy    <       0.00029134 Ry

     iteration #  3     ecut=    80.00 Ry     beta= 0.70
     Davidson diagonalization with overlap
     ethr =  9.49E-08,  avg # of iterations =  3.0

     negative rho (up, down):  3.363E-05 0.000E+00

     total cpu time spent up to now is      215.5 secs

     total energy              =   -2205.54857704 Ry
     estimated scf accuracy    <       0.00005996 Ry

     iteration #  4     ecut=    80.00 Ry     beta= 0.70
     Davidson diagonalization with overlap
     ethr =  1.95E-08,  avg # of iterations =  6.0

     negative rho (up, down):  3.127E-05 0.000E+00

     total cpu time spent up to now is      227.6 secs

     total energy              =   -2205.54858671 Ry
     estimated scf accuracy    <       0.00000879 Ry

     iteration #  5     ecut=    80.00 Ry     beta= 0.70
     Davidson diagonalization with overlap
     ethr =  2.86E-09,  avg # of iterations = 17.0

     negative rho (up, down):  3.240E-05 0.000E+00

     total cpu time spent up to now is      241.4 secs

     total energy              =   -2205.54858869 Ry
     estimated scf accuracy    <       0.00000328 Ry

     iteration #  6     ecut=    80.00 Ry     beta= 0.70
     Davidson diagonalization with overlap
     ethr =  1.07E-09,  avg # of iterations =  3.0

     negative rho (up, down):  3.728E-05 0.000E+00

     total cpu time spent up to now is      252.4 secs

     total energy              =   -2205.54858916 Ry
     estimated scf accuracy    <       0.00000080 Ry

     iteration #  7     ecut=    80.00 Ry     beta= 0.70
     Davidson diagonalization with overlap
     ethr =  2.60E-10,  avg # of iterations =  5.0

     negative rho (up, down):  4.929E-05 0.000E+00

     total cpu time spent up to now is      264.7 secs

     total energy              =   -2205.54858924 Ry
     estimated scf accuracy    <       0.00000031 Ry

     iteration #  8     ecut=    80.00 Ry     beta= 0.70
     Davidson diagonalization with overlap
     ethr =  1.01E-10,  avg # of iterations =  2.0

     negative rho (up, down):  8.322E-05 0.000E+00

     total cpu time spent up to now is      273.3 secs

     total energy              =   -2205.54858917 Ry
     estimated scf accuracy    <       0.00000012 Ry

     iteration #  9     ecut=    80.00 Ry     beta= 0.70
     Davidson diagonalization with overlap
     ethr =  4.02E-11,  avg # of iterations =  3.0

     negative rho (up, down):  1.380E-04 0.000E+00

     total cpu time spent up to now is      275.4 secs

     End of self-consistent calculation

          k = 0.0000 0.0000 0.0000 (105382 PWs)   bands (ev):

   -62.8919 -62.8402 -62.8336 -62.8260 -62.8044 -62.7937 -62.7862 -62.7713
   -62.7474 -62.6945 -62.6490 -62.6340 -37.1959 -37.1311 -37.1214 -37.1002
   -37.0982 -37.0809 -37.0673 -37.0471 -37.0374 -37.0291 -37.0194 -37.0103
   -37.0081 -36.9922 -36.9872 -36.9817 -36.9706 -36.9658 -36.9615 -36.9514
   -36.9250 -36.9079 -36.8939 -36.8894 -36.8741 -36.8528 -36.8394 -36.8383
   -36.8305 -36.8213 -36.8043 -36.7975 -36.7851 -36.7598 -36.6238 -36.6004
   -16.0842 -15.5432 -15.0939 -15.0529 -14.8808 -14.8165 -14.6855 -14.4352
   -14.4091 -14.3873 -14.3615 -14.3113 -14.2881 -14.2764 -14.1750 -14.1049
   -14.0804 -14.0733 -13.9959 -13.8578 -13.8029 -13.7932 -13.7674  -8.5993
    -7.5632  -7.3766  -7.2895  -7.2427  -7.2212  -7.1820  -7.1507  -7.0759
    -6.8010  -6.7580  -6.7332  -6.6449  -6.5692  -6.4780  -6.4440  -6.3992
    -6.2776  -6.1910  -6.1480  -5.9430  -5.9026  -5.8905  -5.8116  -5.7523
    -5.7399  -5.6818  -5.6608  -5.6156  -5.5860  -5.5306  -5.5107  -5.4623
    -5.3598  -5.3219  -5.1885  -5.0778  -5.0313  -4.9898  -4.9468  -4.9400
    -4.8974  -4.8059  -4.6414  -4.4964  -4.4258  -4.2904  -4.2641  -4.2104
    -4.1794  -4.0290  -4.0027  -3.8467  -3.7864  -3.7495  -3.7171  -3.6504
    -3.6317  -3.5800  -3.5209  -3.4947  -3.4473  -3.4375  -3.4064  -3.3511
    -3.3149  -3.1679  -3.1397  -2.8716  -2.8568  -2.7528  -2.7347  -2.6944
    -2.6655  -2.6500  -2.6378  -2.5709  -2.5391  -2.2400  -1.9928  -1.9721
    -1.8836  -0.9342  -0.6696  -0.5451  -0.1568  -0.1245  -0.0817  -0.0077
     0.0738   0.1711   0.2040   0.2878   0.3017   0.3236   0.4085   0.4843
     0.5361   0.5506   0.6023   0.6423   0.6581   0.7077   0.7349   0.7491
     0.8063   0.8387   0.8810   0.9154   0.9600   1.0228   1.0685   1.1415
     1.4291

     the Fermi energy is    -0.9349 ev

!    total energy              =   -2205.54858910 Ry
     estimated scf accuracy    <       0.00000002 Ry
     smearing contrib. (-TS)   =      -0.00576942 Ry
     internal energy E=F+TS    =   -2205.54281967 Ry

     The total energy is F=E-TS. E is the sum of the following terms:
     one-electron contribution =  -18046.26359043 Ry
     hartree contribution      =    9010.23765845 Ry
     xc contribution           =    -385.28934015 Ry
     ewald contribution        =    7215.77245246 Ry

     convergence has been achieved in   9 iterations

     negative rho (up, down):  1.380E-04 0.000E+00

     Forces acting on atoms (cartesian axes, Ry/au):

     atom    1 type  1   force =    -0.00307193   -0.00325782   -0.00445324
     atom    2 type  2   force =    -0.00426323    0.00617786   -0.00219110
     atom    3 type  2   force =    -0.00812856    0.00547493   -0.01167503
     atom    4 type  1   force =     0.00616846    0.00004737    0.00129048
     atom    5 type  2   force =     0.00377699   -0.00439533   -0.00961995
     atom    6 type  2   force =    -0.00034968    0.00597323    0.00535423
     atom    7 type  1   force =     0.00236454   -0.00071141    0.00154905
     atom    8 type  2   force =     0.00086281   -0.00211951    0.00851519
     atom    9 type  2   force =     0.00934891    0.00294672    0.00480928
     atom   10 type  1   force =    -0.00047053    0.00557692   -0.00037563
     atom   11 type  2   force =     0.00235511   -0.00086607   -0.00765497
     atom   12 type  2   force =    -0.00379202    0.00067571   -0.00098263
     atom   13 type  1   force =     0.00177517   -0.00503166   -0.00167114
     atom   14 type  2   force =     0.00309941   -0.00133247    0.00141602
     atom   15 type  2   force =    -0.00118568   -0.00208932   -0.01134549
     atom   16 type  1   force =    -0.00416124   -0.00141564    0.00713886
     atom   17 type  2   force =    -0.00527600   -0.02437929    0.02583265
     atom   18 type  2   force =    -0.00239785   -0.00105149    0.00982620
     atom   19 type  1   force =     0.00567406   -0.00385855    0.00275901
     atom   20 type  2   force =     0.00559189   -0.00628939   -0.00182797
     atom   21 type  1   force =    -0.00184425    0.00175838    0.00202556
     atom   22 type  2   force =     0.00032717   -0.00222447   -0.00128239
     atom   23 type  2   force =     0.00098593   -0.00156335    0.00204605
     atom   24 type  1   force =    -0.00294224   -0.00034865   -0.00286159
     atom   25 type  2   force =     0.00801707    0.00735777   -0.00612203
     atom   26 type  2   force =    -0.00792432   -0.00382564   -0.00961787
     atom   27 type  1   force =    -0.00003648   -0.00512320    0.01150035
     atom   28 type  2   force =    -0.00279715   -0.00246015   -0.00481391
     atom   29 type  2   force =     0.00413240    0.00205255   -0.00454207
     atom   30 type  1   force =    -0.00065099   -0.00260881    0.00567388
     atom   31 type  2   force =     0.00284884    0.00060432    0.00692793
     atom   32 type  2   force =    -0.00602170    0.00131528    0.00648910
     atom   33 type  1   force =     0.00077959    0.00141554    0.00534187
     atom   34 type  2   force =    -0.00096024   -0.02056564   -0.01467643
     atom   35 type  2   force =    -0.00376120    0.00626600    0.00417764
     atom   36 type  3   force =     0.00192693    0.04787527   -0.01695991
     The non-local contrib.  to forces
     atom    1 type  1   force =     0.00206849    0.02606073   -0.01358732
     atom    2 type  2   force =    -0.00352145   -0.00321554   -0.26815585
     atom    3 type  2   force =    -0.00963676   -0.00552348    0.26376335
     atom    4 type  1   force =     0.00206790    0.01377150    0.00679822
     atom    5 type  2   force =     0.01675376   -0.03379752   -0.24497107
     atom    6 type  2   force =    -0.00947902    0.00988246    0.26767582
     atom    7 type  1   force =    -0.02350810   -0.00935506   -0.01532198
     atom    8 type  2   force =     0.00477115   -0.00224144   -0.25889960
     atom    9 type  2   force =     0.00499140   -0.01155957    0.27316758
     atom   10 type  1   force =     0.00224535   -0.00080926   -0.00124780
     atom   11 type  2   force =     0.00983076    0.00697466   -0.26147369
     atom   12 type  2   force =    -0.01309959   -0.01533196    0.25911992
     atom   13 type  1   force =     0.00442641    0.01620624    0.00125383
     atom   14 type  2   force =     0.00739893   -0.01614030   -0.25280958
     atom   15 type  2   force =    -0.00669660   -0.00912512    0.25697693
     atom   16 type  1   force =    -0.01196717    0.03909540   -0.03172594
     atom   17 type  2   force =    -0.05597910   -0.27027607    0.01790550
     atom   18 type  2   force =    -0.00170325   -0.00423186    0.27538454
     atom   19 type  1   force =     0.02175217   -0.00343807   -0.01380177
     atom   20 type  2   force =     0.00051482   -0.02114707    0.26221697
     atom   21 type  1   force =     0.00085334    0.01845265    0.00252042
     atom   22 type  2   force =    -0.00261768    0.00241462   -0.25824381
     atom   23 type  2   force =     0.00664775   -0.01780927    0.26403893
     atom   24 type  1   force =     0.00242824    0.01306419   -0.01198617
     atom   25 type  2   force =     0.00635447    0.00328743   -0.23262588
     atom   26 type  2   force =     0.00151029   -0.01624269    0.26432335
     atom   27 type  1   force =     0.00410627    0.00378190   -0.00066867
     atom   28 type  2   force =     0.00052977   -0.02486482   -0.27406797
     atom   29 type  2   force =     0.00917991    0.00188203    0.26170354
     atom   30 type  1   force =    -0.00288675    0.02026439    0.00972059
     atom   31 type  2   force =    -0.00310601    0.00632172   -0.25681509
     atom   32 type  2   force =     0.00125199   -0.01680918    0.27662433
     atom   33 type  1   force =    -0.00639606   -0.00056421   -0.00221956
     atom   34 type  2   force =    -0.00358504   -0.01914155   -0.27767825
     atom   35 type  2   force =     0.00080294   -0.01275226    0.26605293
     atom   36 type  3   force =     0.00595925    0.03006085   -0.02605867
     The ionic contribution  to forces
     atom    1 type  1   force =     0.17730877    0.89251566    5.59973022
     atom    2 type  2   force =    -0.34715799    0.13183237   39.41831604
     atom    3 type  2   force =    -0.10110757    0.04107844  -36.36062813
     atom    4 type  1   force =    -0.29106873    0.61121096    0.74311663
     atom    5 type  2   force =    -0.88602771    1.54726181   38.43161744
     atom    6 type  2   force =     0.33322437   -0.48621014  -37.82508237
     atom    7 type  1   force =    -2.51557032   -2.79110569    2.43079431
     atom    8 type  2   force =    -1.07079522    0.11331280   37.59343786
     atom    9 type  2   force =     0.27593924   -0.08121325  -37.92284242
     atom   10 type  1   force =    -0.62374693   -0.48243698    5.16015169
     atom   11 type  2   force =    -0.45600457   -1.64821881   39.07608759
     atom   12 type  2   force =     0.33739883    0.57288812  -37.84868203
     atom   13 type  1   force =     0.42928205    1.01254931    0.46628888
     atom   14 type  2   force =     0.16443955   -0.17677928   38.52166187
     atom   15 type  2   force =     0.36373205   -0.07591371  -37.09334791
     atom   16 type  1   force =    -0.17878468    3.82405959    0.86800705
[...]
     atom   27 type  1   force =    -0.00655386    0.01759650   -0.00294876
     atom   28 type  2   force =     0.00654151   -0.01077989   -0.26047621
     atom   29 type  2   force =     0.00177588   -0.00834062    0.26650326
     atom   30 type  1   force =    -0.00470561    0.02421991    0.00731199
     atom   31 type  2   force =    -0.00575201   -0.00672443   -0.25710529
     atom   32 type  2   force =     0.00387372   -0.02322151    0.26753409
     atom   33 type  1   force =    -0.00491667   -0.00560781    0.00032065
     atom   34 type  2   force =     0.00234546   -0.00771569   -0.27107597
     atom   35 type  2   force =    -0.00091763   -0.01421727    0.26586719
     atom   36 type  3   force =     0.01577247    0.00022176   -0.05791076
     The ionic contribution  to forces
     atom    1 type  1   force =    -0.17812746    0.93167191    2.12331739
     atom    2 type  2   force =    -0.20787256    0.06938076   38.79450877
     atom    3 type  2   force =     0.04977036   -0.01435734  -37.55708195
     atom    4 type  1   force =    -0.95461185    0.67206468    0.87827413
     atom    5 type  2   force =    -0.84648104    1.28195188   38.00972930
     atom    6 type  2   force =     0.07413643   -0.21878244  -37.82063033
     atom    7 type  1   force =    -2.61655127   -2.81047493    1.66562707
     atom    8 type  2   force =    -1.41505548    0.08289130   38.12268382
     atom    9 type  2   force =     0.19810749   -0.06179694  -37.82373468
     atom   10 type  1   force =    -0.16225349   -0.31341531    2.78691937
     atom   11 type  2   force =    -0.41834556   -1.47138354   38.83641702
     atom   12 type  2   force =     0.12970750    0.35050698  -38.27511038
     atom   13 type  1   force =     0.41293059    0.52799597    2.97917058
     atom   14 type  2   force =     0.09633330   -0.03353974   38.67670624
     atom   15 type  2   force =    -0.08774146   -0.01448931  -37.52869604
     atom   16 type  1   force =     0.82837713    3.48184645    1.62418624
     atom   17 type  2   force =     1.41880458    1.16851782   36.23719718
     atom   18 type  2   force =    -0.10253793   -0.39562840  -37.85886458
     atom   19 type  1   force =     2.50735185   -1.59897478    3.38645619
     atom   20 type  2   force =     0.06252860   -0.04348772  -38.52935209
     atom   21 type  1   force =    -0.41296641   -0.38131823    1.27338088
     atom   22 type  2   force =     0.42983185   -1.43138521   38.52834463
     atom   23 type  2   force =    -0.24700899    0.19047987  -37.61812567
     atom   24 type  1   force =    -0.06660306    0.17705074    1.93893300
     atom   25 type  2   force =     0.02985708   -0.12387883   38.93343452
     atom   26 type  2   force =    -0.03107457   -0.09956672  -37.52042541
     atom   27 type  1   force =     0.28053082    0.66192777   -0.20729148
     atom   28 type  2   force =    -0.27438584    0.41956934   38.26629480
     atom   29 type  2   force =    -0.07129796   -0.17532257  -37.93945897
     atom   30 type  1   force =     0.12732914   -0.49176269    1.99613000
     atom   31 type  2   force =     1.12167368    0.37207410   38.19218877
     atom   32 type  2   force =    -0.13295196    0.18628441  -37.82522696
     atom   33 type  1   force =     0.58311588   -0.70420339    3.22600191
     atom   34 type  2   force =    -0.02071778   -0.46654434   38.86788627
     atom   35 type  2   force =     0.09410993    0.14104073  -37.44762951
     atom   36 type  3   force =    -0.19791155    0.13505773    8.60783997
     The local contribution  to forces
     atom    1 type  1   force =     0.17432716   -0.95343443   -2.11627162
     atom    2 type  2   force =     0.20963879   -0.06289318  -38.55008057
     atom    3 type  2   force =    -0.04774155    0.02136428   37.30990546
     atom    4 type  1   force =     0.95378718   -0.68588428   -0.88306827
     atom    5 type  2   force =     0.84172844   -1.26684771  -37.78688984
     atom    6 type  2   force =    -0.07236579    0.21976010   37.57456493
     atom    7 type  1   force =     2.63702379    2.81886307   -1.65995479
     atom    8 type  2   force =     1.40600666   -0.07933179  -37.87883416
     atom    9 type  2   force =    -0.19315932    0.07351590   37.57403976
     atom   10 type  1   force =     0.16355668    0.31112571   -2.78995438
     atom   11 type  2   force =     0.41205449    1.46536895  -38.59977227
     atom   12 type  2   force =    -0.12455905   -0.33968837   38.03666704
     atom   13 type  1   force =    -0.41865889   -0.53642478   -2.96361086
     atom   14 type  2   force =    -0.09056752    0.03649997  -38.43648356
     atom   15 type  2   force =     0.08830132    0.02309274   37.28598565
     atom   16 type  1   force =    -0.83079098   -3.53559520   -1.60496551
     atom   17 type  2   force =    -1.32127058   -1.15223437  -36.46801918
     atom   18 type  2   force =     0.10571617    0.39993590   37.60460519
     atom   19 type  1   force =    -2.54321124    1.60286928   -3.36133536
     atom   20 type  2   force =    -0.06182691    0.05775231   38.28866849
     atom   21 type  1   force =     0.40661459    0.36752476   -1.27278025
     atom   22 type  2   force =    -0.42618841    1.43427814  -38.28886818
     atom   23 type  2   force =     0.23645705   -0.17606608   37.37265207
     atom   24 type  1   force =     0.06892474   -0.19266828   -1.93732650
     atom   25 type  2   force =    -0.03640545    0.12549578  -38.69583837
     atom   26 type  2   force =     0.02777650    0.10959745   37.27135384
     atom   27 type  1   force =    -0.27336489   -0.68012640    0.21036569
     atom   28 type  2   force =     0.26944436   -0.40973045  -38.02627846
     atom   29 type  2   force =     0.07007949    0.18316758   37.69413648
     atom   30 type  1   force =    -0.12248138    0.46772649   -2.00325661
     atom   31 type  2   force =    -1.11614339   -0.36631234  -37.95454008
     atom   32 type  2   force =     0.13011591   -0.16363536   37.57707266
     atom   33 type  1   force =    -0.57866968    0.70998372   -3.22574333
     atom   34 type  2   force =     0.01843859    0.47452224  -38.61761398
     atom   35 type  2   force =    -0.09380151   -0.12770536   37.20284536
     atom   36 type  3   force =     0.18324982   -0.13549667   -8.55066356
     The core correction contribution to forces
     atom    1 type  1   force =     0.00000000    0.00000000    0.00000000
     atom    2 type  2   force =     0.00001588    0.00019620    0.02068386
     atom    3 type  2   force =     0.00012321    0.00021198   -0.02097365
     atom    4 type  1   force =     0.00000000    0.00000000    0.00000000
     atom    5 type  2   force =    -0.00029778    0.00078171    0.01969140
     atom    6 type  2   force =     0.00007666   -0.00018443   -0.02076245
     atom    7 type  1   force =     0.00000000    0.00000000    0.00000000
     atom    8 type  2   force =    -0.00069913    0.00055533    0.02063481
     atom    9 type  2   force =     0.00035822    0.00069159   -0.02088788
     atom   10 type  1   force =     0.00000000    0.00000000    0.00000000
     atom   11 type  2   force =    -0.00013321   -0.00067522    0.02047648
     atom   12 type  2   force =     0.00052765    0.00092009   -0.02067731
     atom   13 type  1   force =     0.00000000    0.00000000    0.00000000
     atom   14 type  2   force =     0.00053513   -0.00030575    0.02047864
     atom   15 type  2   force =     0.00001711    0.00038769   -0.02076719
     atom   16 type  1   force =     0.00000000    0.00000000    0.00000000
     atom   17 type  2   force =     0.00664985    0.00091255   -0.00921506
     atom   18 type  2   force =    -0.00001796   -0.00024635   -0.02123931
     atom   19 type  1   force =     0.00000000    0.00000000    0.00000000
     atom   20 type  2   force =     0.00020533    0.00066209   -0.02110775
     atom   21 type  1   force =     0.00000000    0.00000000    0.00000000
     atom   22 type  2   force =     0.00008478   -0.00010476    0.02045759
     atom   23 type  2   force =    -0.00078416    0.00085575   -0.02077215
     atom   24 type  1   force =     0.00000000    0.00000000    0.00000000
     atom   25 type  2   force =    -0.00056095   -0.00019510    0.02027413
     atom   26 type  2   force =    -0.00021182    0.00040181   -0.02108453
     atom   27 type  1   force =     0.00000000    0.00000000    0.00000000
     atom   28 type  2   force =    -0.00060126    0.00059720    0.02045611
     atom   29 type  2   force =    -0.00023252    0.00019436   -0.02086338
     atom   30 type  1   force =     0.00000000    0.00000000    0.00000000
     atom   31 type  2   force =     0.00018225    0.00086925    0.02015473
     atom   32 type  2   force =    -0.00032056    0.00139467   -0.02085053
     atom   33 type  1   force =     0.00000000    0.00000000    0.00000000
     atom   34 type  2   force =    -0.00021834    0.00023888    0.02107429
     atom   35 type  2   force =     0.00002073    0.00078939   -0.02091263
     atom   36 type  3   force =     0.00000000    0.00000000    0.00000000
     The Hubbard contrib.    to forces
     atom    1 type  1   force =     0.00000000    0.00000000    0.00000000
     atom    2 type  2   force =     0.00000000    0.00000000    0.00000000
     atom    3 type  2   force =     0.00000000    0.00000000    0.00000000
     atom    4 type  1   force =     0.00000000    0.00000000    0.00000000
     atom    5 type  2   force =     0.00000000    0.00000000    0.00000000
     atom    6 type  2   force =     0.00000000    0.00000000    0.00000000
     atom    7 type  1   force =     0.00000000    0.00000000    0.00000000
     atom    8 type  2   force =     0.00000000    0.00000000    0.00000000
     atom    9 type  2   force =     0.00000000    0.00000000    0.00000000
     atom   10 type  1   force =     0.00000000    0.00000000    0.00000000
     atom   11 type  2   force =     0.00000000    0.00000000    0.00000000
     atom   12 type  2   force =     0.00000000    0.00000000    0.00000000
     atom   13 type  1   force =     0.00000000    0.00000000    0.00000000
     atom   14 type  2   force =     0.00000000    0.00000000    0.00000000
     atom   15 type  2   force =     0.00000000    0.00000000    0.00000000
     atom   16 type  1   force =     0.00000000    0.00000000    0.00000000
     atom   17 type  2   force =     0.00000000    0.00000000    0.00000000
     atom   18 type  2   force =     0.00000000    0.00000000    0.00000000
     atom   19 type  1   force =     0.00000000    0.00000000    0.00000000
     atom   20 type  2   force =     0.00000000    0.00000000    0.00000000
     atom   21 type  1   force =     0.00000000    0.00000000    0.00000000
     atom   22 type  2   force =     0.00000000    0.00000000    0.00000000
     atom   23 type  2   force =     0.00000000    0.00000000    0.00000000
     atom   24 type  1   force =     0.00000000    0.00000000    0.00000000
     atom   25 type  2   force =     0.00000000    0.00000000    0.00000000
     atom   26 type  2   force =     0.00000000    0.00000000    0.00000000
     atom   27 type  1   force =     0.00000000    0.00000000    0.00000000
     atom   28 type  2   force =     0.00000000    0.00000000    0.00000000
     atom   29 type  2   force =     0.00000000    0.00000000    0.00000000
     atom   30 type  1   force =     0.00000000    0.00000000    0.00000000
     atom   31 type  2   force =     0.00000000    0.00000000    0.00000000
     atom   32 type  2   force =     0.00000000    0.00000000    0.00000000
     atom   33 type  1   force =     0.00000000    0.00000000    0.00000000
     atom   34 type  2   force =     0.00000000    0.00000000    0.00000000
     atom   35 type  2   force =     0.00000000    0.00000000    0.00000000
     atom   36 type  3   force =     0.00000000    0.00000000    0.00000000
     The SCF correction term to forces
     atom    1 type  1   force =     0.00003431   -0.00001143   -0.00008073
     atom    2 type  2   force =    -0.00000383    0.00001843   -0.00005155
     atom    3 type  2   force =     0.00000294    0.00000030    0.00000089
     atom    4 type  1   force =    -0.00001374   -0.00002846   -0.00002921
     atom    5 type  2   force =     0.00000686    0.00001060   -0.00004033
     atom    6 type  2   force =    -0.00000596    0.00000493   -0.00000270
     atom    7 type  1   force =    -0.00003746   -0.00005158   -0.00008368
     atom    8 type  2   force =    -0.00000670   -0.00001701   -0.00002535
     atom    9 type  2   force =    -0.00001442   -0.00000733   -0.00000834
     atom   10 type  1   force =    -0.00000229    0.00006392   -0.00011082
     atom   11 type  2   force =    -0.00000480    0.00000177   -0.00003857
     atom   12 type  2   force =     0.00000207    0.00000883   -0.00000356
     atom   13 type  1   force =     0.00001938    0.00000071   -0.00014422
     atom   14 type  2   force =     0.00000820    0.00000070   -0.00005476
     atom   15 type  2   force =    -0.00001446    0.00000935   -0.00000728
     atom   16 type  1   force =     0.00001014    0.00000332   -0.00007334
     atom   17 type  2   force =     0.00000974    0.00000935   -0.00005148
     atom   18 type  2   force =    -0.00000388   -0.00001267   -0.00002558
     atom   19 type  1   force =     0.00002094   -0.00001848   -0.00004713
     atom   20 type  2   force =     0.00000594   -0.00001745    0.00000075
     atom   21 type  1   force =     0.00001298    0.00005722   -0.00009458
     atom   22 type  2   force =     0.00000522   -0.00000942   -0.00003061
     atom   23 type  2   force =     0.00000093    0.00000922   -0.00001368
     atom   24 type  1   force =    -0.00000822    0.00001743   -0.00009751
     atom   25 type  2   force =    -0.00001473    0.00000320   -0.00005052
     atom   26 type  2   force =     0.00000483    0.00001664   -0.00001476
     atom   27 type  1   force =    -0.00000435   -0.00004346   -0.00007344
     atom   28 type  2   force =    -0.00001416   -0.00000404   -0.00003912
     atom   29 type  2   force =     0.00000982   -0.00001895   -0.00001148
     atom   30 type  1   force =    -0.00001239   -0.00002165   -0.00005685
     atom   31 type  2   force =     0.00001278   -0.00001115   -0.00003403
     atom   32 type  2   force =     0.00001513   -0.00001223   -0.00000967
     atom   33 type  1   force =    -0.00000248    0.00006102   -0.00010416
     atom   34 type  2   force =    -0.00000194    0.00000381   -0.00003867
     atom   35 type  2   force =    -0.00000138    0.00001466   -0.00000694
     atom   36 type  3   force =     0.00000011    0.00000175   -0.00000445

     Total force =     0.005531     Total SCF correction =     0.000375
     Energy error            =      6.3E-05 Ry
     Gradient error          =      1.6E-03 Ry/Bohr

     bfgs converged in  28 scf cycles and  27 bfgs steps
     (criteria: energy <  1.0E-04 Ry, force <  1.0E-02 Ry/Bohr)

     End of BFGS Geometry Optimization

     Final energy             =   -2205.5946514045 Ry

     File ./MoS2-V-O.bfgs deleted, as requested
Begin final coordinates

ATOMIC_POSITIONS (angstrom)
Mo            6.5647275735        1.7279751227        2.7523711535
S             8.1384090423        0.8255157828        4.3616666111
S             8.1493924606        0.8148771847        1.1702768375
Mo            8.1304849032        4.4640504386        2.7182051971
S             6.5197942406        3.6385753958        4.2907834117
S             6.5559775978        3.5411479571        1.1159552014
Mo            6.5336304239        7.2028906760        2.6522353032
S             8.0811400596        6.2885926519        4.2983673200
S             8.1523030715        6.2892620841        1.1144787100
Mo            8.1457499447        9.9116697314        2.7641754554
S             6.5347640032        8.9315239590        4.3360320137
S             6.6047885131        9.0251826146        1.1117805543
Mo            3.4258966118        1.7009308850        2.7756237265
S             5.0167632827        0.7751805504        4.3519406881
S             4.9978361274        0.8082837421        1.1681964914
Mo            4.9681807172        4.5095680493        2.6567363789
S             3.4283982333        3.6215749550        4.2629171692
S             3.4141392406        3.5180058389        1.1249635503
Mo            3.5000892407        7.1303837018        2.6851403269
S             5.0169691222        6.2755729480        1.0502802554
Mo            5.0134506057        9.8787545805        2.7344293958
S             3.4848501862        8.9080338071        4.3332099565
S             3.4132564447        8.9895049762        1.1401817278
Mo            0.2744703619        1.7128259362        2.7616123692
S             1.8514134191        0.7993853231        4.3777059599
S             1.8597774503        0.7954431675        1.1753626940
Mo            1.8294007995        4.4601813123        2.7092319002
S             0.2487368988        3.5740580493        4.3177178596
S             0.2542122060        3.5270845406        1.1334227164
Mo            0.2723213300        7.1836253709        2.7383519447
S             1.9082426477        6.2735245036        4.3096683274
S             1.8558429613        6.2909022695        1.1185348520
Mo            1.8606120018        9.8952163439        2.7759778248
S             0.2683805726        8.9891775319        4.3598751545
S             0.2795109017        9.0167424853        1.1753274128
H             3.0706871482        3.6143663878        5.5976034203
End final coordinates



     Writing all to output data dir ./MoS2-V-O.save/
 
     init_run     :      2.50s CPU      2.66s WALL (       1 calls)
     electrons    :   2501.66s CPU   2735.72s WALL (      28 calls)
     update_pot   :     38.14s CPU     39.71s WALL (      27 calls)
     forces       :     38.94s CPU     41.58s WALL (      28 calls)

     Called by init_run:
     wfcinit      :      0.40s CPU      0.44s WALL (       1 calls)
     potinit      :      1.37s CPU      1.45s WALL (       1 calls)
     hinit0       :      0.17s CPU      0.18s WALL (       1 calls)

     Called by electrons:
     c_bands      :    299.43s CPU    302.59s WALL (     240 calls)
     sum_band     :     79.44s CPU     86.23s WALL (     240 calls)
     v_of_rho     :    104.53s CPU    119.39s WALL (     252 calls)
     newd         :     41.97s CPU     46.97s WALL (     252 calls)
     mix_rho      :   1988.98s CPU   2191.85s WALL (     240 calls)

     Called by c_bands:
     init_us_2    :      5.29s CPU      5.45s WALL (     481 calls)
     init_us_2:cp :      5.28s CPU      5.45s WALL (     481 calls)
     regterg      :    281.77s CPU    284.74s WALL (     240 calls)

     Called by *egterg:
     rdiaghg      :     23.05s CPU     23.22s WALL (    1293 calls)
     h_psi        :    160.84s CPU    162.12s WALL (    1337 calls)
     s_psi        :     21.42s CPU     21.49s WALL (    1337 calls)
     g_psi        :      1.07s CPU      1.09s WALL (    1096 calls)

     Called by h_psi:
     h_psi:calbec :     23.13s CPU     23.21s WALL (    1337 calls)
     vloc_psi     :    113.79s CPU    114.85s WALL (    1337 calls)
     add_vuspsi   :     21.39s CPU     21.50s WALL (    1337 calls)

     General routines
     calbec       :     33.55s CPU     33.67s WALL (    1689 calls)
     fft          :     70.74s CPU     81.70s WALL (   17011 calls)
     ffts         :    891.40s CPU   1087.57s WALL (  481044 calls)
     fftw         :     97.43s CPU     98.22s WALL (  146450 calls)
     interpolate  :      1.82s CPU      2.10s WALL (     252 calls)
 
     Parallel routines
 
     PWSCF        :  43m 6.98s CPU  47m 7.62s WALL

 
   This run was terminated on:  23:46:24   3Nov2023            

=------------------------------------------------------------------------------=
   JOB DONE.
=------------------------------------------------------------------------------=
