
     Program PWSCF v.7.2 starts on  4Nov2023 at  6:11:51 

     This program is part of the open-source Quantum ESPRESSO suite
     for quantum simulation of materials; please cite
         "P. Giannozzi et al., J. Phys.:Condens. Matter 21 395502 (2009);
         "P. Giannozzi et al., J. Phys.:Condens. Matter 29 465901 (2017);
         "P. Giannozzi et al., J. Chem. Phys. 152 154105 (2020);
          URL http://www.quantum-espresso.org", 
     in publications or presentations arising from this work. More details at
     http://www.quantum-espresso.org/quote

     Parallel version (MPI & OpenMP), running on      48 processor cores
     Number of MPI processes:                48
     Threads/MPI process:                     1

     MPI processes distributed on     1 nodes
     63915 MiB available memory on the printing compute node when the environment starts
 
     Waiting for input...
     Reading input from standard input
Warning: card &CELL ignored
Warning: card CELL_DYNAMICS = 'BFGS', ignored
Warning: card CELL_DOFREE = '2DXY' ignored
Warning: card / ignored

     Current dimensions of program PWSCF are:
     Max number of different atomic species (ntypx) = 10
     Max number of k-points (npk) =  40000
     Max angular momentum in pseudopotentials (lmaxx) =  4

     IMPORTANT: XC functional enforced from input :
     Exchange-correlation= RVV10
                           (   1   4  13   4  26   0   0)
     Any further DFT definition will be discarded
     Please, verify this is what you really want


     gamma-point specific algorithms are used
     signal trapping enabled: kill the code with -SIGUSR1 to stop cleanly the simulation 
 
     R & G space division:  proc/nbgrp/npool/nimage =      48
     Subspace diagonalization in iterative solution of the eigenvalue problem:
     one sub-group per band group will be used
     scalapack distributed-memory algorithm (size of sub-group:  2*  2 procs)

 
     Parallelization info
     --------------------
     sticks:   dense  smooth     PW     G-vecs:    dense   smooth      PW
     Min         243     194     47                49060    35090    4376
     Max         246     196     50                49086    35128    4410
     Sum       11735    9389   2349              2355467  1685513  210763
 
     Using Slab Decomposition
 


     bravais-lattice index     =            0
     lattice parameter (alat)  =      17.8707  a.u.
     unit-cell volume          =   17436.2743 (a.u.)^3
     number of atoms/cell      =           36
     number of atomic types    =            3
     number of electrons       =       307.00
     number of Kohn-Sham states=          185
     kinetic-energy cutoff     =      80.0000  Ry
     charge density cutoff     =     400.0000  Ry
     scf convergence threshold =      1.0E-06
     mixing beta               =       0.7000
     number of iterations used =            8  local-TF  mixing
     energy convergence thresh.=      1.0E-04
     force convergence thresh. =      1.0E-02
     Exchange-correlation= RVV10
                           (   1   4  13   4  26   0   0)
     nstep                     =          200


     celldm(1)=  17.870686  celldm(2)=   0.000000  celldm(3)=   0.000000
     celldm(4)=   0.000000  celldm(5)=   0.000000  celldm(6)=   0.000000

     crystal axes: (cart. coord. in units of alat)
               a(1) = (   1.000000   0.000000   0.000000 )  
               a(2) = (   0.000000   1.155671   0.000000 )  
               a(3) = (   0.000000   0.000000   2.643601 )  

     reciprocal axes: (cart. coord. in units 2 pi/alat)
               b(1) = (  1.000000  0.000000  0.000000 )  
               b(2) = (  0.000000  0.865298  0.000000 )  
               b(3) = (  0.000000  0.000000  0.378272 )  


     PseudoPot. # 1 for Mo read from file:
     ../pseudo/Mo_ONCV_PBE-1.0.oncvpsp.upf
     MD5 check sum: 1b5d28e075c9ccadda658a603575cd1f
     Pseudo is Norm-conserving, Zval = 14.0
     Generated using ONCVPSP code by D. R. Hamann
     Using radial grid of 1526 points,  6 beta functions with: 
                l(1) =   0
                l(2) =   0
                l(3) =   1
                l(4) =   1
                l(5) =   2
                l(6) =   2

     PseudoPot. # 2 for S  read from file:
     ../pseudo/s_pbe_v1.4.uspp.F.UPF
     MD5 check sum: 88d86576ff6df21479756cfb9bdac1df
     Pseudo is Ultrasoft + core correction, Zval =  6.0
     Generated by new atomic code, or converted to UPF format
     Using radial grid of  907 points,  6 beta functions with: 
                l(1) =   0
                l(2) =   0
                l(3) =   1
                l(4) =   1
                l(5) =   2
                l(6) =   2
     Q(r) pseudized with  8 coefficients,  rinner =    1.300   1.300   1.300
                                                       1.300   1.300

     PseudoPot. # 3 for H  read from file:
     ../pseudo/H_ONCV_PBE-1.0.oncvpsp.upf
     MD5 check sum: 1790becc920ee074925cf490c71280fe
     Pseudo is Norm-conserving, Zval =  1.0
     Generated using ONCVPSP code by D. R. Hamann
     Using radial grid of 1166 points,  2 beta functions with: 
                l(1) =   0
                l(2) =   0

     atomic species   valence    mass     pseudopotential
        Mo            14.00    95.94000     Mo( 1.00)
        S              6.00    32.06500     S ( 1.00)
        H              1.00     1.00794     H ( 1.00)

     No symmetry found



   Cartesian axes

     site n.     atom                  positions (alat units)
         1           Mo  tau(   1) = (   0.6952221   0.1890506   0.2985846  )
         2           S   tau(   2) = (   0.8646417   0.0856217   0.4689279  )
         3           S   tau(   3) = (   0.8663890   0.0857843   0.1351291  )
         4           Mo  tau(   4) = (   0.8560186   0.4753274   0.2873942  )
         5           S   tau(   5) = (   0.6873294   0.3936244   0.4596353  )
         6           S   tau(   6) = (   0.6929804   0.3713468   0.1185692  )
         7           Mo  tau(   7) = (   0.6862796   0.7633098   0.2825370  )
         8           S   tau(   8) = (   0.8545980   0.6708292   0.4486168  )
         9           S   tau(   9) = (   0.8545123   0.6666874   0.1146125  )
        10           Mo  tau(  10) = (   0.8629403   1.0471007   0.3006803  )
        11           S   tau(  11) = (   0.6868280   0.9456650   0.4634891  )
        12           S   tau(  12) = (   0.6998113   0.9568511   0.1205389  )
        13           Mo  tau(  13) = (   0.3618216   0.1847309   0.2935964  )
        14           S   tau(  14) = (   0.5260962   0.0863870   0.4600448  )
        15           S   tau(  15) = (   0.5348379   0.0894875   0.1297123  )
        16           Mo  tau(  16) = (   0.5265817   0.4772436   0.2784130  )
        17           S   tau(  17) = (   0.3624753   0.3882513   0.4525556  )
        18           S   tau(  18) = (   0.3635411   0.3752055   0.1119148  )
        19           Mo  tau(  19) = (   0.3652268   0.7630864   0.2781795  )
        20           S   tau(  20) = (   0.5269494   0.6690381   0.1096838  )
        21           Mo  tau(  21) = (   0.5300192   1.0470394   0.2900995  )
        22           S   tau(  22) = (   0.3670346   0.9457522   0.4574073  )
        23           S   tau(  23) = (   0.3604225   0.9585725   0.1159032  )
        24           Mo  tau(  24) = (   0.0313099   0.1847895   0.3013130  )
        25           S   tau(  25) = (   0.1956761   0.0838230   0.4650863  )
        26           S   tau(  26) = (   0.1967693   0.0903508   0.1278874  )
        27           Mo  tau(  27) = (   0.1967578   0.4753919   0.2813011  )
        28           S   tau(  28) = (   0.0287851   0.3864324   0.4586755  )
        29           S   tau(  29) = (   0.0244514   0.3729871   0.1239344  )
        30           Mo  tau(  30) = (   0.0286728   0.7631204   0.2856894  )
        31           S   tau(  31) = (   0.2011512   0.6675435   0.4465001  )
        32           S   tau(  32) = (   0.1969214   0.6672839   0.1104564  )
        33           Mo  tau(  33) = (   0.1950294   1.0511147   0.2932237  )
        34           S   tau(  34) = (   0.0312912   0.9612169   0.4667423  )
        35           S   tau(  35) = (   0.0292670   0.9563028   0.1216485  )
        36           H   tau(  36) = (   0.3333333   0.7704471   0.5792558  )

     number of k points=     1  Gaussian smearing, width (Ry)=  0.0100
                       cart. coord. in units 2pi/alat
        k(    1) = (   0.0000000   0.0000000   0.0000000), wk =   2.0000000

     Dense  grid:  1177734 G-vectors     FFT dimensions: ( 120, 135, 320)

     Smooth grid:   842757 G-vectors     FFT dimensions: ( 108, 120, 270)

     Estimated max dynamical RAM per process >     146.59 MB

     Estimated total dynamical RAM >       6.87 GB

     Initial potential from superposition of free atoms

     starting charge     306.9873, renormalised to     307.0000

     negative rho (up, down):  1.400E-04 0.000E+00


---------------------------------------------------------------------------------
Carrying out rVV10 run using the following parameters:
Nqs =      20    Nr_points =    1024   r_max =   100.000
b_value =  6.30000    beta =  0.00901
     q_mesh =  0.00010000  0.00030000  0.00058939  0.00100810
               0.00161396  0.00249058  0.00375900  0.00559430
               0.00824984  0.01209221  0.01765183  0.02569619
               0.03733578  0.05417739  0.07854596  0.11380545
               0.16482331  0.23864234  0.34545298  0.50000000

Gradients computed in Reciprocal space

---------------------------------------------------------------------------------


     Starting wfcs are  213 randomized atomic wfcs

     total cpu time spent up to now is        2.8 secs

     Self-consistent Calculation

     iteration #  1     ecut=    80.00 Ry     beta= 0.70
     Davidson diagonalization with overlap
     ethr =  1.00E-02,  avg # of iterations =  2.0

     Threshold (ethr) on eigenvalues was too large:
     Diagonalizing with lowered threshold

     Davidson diagonalization with overlap
     ethr =  3.95E-04,  avg # of iterations =  4.0

     negative rho (up, down):  1.313E-08 0.000E+00

     total cpu time spent up to now is       26.3 secs

     total energy              =   -2205.53622932 Ry
     estimated scf accuracy    <       1.50169600 Ry

     iteration #  2     ecut=    80.00 Ry     beta= 0.70
     Davidson diagonalization with overlap
     ethr =  4.89E-04,  avg # of iterations =  3.0

     total cpu time spent up to now is       28.9 secs

     total energy              =   -2205.44911303 Ry
     estimated scf accuracy    <       0.55619887 Ry

     iteration #  3     ecut=    80.00 Ry     beta= 0.70
     Davidson diagonalization with overlap
     ethr =  1.81E-04,  avg # of iterations =  2.0

     total cpu time spent up to now is       31.4 secs

     total energy              =   -2205.47025875 Ry
     estimated scf accuracy    <       0.15191820 Ry

     iteration #  4     ecut=    80.00 Ry     beta= 0.70
     Davidson diagonalization with overlap
     ethr =  4.95E-05,  avg # of iterations = 10.0

     total cpu time spent up to now is       34.4 secs

     total energy              =   -2205.49104742 Ry
     estimated scf accuracy    <       0.02678266 Ry

     iteration #  5     ecut=    80.00 Ry     beta= 0.70
     Davidson diagonalization with overlap
     ethr =  8.72E-06,  avg # of iterations = 11.0

     total cpu time spent up to now is       37.0 secs

     total energy              =   -2205.49028335 Ry
     estimated scf accuracy    <       0.01563962 Ry

     iteration #  6     ecut=    80.00 Ry     beta= 0.70
     Davidson diagonalization with overlap
     ethr =  5.09E-06,  avg # of iterations =  2.0

     total cpu time spent up to now is       39.4 secs

     total energy              =   -2205.48960979 Ry
     estimated scf accuracy    <       0.01113578 Ry

     iteration #  7     ecut=    80.00 Ry     beta= 0.70
     Davidson diagonalization with overlap
     ethr =  3.63E-06,  avg # of iterations =  1.0

     negative rho (up, down):  1.431E-05 0.000E+00

     total cpu time spent up to now is       44.0 secs

     total energy              =   -2205.48786760 Ry
     estimated scf accuracy    <       0.00681556 Ry

     iteration #  8     ecut=    80.00 Ry     beta= 0.70
     Davidson diagonalization with overlap
     ethr =  2.22E-06,  avg # of iterations =  2.0

     negative rho (up, down):  9.163E-03 0.000E+00

     total cpu time spent up to now is       48.6 secs

     total energy              =   -2205.48786210 Ry
     estimated scf accuracy    <       0.00344373 Ry

     iteration #  9     ecut=    80.00 Ry     beta= 0.70
     Davidson diagonalization with overlap
     ethr =  1.12E-06,  avg # of iterations =  2.0

     negative rho (up, down):  1.985E-02 0.000E+00

     total cpu time spent up to now is       53.3 secs

     total energy              =   -2205.48757631 Ry
     estimated scf accuracy    <       0.00209192 Ry

     iteration # 10     ecut=    80.00 Ry     beta= 0.70
     Davidson diagonalization with overlap
     ethr =  6.81E-07,  avg # of iterations =  2.0

     negative rho (up, down):  2.896E-02 0.000E+00

     total cpu time spent up to now is       57.4 secs

     total energy              =   -2205.48787505 Ry
     estimated scf accuracy    <       0.00094652 Ry

     iteration # 11     ecut=    80.00 Ry     beta= 0.70
     Davidson diagonalization with overlap
     ethr =  3.08E-07,  avg # of iterations =  2.0

     negative rho (up, down):  1.508E-02 0.000E+00

     total cpu time spent up to now is       61.8 secs

     total energy              =   -2205.48785025 Ry
     estimated scf accuracy    <       0.00027428 Ry

     iteration # 12     ecut=    80.00 Ry     beta= 0.70
     Davidson diagonalization with overlap
     c_bands:  1 eigenvalues not converged
     ethr =  8.93E-08,  avg # of iterations = 20.0

     negative rho (up, down):  4.347E-03 0.000E+00

     total cpu time spent up to now is       71.3 secs

     total energy              =   -2205.48795555 Ry
     estimated scf accuracy    <       0.00003098 Ry

     iteration # 13     ecut=    80.00 Ry     beta= 0.70
     Davidson diagonalization with overlap
     c_bands:  1 eigenvalues not converged
     ethr =  1.01E-08,  avg # of iterations = 20.0

     negative rho (up, down):  1.038E-03 0.000E+00

     total cpu time spent up to now is       79.7 secs

     total energy              =   -2205.48796495 Ry
     estimated scf accuracy    <       0.00000368 Ry

     iteration # 14     ecut=    80.00 Ry     beta= 0.70
     Davidson diagonalization with overlap
     ethr =  1.20E-09,  avg # of iterations =  4.0

     negative rho (up, down):  1.363E-04 0.000E+00

     total cpu time spent up to now is       82.2 secs

     End of self-consistent calculation

          k = 0.0000 0.0000 0.0000 (105382 PWs)   bands (ev):

   -62.9091 -62.8983 -62.8911 -62.8736 -62.8622 -62.8533 -62.8488 -62.8432
   -62.8409 -62.8301 -62.8072 -62.7419 -37.2592 -37.1961 -37.1726 -37.1690
   -37.1617 -37.1315 -37.1121 -37.1083 -37.0979 -37.0943 -37.0913 -37.0727
   -37.0637 -37.0616 -37.0484 -37.0423 -37.0386 -37.0353 -37.0307 -37.0198
   -37.0066 -36.9974 -36.9891 -36.9685 -36.9581 -36.9509 -36.9383 -36.9283
   -36.9163 -36.9035 -36.8851 -36.8784 -36.8735 -36.8315 -36.7940 -36.7475
   -16.0210 -15.2391 -15.2048 -15.0486 -14.9325 -14.8445 -14.6032 -14.5660
   -14.4727 -14.4424 -14.4139 -14.3645 -14.3476 -14.3180 -14.1949 -14.1684
   -14.1458 -14.1185 -14.0595 -13.9290 -13.8733 -13.8567 -13.8267  -7.8308
    -7.5689  -7.4285  -7.3305  -7.2874  -7.2286  -7.2218  -7.1540  -7.0168
    -6.8710  -6.8168  -6.7901  -6.7493  -6.6203  -6.5137  -6.4728  -6.4344
    -6.3329  -6.2905  -6.0672  -5.9624  -5.9416  -5.9379  -5.8619  -5.7932
    -5.7811  -5.7343  -5.7013  -5.6856  -5.6504  -5.5625  -5.5486  -5.5226
    -5.4861  -5.4423  -5.1984  -5.1789  -5.1129  -5.0271  -5.0139  -4.9662
    -4.9276  -4.8646  -4.7409  -4.5675  -4.3770  -4.3364  -4.3089  -4.2599
    -4.2451  -4.1097  -4.0307  -3.8949  -3.8462  -3.8017  -3.7717  -3.7132
    -3.6847  -3.5903  -3.5609  -3.5383  -3.5020  -3.4859  -3.4604  -3.4097
    -3.3857  -3.2363  -3.1562  -2.9290  -2.9058  -2.8410  -2.8033  -2.7517
    -2.7459  -2.6848  -2.6763  -2.6574  -2.6058  -2.3433  -2.0400  -2.0176
    -1.9618  -1.0587  -0.8482  -0.7559  -0.2083  -0.1617  -0.1353  -0.0617
     0.0098   0.1087   0.1662   0.2062   0.2396   0.2501   0.3199   0.3948
     0.4637   0.4833   0.5026   0.5689   0.5726   0.6326   0.6839   0.7226
     0.7427   0.7817   0.8263   0.8741   0.9071   0.9503   0.9707   1.0536
     1.3659

     the Fermi energy is    -1.0621 ev

!    total energy              =   -2205.48796720 Ry
     estimated scf accuracy    <       0.00000044 Ry
     smearing contrib. (-TS)   =      -0.00615091 Ry
     internal energy E=F+TS    =   -2205.48181629 Ry

     The total energy is F=E-TS. E is the sum of the following terms:
     one-electron contribution =  -18040.73915927 Ry
     hartree contribution      =    9006.83978931 Ry
     xc contribution           =    -385.17832375 Ry
     ewald contribution        =    7213.59587742 Ry

     convergence has been achieved in  14 iterations

     negative rho (up, down):  1.363E-04 0.000E+00

     Forces acting on atoms (cartesian axes, Ry/au):

     atom    1 type  1   force =     0.01369929   -0.02391144    0.00531180
     atom    2 type  2   force =    -0.01476625    0.01711800    0.00084908
     atom    3 type  2   force =    -0.01177693    0.00891998   -0.00294828
     atom    4 type  1   force =     0.00561978    0.00503961   -0.00011976
     atom    5 type  2   force =    -0.00107990   -0.00605415   -0.00701944
     atom    6 type  2   force =     0.00109956    0.01073588   -0.00011237
     atom    7 type  1   force =     0.00394051   -0.01461331   -0.00703060
     atom    8 type  2   force =     0.00039302   -0.00447209    0.01724686
     atom    9 type  2   force =     0.01196509    0.00646361    0.01107708
     atom   10 type  1   force =    -0.01153280    0.01150559   -0.02658358
     atom   11 type  2   force =     0.00765371   -0.00159776   -0.00693407
     atom   12 type  2   force =    -0.00211283   -0.00002911    0.00656560
     atom   13 type  1   force =     0.00619452    0.00276474   -0.00709520
     atom   14 type  2   force =     0.00790675    0.00026202    0.01330364
     atom   15 type  2   force =    -0.01176621    0.00314944   -0.00874584
     atom   16 type  1   force =    -0.00160349    0.01019256    0.00351578
     atom   17 type  2   force =     0.00696284   -0.00242500    0.00285460
     atom   18 type  2   force =    -0.00386516   -0.00571952    0.01378260
     atom   19 type  1   force =     0.00636988   -0.00257497   -0.02880157
     atom   20 type  2   force =     0.00377376   -0.00523951   -0.00030539
     atom   21 type  1   force =    -0.00046584    0.00714105   -0.00708121
     atom   22 type  2   force =    -0.00628049   -0.02007294    0.01693481
     atom   23 type  2   force =    -0.00127998    0.00120948    0.00827655
     atom   24 type  1   force =    -0.01052054   -0.00385345   -0.02146938
     atom   25 type  2   force =     0.01679445    0.01912537    0.00726167
     atom   26 type  2   force =    -0.01157190   -0.00061415   -0.00377046
     atom   27 type  1   force =     0.00073661   -0.00516237    0.00081974
     atom   28 type  2   force =    -0.00017330   -0.00168146   -0.00449928
     atom   29 type  2   force =     0.00422250   -0.00123740   -0.00229830
     atom   30 type  1   force =    -0.00120583    0.01110350   -0.00489754
     atom   31 type  2   force =     0.01557222    0.01156935    0.04168140
     atom   32 type  2   force =    -0.00897154    0.00625997    0.00665083
     atom   33 type  1   force =     0.01441497   -0.00591165   -0.00893437
     atom   34 type  2   force =    -0.00048020   -0.04119740   -0.00856304
     atom   35 type  2   force =    -0.00731385    0.00659496    0.01493758
     atom   36 type  3   force =    -0.02055243    0.00721257   -0.01385993
     The non-local contrib.  to forces
     atom    1 type  1   force =    -0.00062671    0.03077400   -0.01166506
     atom    2 type  2   force =    -0.01078880    0.00298418   -0.27041773
     atom    3 type  2   force =    -0.01480859   -0.00205589    0.27077697
     atom    4 type  1   force =     0.00007603    0.00259897    0.00657881
     atom    5 type  2   force =     0.00535427   -0.03157746   -0.25262691
     atom    6 type  2   force =    -0.00211508    0.01249629    0.26174790
     atom    7 type  1   force =    -0.01855106    0.00184733   -0.01950068
     atom    8 type  2   force =     0.00157722   -0.00348600   -0.25565289
     atom    9 type  2   force =     0.00630333   -0.00788094    0.27814239
     atom   10 type  1   force =     0.00527949    0.00266919    0.00036124
     atom   11 type  2   force =     0.01589750    0.00205543   -0.25835709
     atom   12 type  2   force =    -0.01381236   -0.01565126    0.26254826
     atom   13 type  1   force =    -0.00235216    0.02135414   -0.00723348
     atom   14 type  2   force =     0.01189898   -0.00892127   -0.26237889
     atom   15 type  2   force =    -0.01314289   -0.00585759    0.26083279
     atom   16 type  1   force =     0.00019032    0.02564370   -0.03027361
     atom   17 type  2   force =     0.00388139   -0.02918331   -0.24963814
     atom   18 type  2   force =    -0.00592884   -0.00172898    0.27314707
     atom   19 type  1   force =     0.01421061   -0.00359979   -0.00324951
     atom   20 type  2   force =     0.00135614   -0.02216392    0.26570479
     atom   21 type  1   force =    -0.00434743    0.02562818    0.00393262
     atom   22 type  2   force =    -0.02494898   -0.07561041   -0.16284976
     atom   23 type  2   force =     0.00623669   -0.01596928    0.26922391
     atom   24 type  1   force =     0.00594651    0.01481461   -0.01059721
     atom   25 type  2   force =     0.01039091    0.00635677   -0.26014506
     atom   26 type  2   force =    -0.00255266   -0.01348501    0.26417225
     atom   27 type  1   force =    -0.00079865    0.01110570    0.00162934
     atom   28 type  2   force =    -0.00678514   -0.02375499   -0.27423766
     atom   29 type  2   force =     0.00729965    0.00189104    0.26360514
     atom   30 type  1   force =     0.00402985    0.01483930    0.00675243
     atom   31 type  2   force =     0.06349475    0.07292214   -0.14141414
     atom   32 type  2   force =    -0.00238923   -0.00854252    0.27612731
     atom   33 type  1   force =    -0.00406609    0.00430111    0.00488727
     atom   34 type  2   force =    -0.00025200   -0.03850693   -0.27368436
     atom   35 type  2   force =     0.00102236   -0.01403229    0.26939734
     atom   36 type  3   force =    -0.00404238    0.00192019   -0.00789380
     The ionic contribution  to forces
     atom    1 type  1   force =     0.42261759    0.22759429    5.70423564
     atom    2 type  2   force =    -0.67000767    0.43414429   39.28335283
     atom    3 type  2   force =    -0.16621702    0.02761274  -36.07548425
     atom    4 type  1   force =     0.07744219    0.48538520    0.63466829
     atom    5 type  2   force =    -0.92301244    1.42846019   38.73832078
     atom    6 type  2   force =     0.35641311   -0.52087252  -38.02376166
     atom    7 type  1   force =    -2.43661826   -2.77946986    2.39629926
     atom    8 type  2   force =    -1.00531938   -0.00667056   37.35907028
     atom    9 type  2   force =     0.33789663   -0.04730256  -38.02190627
     atom   10 type  1   force =    -1.12077512   -0.21155667    5.62741621
     atom   11 type  2   force =    -0.43934635   -1.51512266   39.09757113
     atom   12 type  2   force =     0.46267537    0.71669371  -37.87425824
     atom   13 type  1   force =     0.48950710    0.99098396    2.82156386
     atom   14 type  2   force =     0.09644966    0.05403306   38.50754197
     atom   15 type  2   force =     0.16967641   -0.04672501  -36.80586590
     atom   16 type  1   force =     0.09761243    3.74806046    0.33056976
     atom   17 type  2   force =     0.82554962    1.33103216   37.88578859
     atom   18 type  2   force =    -0.15803603   -0.67822648  -38.58326911
     atom   19 type  1   force =     2.80934691   -2.46148846   -0.16619315
     atom   20 type  2   force =     0.26107623   -0.21728218  -38.54086837
     atom   21 type  1   force =     0.17962486    0.27193399    0.99611899
     atom   22 type  2   force =     0.57820075   -1.08012718   38.00638633
     atom   23 type  2   force =    -0.08101356    0.70918951  -38.36099509
     atom   24 type  1   force =    -0.59553237    1.14091955    5.83915485
     atom   25 type  2   force =     0.62524469    0.35486788   39.25550378
     atom   26 type  2   force =    -0.29833470    0.08317877  -37.33706442
     atom   27 type  1   force =    -0.07979765    0.16876798   -2.44067380
     atom   28 type  2   force =    -0.00184114    0.92774673   38.19355705
     atom   29 type  2   force =    -0.27950838   -0.45077082  -37.26763577
     atom   30 type  1   force =    -0.58040091   -0.90421164   -0.26939894
     atom   31 type  2   force =     0.73981953   -0.43997370   36.84617300
     atom   32 type  2   force =    -0.50782794   -0.02915113  -38.71044617
     atom   33 type  1   force =     0.67115536   -0.59029184    1.85641464
     atom   34 type  2   force =     0.07611247   -1.31408958   39.29629016
     atom   35 type  2   force =    -0.32744108    0.50548683  -37.84473944
     atom   36 type  3   force =     0.39460909   -0.31275843    7.64656318
     The local contribution  to forces
     atom    1 type  1   force =    -0.40829998   -0.28221828   -5.68785066
     atom    2 type  2   force =     0.66574470   -0.41984094  -39.03306182
     atom    3 type  2   force =     0.16855448   -0.01657754   35.82252289
     atom    4 type  1   force =    -0.07184227   -0.48288874   -0.64200520
     atom    5 type  2   force =     0.91713233   -1.40467290  -38.51344736
     atom    6 type  2   force =    -0.35349125    0.52032682   37.78264632
     atom    7 type  1   force =     2.45902312    2.76298549   -2.38420236
     atom    8 type  2   force =     1.00421939    0.00516360  -37.10699632
     atom    9 type  2   force =    -0.33216191    0.06111802   37.77584511
     atom   10 type  1   force =     1.10394724    0.22027782   -5.65474567
     atom   11 type  2   force =     0.43175783    1.51182254  -38.86702108
     atom   12 type  2   force =    -0.45218190   -0.70248537   37.63901869
     atom   13 type  1   force =    -0.48093206   -1.00950049   -2.82198629
     atom   14 type  2   force =    -0.09988510   -0.04487359  -38.25271263
     atom   15 type  2   force =    -0.16902921    0.05542327   36.55671309
     atom   16 type  1   force =    -0.09950843   -3.76359386   -0.29717804
     atom   17 type  2   force =    -0.82238972   -1.30569538  -37.65387342
     atom   18 type  2   force =     0.15996149    0.67480443   38.34481920
     atom   19 type  1   force =    -2.81726768    2.46257930    0.14033063
     atom   20 type  2   force =    -0.25868539    0.23334150   38.29597847
     atom   21 type  1   force =    -0.17577632   -0.29053145   -1.00750773
     atom   22 type  2   force =    -0.56066667    1.13204946  -37.84247651
     atom   23 type  2   force =     0.07396809   -0.69329964   38.12089633
     atom   24 type  1   force =     0.57899451   -1.15950332   -5.85056189
     atom   25 type  2   force =    -0.61863602   -0.34172846  -39.00899361
     atom   26 type  2   force =     0.28953589   -0.07100470   37.08988440
     atom   27 type  1   force =     0.08141038   -0.18503186    2.43936805
     atom   28 type  2   force =     0.00807984   -0.90730605  -37.94504779
     atom   29 type  2   force =     0.27699540    0.44830477   37.02220442
     atom   30 type  1   force =     0.57525773    0.90038648    0.25741518
     atom   31 type  2   force =    -0.78457257    0.38219394  -36.67817289
     atom   32 type  2   force =     0.50137415    0.04337759   38.46199953
     atom   33 type  1   force =    -0.65254734    0.57981976   -1.87055378
     atom   34 type  2   force =    -0.07657394    1.31012939  -39.05255124
     atom   35 type  2   force =     0.31938064   -0.48602705   37.61119024
     atom   36 type  3   force =    -0.41112024    0.31805312   -7.65257360
     The core correction contribution to forces
     atom    1 type  1   force =     0.00000000    0.00000000    0.00000000
     atom    2 type  2   force =     0.00027869   -0.00017543    0.02075094
     atom    3 type  2   force =     0.00066876    0.00000457   -0.02090585
     atom    4 type  1   force =     0.00000000    0.00000000    0.00000000
     atom    5 type  2   force =    -0.00056529    0.00175163    0.02036032
     atom    6 type  2   force =     0.00030247   -0.00118186   -0.02082646
     atom    7 type  1   force =     0.00000000    0.00000000    0.00000000
     atom    8 type  2   force =    -0.00002344    0.00049208    0.02046336
     atom    9 type  2   force =    -0.00007637    0.00046615   -0.02106509
     atom   10 type  1   force =     0.00000000    0.00000000    0.00000000
     atom   11 type  2   force =    -0.00071323   -0.00035847    0.02057370
     atom   12 type  2   force =     0.00120252    0.00136965   -0.02081498
     atom   13 type  1   force =     0.00000000    0.00000000    0.00000000
     atom   14 type  2   force =    -0.00059567   -0.00000123    0.02062161
     atom   15 type  2   force =     0.00071380    0.00036745   -0.02054996
     atom   16 type  1   force =     0.00000000    0.00000000    0.00000000
     atom   17 type  2   force =    -0.00007749    0.00149540    0.02023431
     atom   18 type  2   force =     0.00013840   -0.00055026   -0.02099891
     atom   19 type  1   force =     0.00000000    0.00000000    0.00000000
     atom   20 type  2   force =     0.00002004    0.00084844   -0.02120918
     atom   21 type  1   force =     0.00000000    0.00000000    0.00000000
     atom   22 type  2   force =     0.00108396    0.00366508    0.01562525
     atom   23 type  2   force =    -0.00052432    0.00126701   -0.02094620
     atom   24 type  1   force =     0.00000000    0.00000000    0.00000000
     atom   25 type  2   force =    -0.00016265   -0.00043765    0.02067224
     atom   26 type  2   force =    -0.00015374    0.00073121   -0.02089535
     atom   27 type  1   force =     0.00000000    0.00000000    0.00000000
     atom   28 type  2   force =     0.00038176    0.00170568    0.02093140
     atom   29 type  2   force =    -0.00059297   -0.00058196   -0.02059045
     atom   30 type  1   force =     0.00000000    0.00000000    0.00000000
     atom   31 type  2   force =    -0.00324424   -0.00358696    0.01479256
     atom   32 type  2   force =    -0.00011277    0.00055125   -0.02114791
     atom   33 type  1   force =     0.00000000    0.00000000    0.00000000
     atom   34 type  2   force =     0.00032829    0.00123753    0.02114494
     atom   35 type  2   force =    -0.00023123    0.00113896   -0.02100621
     atom   36 type  3   force =     0.00000000    0.00000000    0.00000000
     The Hubbard contrib.    to forces
     atom    1 type  1   force =     0.00000000    0.00000000    0.00000000
     atom    2 type  2   force =     0.00000000    0.00000000    0.00000000
     atom    3 type  2   force =     0.00000000    0.00000000    0.00000000
     atom    4 type  1   force =     0.00000000    0.00000000    0.00000000
     atom    5 type  2   force =     0.00000000    0.00000000    0.00000000
     atom    6 type  2   force =     0.00000000    0.00000000    0.00000000
     atom    7 type  1   force =     0.00000000    0.00000000    0.00000000
     atom    8 type  2   force =     0.00000000    0.00000000    0.00000000
     atom    9 type  2   force =     0.00000000    0.00000000    0.00000000
     atom   10 type  1   force =     0.00000000    0.00000000    0.00000000
     atom   11 type  2   force =     0.00000000    0.00000000    0.00000000
     atom   12 type  2   force =     0.00000000    0.00000000    0.00000000
     atom   13 type  1   force =     0.00000000    0.00000000    0.00000000
     atom   14 type  2   force =     0.00000000    0.00000000    0.00000000
     atom   15 type  2   force =     0.00000000    0.00000000    0.00000000
     atom   16 type  1   force =     0.00000000    0.00000000    0.00000000
     atom   17 type  2   force =     0.00000000    0.00000000    0.00000000
     atom   18 type  2   force =     0.00000000    0.00000000    0.00000000
     atom   19 type  1   force =     0.00000000    0.00000000    0.00000000
     atom   20 type  2   force =     0.00000000    0.00000000    0.00000000
     atom   21 type  1   force =     0.00000000    0.00000000    0.00000000
     atom   22 type  2   force =     0.00000000    0.00000000    0.00000000
     atom   23 type  2   force =     0.00000000    0.00000000    0.00000000
     atom   24 type  1   force =     0.00000000    0.00000000    0.00000000
     atom   25 type  2   force =     0.00000000    0.00000000    0.00000000
     atom   26 type  2   force =     0.00000000    0.00000000    0.00000000
     atom   27 type  1   force =     0.00000000    0.00000000    0.00000000
     atom   28 type  2   force =     0.00000000    0.00000000    0.00000000
     atom   29 type  2   force =     0.00000000    0.00000000    0.00000000
     atom   30 type  1   force =     0.00000000    0.00000000    0.00000000
     atom   31 type  2   force =     0.00000000    0.00000000    0.00000000
     atom   32 type  2   force =     0.00000000    0.00000000    0.00000000
     atom   33 type  1   force =     0.00000000    0.00000000    0.00000000
     atom   34 type  2   force =     0.00000000    0.00000000    0.00000000
     atom   35 type  2   force =     0.00000000    0.00000000    0.00000000
     atom   36 type  3   force =     0.00000000    0.00000000    0.00000000
     The SCF correction term to forces
     atom    1 type  1   force =     0.00000796   -0.00006589    0.00058368
     atom    2 type  2   force =     0.00000639    0.00000144    0.00021666
     atom    3 type  2   force =     0.00002502   -0.00006835    0.00013376
     atom    4 type  1   force =    -0.00005660   -0.00006028    0.00063015
     atom    5 type  2   force =     0.00001079   -0.00002004    0.00036554
     atom    6 type  2   force =    -0.00001011   -0.00003731    0.00007334
     atom    7 type  1   force =     0.00008627    0.00001928    0.00036499
     atom    8 type  2   force =    -0.00006120    0.00002435    0.00035424
     atom    9 type  2   force =     0.00000297    0.00005849    0.00005274
     atom   10 type  1   force =     0.00001516    0.00011079    0.00037644
     atom   11 type  2   force =     0.00005753    0.00000095    0.00029107
     atom   12 type  2   force =     0.00000310    0.00003972    0.00006366
     atom   13 type  1   force =    -0.00002879   -0.00007732    0.00055252
     atom   14 type  2   force =     0.00003845    0.00002060    0.00022339
     atom   15 type  2   force =     0.00001525   -0.00006313    0.00011594
     atom   16 type  1   force =     0.00010176    0.00007781    0.00038948
     atom   17 type  2   force =    -0.00000139   -0.00007831    0.00033505
     atom   18 type  2   force =    -0.00000061   -0.00002268    0.00007615
     atom   19 type  1   force =     0.00007961   -0.00007047    0.00030226
     atom   20 type  2   force =     0.00000631    0.00001220    0.00008070
     atom   21 type  1   force =     0.00003263    0.00010589    0.00036672
     atom   22 type  2   force =     0.00005002   -0.00005433    0.00024131
     atom   23 type  2   force =     0.00005270    0.00001744    0.00008940
     atom   24 type  1   force =     0.00007039   -0.00008873    0.00052666
     atom   25 type  2   force =    -0.00004292    0.00006240    0.00021611
     atom   26 type  2   force =    -0.00006713   -0.00003887    0.00012447
     atom   27 type  1   force =    -0.00007788   -0.00000863    0.00048796
     atom   28 type  2   force =    -0.00000906   -0.00007728    0.00028952
     atom   29 type  2   force =     0.00002837   -0.00008487    0.00011017
     atom   30 type  1   force =    -0.00009293    0.00008491    0.00032559
     atom   31 type  2   force =     0.00007431    0.00000949    0.00029467
     atom   32 type  2   force =    -0.00001618    0.00002034    0.00010987
     atom   33 type  1   force =    -0.00012740    0.00025488    0.00030930
     atom   34 type  2   force =    -0.00009544    0.00002774    0.00022927
     atom   35 type  2   force =    -0.00004496    0.00002406    0.00008745
     atom   36 type  3   force =     0.00000067   -0.00000675    0.00003609

     Total force =     0.116779     Total SCF correction =     0.001920

     BFGS Geometry Optimization
     Energy error            =      0.0E+00 Ry
     Gradient error          =      4.2E-02 Ry/Bohr

     number of scf cycles    =   1
     number of bfgs steps    =   0

     energy             new  =   -2205.4879671965 Ry

     new trust radius        =       0.0459748099 bohr
     new conv_thr            =       0.0000010000 Ry


ATOMIC_POSITIONS (angstrom)
Mo            6.5817977604        1.7751528430        2.8264539172
S             8.1688953756        0.8187624803        4.4349876638
S             8.1870010039        0.8159619973        1.2763232633
Mo            8.0981364271        4.4977237904        2.7177550182
S             6.4993377988        3.7192077702        4.3429461201
S             6.5539316615        3.5174187361        1.1212207628
Mo            6.4920669220        7.2107042513        2.6681640520
S             8.0819357034        6.3415044634        4.2515882064
S             8.0872492978        6.3081227111        1.0897247368
Mo            8.1545161531        9.9082689072        2.8293943351
S             6.4992177659        8.9420813180        4.3794361837
S             6.6168291355        9.0486958100        1.1433816690
Mo            3.4249376625        1.7484188898        2.7727165447
S             4.9793495639        0.8170798632        4.3575730767
S             5.0516073450        0.8479287211        1.2220303622
Mo            4.9789081495        4.5185716729        2.6347450187
S             3.4315262403        3.6703164310        4.2812201670
S             3.4358752246        3.5452020587        1.0656451207
Mo            3.4572325350        7.2149619211        2.6154357275
S             4.9852311820        6.3241596579        1.0370921256
Mo            5.0120174072        9.9053789312        2.7396537467
S             3.4676346271        8.9331291266        4.3345528259
S             3.4077518285        9.0656300149        1.1004480613
Mo            0.2905232586        1.7454703719        2.8380836011
S             1.8593494520        0.8028147192        4.4020521467
S             1.8546764485        0.8541009225        1.2074056142
Mo            1.8610811083        4.4929349549        2.6606311663
S             0.2721221432        3.6535090353        4.3352031834
S             0.2334656589        3.5265944245        1.1708016769
Mo            0.2705140557        7.2225218113        2.6991047605
S             1.9104787092        6.3189210714        4.2445009701
S             1.8574906817        6.3136564453        1.0480787487
Mo            1.8519747343        9.9370108435        2.7682183843
S             0.2956587908        9.0681971012        4.4093381008
S             0.2729010794        9.0470156173        1.1583054092
H             3.1413774540        7.2897500587        5.4705490695



     Writing config-only to output data dir ./MoS2-V-O.save/
     NEW-OLD atomic charge density approx. for the potential

     negative rho (up, down):  1.427E-04 0.000E+00

     total cpu time spent up to now is       85.7 secs

     Self-consistent Calculation

     iteration #  1     ecut=    80.00 Ry     beta= 0.70
     Davidson diagonalization with overlap
     ethr =  1.00E-06,  avg # of iterations = 10.0

     negative rho (up, down):  9.729E-05 0.000E+00

     total cpu time spent up to now is       98.3 secs

     total energy              =   -2205.49914596 Ry
     estimated scf accuracy    <       0.00119708 Ry

     iteration #  2     ecut=    80.00 Ry     beta= 0.70
     Davidson diagonalization with overlap
     ethr =  3.90E-07,  avg # of iterations =  3.0

     negative rho (up, down):  9.019E-05 0.000E+00

     total cpu time spent up to now is      112.2 secs

     total energy              =   -2205.49920693 Ry
     estimated scf accuracy    <       0.00024744 Ry

     iteration #  3     ecut=    80.00 Ry     beta= 0.70
     Davidson diagonalization with overlap
     ethr =  8.06E-08,  avg # of iterations =  2.0

     negative rho (up, down):  8.456E-05 0.000E+00

     total cpu time spent up to now is      131.4 secs

     total energy              =   -2205.49922927 Ry
     estimated scf accuracy    <       0.00005776 Ry

     iteration #  4     ecut=    80.00 Ry     beta= 0.70
     Davidson diagonalization with overlap
     ethr =  1.88E-08,  avg # of iterations =  6.0

     negative rho (up, down):  8.413E-05 0.000E+00

     total cpu time spent up to now is      144.5 secs

     total energy              =   -2205.49924104 Ry
     estimated scf accuracy    <       0.00000385 Ry

     iteration #  5     ecut=    80.00 Ry     beta= 0.70
     Davidson diagonalization with overlap
     ethr =  1.26E-09,  avg # of iterations = 15.0

     negative rho (up, down):  8.477E-05 0.000E+00

     total cpu time spent up to now is      160.8 secs

     total energy              =   -2205.49924270 Ry
     estimated scf accuracy    <       0.00000169 Ry

     iteration #  6     ecut=    80.00 Ry     beta= 0.70
     Davidson diagonalization with overlap
     ethr =  5.51E-10,  avg # of iterations =  2.0

     negative rho (up, down):  1.367E-04 0.000E+00

     total cpu time spent up to now is      163.0 secs

     End of self-consistent calculation

          k = 0.0000 0.0000 0.0000 (105382 PWs)   bands (ev):

   -62.9083 -62.8936 -62.8867 -62.8673 -62.8553 -62.8491 -62.8452 -62.8402
   -62.8370 -62.8279 -62.8046 -62.7288 -37.2539 -37.1893 -37.1672 -37.1620
   -37.1532 -37.1273 -37.1058 -37.1028 -37.0920 -37.0905 -37.0857 -37.0692
   -37.0577 -37.0547 -37.0421 -37.0372 -37.0340 -37.0303 -37.0263 -37.0163
   -37.0031 -36.9967 -36.9890 -36.9654 -36.9527 -36.9458 -36.9355 -36.9212
   -36.9117 -36.8972 -36.8816 -36.8728 -36.8571 -36.8279 -36.7911 -36.7432
   -16.0137 -15.2364 -15.1915 -15.0457 -14.9205 -14.8418 -14.5977 -14.5552
   -14.4551 -14.4400 -14.4153 -14.3595 -14.3475 -14.3172 -14.1838 -14.1612
   -14.1424 -14.1239 -14.0576 -13.9096 -13.8750 -13.8563 -13.8311  -7.8405
    -7.5635  -7.4298  -7.3189  -7.2684  -7.2298  -7.2212  -7.1571  -7.0219
    -6.8580  -6.8104  -6.7881  -6.7354  -6.6176  -6.5105  -6.4622  -6.4232
    -6.3328  -6.2865  -6.0677  -5.9531  -5.9342  -5.9233  -5.8547  -5.7906
    -5.7809  -5.7279  -5.7068  -5.6835  -5.6547  -5.5571  -5.5464  -5.5074
    -5.4746  -5.4140  -5.1923  -5.1668  -5.0974  -5.0185  -5.0093  -4.9695
    -4.9299  -4.8674  -4.7373  -4.5609  -4.3585  -4.3392  -4.2986  -4.2604
    -4.2515  -4.1158  -4.0332  -3.9006  -3.8300  -3.8017  -3.7623  -3.7050
    -3.6926  -3.5809  -3.5566  -3.5405  -3.5017  -3.4823  -3.4573  -3.4075
    -3.3822  -3.2378  -3.1552  -2.9163  -2.8959  -2.8301  -2.7934  -2.7459
    -2.7382  -2.6916  -2.6794  -2.6527  -2.6020  -2.3285  -2.0288  -2.0229
    -1.9814  -1.0681  -0.8295  -0.7580  -0.1975  -0.1638  -0.1303  -0.0486
     0.0210   0.1093   0.1828   0.2113   0.2565   0.2604   0.3258   0.4003
     0.4719   0.4899   0.5085   0.5649   0.5889   0.6276   0.6933   0.7263
     0.7401   0.7835   0.8308   0.8705   0.9221   0.9647   0.9777   1.0505
     1.3651

     the Fermi energy is    -1.0697 ev

!    total energy              =   -2205.49924260 Ry
     estimated scf accuracy    <       0.00000043 Ry
     smearing contrib. (-TS)   =      -0.00592021 Ry
     internal energy E=F+TS    =   -2205.49332239 Ry

     The total energy is F=E-TS. E is the sum of the following terms:
     one-electron contribution =  -18039.15215699 Ry
     hartree contribution      =    9006.09748293 Ry
     xc contribution           =    -385.17173440 Ry
     ewald contribution        =    7212.73308606 Ry

     convergence has been achieved in   6 iterations

     negative rho (up, down):  1.367E-04 0.000E+00

     Forces acting on atoms (cartesian axes, Ry/au):

     atom    1 type  1   force =     0.00347145   -0.01166448    0.00018539
     atom    2 type  2   force =    -0.00913613    0.01086612   -0.00091224
     atom    3 type  2   force =    -0.01075587    0.00746198   -0.00930540
     atom    4 type  1   force =     0.00561540    0.00348954    0.00170059
     atom    5 type  2   force =     0.00034437   -0.00596208   -0.00682064
     atom    6 type  2   force =     0.00088063    0.00740712    0.00237097
     atom    7 type  1   force =     0.00309884   -0.00994021    0.00001392
     atom    8 type  2   force =     0.00094925   -0.00366750    0.01202035
     atom    9 type  2   force =     0.01128697    0.00551599    0.00673677
     atom   10 type  1   force =    -0.00429974    0.00846722   -0.00940643
     atom   11 type  2   force =     0.00622261   -0.00114370   -0.00969470
     atom   12 type  2   force =    -0.00343620   -0.00061405    0.00166557
     atom   13 type  1   force =     0.00510331    0.00159119   -0.00264108
     atom   14 type  2   force =     0.00595407   -0.00059308    0.00878041
     atom   15 type  2   force =    -0.00790885    0.00283921   -0.00763194
     atom   16 type  1   force =    -0.00086525    0.00645558    0.00300063
     atom   17 type  2   force =     0.00570220   -0.00210562    0.00250631
     atom   18 type  2   force =    -0.00255697   -0.00383964    0.01053328
     atom   19 type  1   force =     0.00208397   -0.00117678   -0.01231506
     atom   20 type  2   force =     0.00462819   -0.00552697   -0.00622243
     atom   21 type  1   force =    -0.00239822    0.00246793    0.00095125
     atom   22 type  2   force =    -0.00151563   -0.01819468    0.00950961
     atom   23 type  2   force =     0.00025405    0.00226938    0.00140781
     atom   24 type  1   force =    -0.00636942   -0.00267850   -0.00894433
     atom   25 type  2   force =     0.01179892    0.01407430   -0.00000221
     atom   26 type  2   force =    -0.00758772   -0.00123837   -0.00452517
     atom   27 type  1   force =     0.00133103   -0.00112035    0.00543380
     atom   28 type  2   force =    -0.00016935   -0.00256766   -0.00556769
     atom   29 type  2   force =     0.00334874    0.00035024   -0.00379629
     atom   30 type  1   force =     0.00083044    0.00269686    0.00612471
     atom   31 type  2   force =     0.01638542    0.00973439    0.02930034
     atom   32 type  2   force =    -0.00874643    0.00391846    0.00357009
     atom   33 type  1   force =     0.00756764   -0.00313158    0.00309806
     atom   34 type  2   force =    -0.00278102   -0.02911626   -0.01367304
     atom   35 type  2   force =    -0.00508431    0.00744708    0.00796227
     atom   36 type  3   force =    -0.02324638    0.00722891   -0.01541350
     The non-local contrib.  to forces
     atom    1 type  1   force =     0.00118834    0.02707670   -0.01212745
     atom    2 type  2   force =    -0.00711924   -0.00109113   -0.26951071
     atom    3 type  2   force =    -0.01273487   -0.00419578    0.26545606
     atom    4 type  1   force =     0.00095742    0.00394294    0.00585383
     atom    5 type  2   force =     0.00637880   -0.03193636   -0.25357851
     atom    6 type  2   force =    -0.00211435    0.00921690    0.26461061
     atom    7 type  1   force =    -0.01924598    0.00113015   -0.02180297
     atom    8 type  2   force =     0.00216250   -0.00310222   -0.25869654
     atom    9 type  2   force =     0.00534019   -0.00846696    0.27564806
     atom   10 type  1   force =     0.00369562    0.00339309   -0.00011420
     atom   11 type  2   force =     0.01418568    0.00115954   -0.26056788
     atom   12 type  2   force =    -0.01455665   -0.01617579    0.26060310
     atom   13 type  1   force =    -0.00140059    0.02252732   -0.00748633
     atom   14 type  2   force =     0.01054839   -0.00893458   -0.26438004
     atom   15 type  2   force =    -0.00998301   -0.00683275    0.26089727
     atom   16 type  1   force =    -0.00111302    0.02715290   -0.03238497
     atom   17 type  2   force =     0.00361815   -0.02844861   -0.25034481
     atom   18 type  2   force =    -0.00517899   -0.00030713    0.27157255
     atom   19 type  1   force =     0.01640871   -0.00360877   -0.00293636
     atom   20 type  2   force =     0.00163793   -0.02119255    0.26226879
     atom   21 type  1   force =    -0.00508090    0.02646939    0.00232559
     atom   22 type  2   force =    -0.02248330   -0.07441699   -0.16317050
     atom   23 type  2   force =     0.00778616   -0.01578901    0.26561177
     atom   24 type  1   force =     0.00384149    0.01526607   -0.00985663
     atom   25 type  2   force =     0.00686603    0.00236848   -0.26447780
     atom   26 type  2   force =     0.00021168   -0.01343076    0.26413958
     atom   27 type  1   force =    -0.00057753    0.01009140   -0.00061381
     atom   28 type  2   force =    -0.00707103   -0.02341504   -0.27511239
     atom   29 type  2   force =     0.00647775    0.00145737    0.26373023
     atom   30 type  1   force =     0.00369802    0.01612877    0.00481990
     atom   31 type  2   force =     0.06839837    0.07816302   -0.14341615
     atom   32 type  2   force =    -0.00121530   -0.00983012    0.27512348
     atom   33 type  1   force =    -0.00240446    0.00241769    0.00247361
     atom   34 type  2   force =    -0.00154897   -0.02934382   -0.27824951
     atom   35 type  2   force =     0.00202141   -0.01313482    0.26620624
     atom   36 type  3   force =    -0.00458218    0.00185108   -0.00844382
     The ionic contribution  to forces
     atom    1 type  1   force =     0.15342094    0.58182471    5.81603008
     atom    2 type  2   force =    -0.47549235    0.31280155   39.37918139
     atom    3 type  2   force =    -0.14594623    0.05757861  -36.20241281
     atom    4 type  1   force =     0.06011153    0.41944810    0.71103229
     atom    5 type  2   force =    -0.92158929    1.41008881   38.64998780
     atom    6 type  2   force =     0.31941508   -0.56565399  -37.92441798
     atom    7 type  1   force =    -2.44265382   -2.61463063    2.40258886
     atom    8 type  2   force =    -0.98541372    0.01516404   37.46748944
     atom    9 type  2   force =     0.35005974   -0.08098061  -37.98969702
     atom   10 type  1   force =    -0.85599573   -0.29424544    5.31324190
     atom   11 type  2   force =    -0.43642533   -1.52804388   39.03546558
     atom   12 type  2   force =     0.41001984    0.64174403  -37.84819495
     atom   13 type  1   force =     0.43589757    0.93269956    2.77224169
     atom   14 type  2   force =     0.01136726    0.04466143   38.59229534
     atom   15 type  2   force =     0.18030695    0.02114873  -36.85656009
     atom   16 type  1   force =     0.13924122    3.56172763    0.51895921
     atom   17 type  2   force =     0.79917824    1.31723054   37.90085736
     atom   18 type  2   force =    -0.12629171   -0.64750265  -38.50841716
     atom   19 type  1   force =     2.65139999   -2.44347703   -0.72985102
     atom   20 type  2   force =     0.28649943   -0.25096413  -38.61354405
     atom   21 type  1   force =     0.06881142    0.15604455    1.07448119
     atom   22 type  2   force =     0.63125495   -1.05684024   38.04655536
     atom   23 type  2   force =    -0.06652708    0.73505185  -38.35196077
     atom   24 type  1   force =    -0.35403015    1.03497060    5.56109430
     atom   25 type  2   force =     0.50970121    0.29142435   39.21729509
     atom   26 type  2   force =    -0.25600389    0.07904785  -37.29793142
     atom   27 type  1   force =    -0.11150129    0.34206444   -2.22657135
     atom   28 type  2   force =     0.02692371    0.87586208   38.16455993
     atom   29 type  2   force =    -0.27833100   -0.38871412  -37.27778916
     atom   30 type  1   force =    -0.45777860   -1.09178671   -0.19998848
     atom   31 type  2   force =     0.73271309   -0.48712765   36.94276954
     atom   32 type  2   force =    -0.54090090   -0.09633783  -38.64363762
     atom   33 type  1   force =     0.53453850   -0.38945131    2.01443671
     atom   34 type  2   force =     0.02828537   -1.10274827   39.19841225
     atom   35 type  2   force =    -0.28299785    0.51568423  -37.76573203
     atom   36 type  3   force =     0.40873292   -0.30776323    7.65773057
     The local contribution  to forces
     atom    1 type  1   force =    -0.15105389   -0.62093084   -5.80407507
     atom    2 type  2   force =     0.47328170   -0.30077581  -39.13163625
     atom    3 type  2   force =     0.14729598   -0.04604397   35.94839187
     atom    4 type  1   force =    -0.05545861   -0.42002869   -0.71563402
     atom    5 type  2   force =     0.91620488   -1.38605192  -38.42392017
     atom    6 type  2   force =    -0.31670788    0.56477724   37.68294219
     atom    7 type  1   force =     2.46514807    2.60374429   -2.38127928
     atom    8 type  2   force =     0.98428354   -0.01615008  -37.21764785
     atom    9 type  2   force =    -0.34407210    0.09453153   37.74169379
     atom   10 type  1   force =     0.84792893    0.29956245   -5.32295508
     atom   11 type  2   force =     0.42916009    1.52620059  -38.80557973
     atom   12 type  2   force =    -0.40011812   -0.62741770   37.60990197
     atom   13 type  1   force =    -0.42914426   -0.95404839   -2.76782648
     atom   14 type  2   force =    -0.01536382   -0.03631993  -38.34015392
     atom   15 type  2   force =    -0.17881190   -0.01197115   36.60849845
     atom   16 type  1   force =    -0.13876218   -3.58269051   -0.48408820
     atom   17 type  2   force =    -0.79698439   -1.29253877  -37.66853906
     atom   18 type  2   force =     0.12885790    0.64444460   38.26821575
     atom   19 type  1   force =    -2.66576228    2.44620553    0.71989610
     atom   20 type  2   force =    -0.28350913    0.26588578   38.36598541
     atom   21 type  1   force =    -0.06612999   -0.17970898   -1.07644697
     atom   22 type  2   force =    -0.61132922    1.10965627  -37.88974126
     atom   23 type  2   force =     0.05959546   -0.71814617   38.10847064
     atom   24 type  1   force =     0.34365071   -1.05328074   -5.56052260
     atom   25 type  2   force =    -0.50476646   -0.27948652  -38.97386452
     atom   26 type  2   force =     0.24847938   -0.06765428   37.05006799
     atom   27 type  1   force =     0.11322001   -0.35336383    2.23211172
     atom   28 type  2   force =    -0.02046475   -0.85679620  -37.91624655
     atom   29 type  2   force =     0.27571970    0.38805216   37.03073389
     atom   30 type  1   force =     0.45482861    1.07855619    0.20082890
     atom   31 type  2   force =    -0.78129037    0.42264366  -36.78495512
     atom   32 type  2   force =     0.53351020    0.10958995   38.39306138
     atom   33 type  1   force =    -0.52450503    0.38411132   -2.01425461
     atom   34 type  2   force =    -0.02989522    1.10218264  -38.95544567
     atom   35 type  2   force =     0.27615718   -0.49616254   37.52831129
     atom   36 type  3   force =    -0.42740915    0.31315859   -7.66477711
     The core correction contribution to forces
     atom    1 type  1   force =     0.00000000    0.00000000    0.00000000
     atom    2 type  2   force =     0.00023009   -0.00008787    0.02076845
     atom    3 type  2   force =     0.00056861    0.00012641   -0.02080628
     atom    4 type  1   force =     0.00000000    0.00000000    0.00000000
     atom    5 type  2   force =    -0.00061624    0.00173848    0.02034348
     atom    6 type  2   force =     0.00027643   -0.00106411   -0.02086301
     atom    7 type  1   force =     0.00000000    0.00000000    0.00000000
     atom    8 type  2   force =    -0.00002615    0.00049090    0.02056570
     atom    9 type  2   force =    -0.00000478    0.00045913   -0.02103461
     atom   10 type  1   force =     0.00000000    0.00000000    0.00000000
     atom   11 type  2   force =    -0.00060865   -0.00032909    0.02062047
     atom   12 type  2   force =     0.00117949    0.00133061   -0.02075643
     atom   13 type  1   force =     0.00000000    0.00000000    0.00000000
     atom   14 type  2   force =    -0.00059172    0.00000595    0.02070140
     atom   15 type  2   force =     0.00060206    0.00046401   -0.02056709
     atom   16 type  1   force =     0.00000000    0.00000000    0.00000000
     atom   17 type  2   force =    -0.00007413    0.00143430    0.02025641
     atom   18 type  2   force =     0.00012700   -0.00058668   -0.02097618
     atom   19 type  1   force =     0.00000000    0.00000000    0.00000000
     atom   20 type  2   force =     0.00005332    0.00077333   -0.02113429
     atom   21 type  1   force =     0.00000000    0.00000000    0.00000000
     atom   22 type  2   force =     0.00101744    0.00360976    0.01547282
     atom   23 type  2   force =    -0.00057058    0.00129279   -0.02087745
     atom   24 type  1   force =     0.00000000    0.00000000    0.00000000
     atom   25 type  2   force =    -0.00005976   -0.00027562    0.02076751
     atom   26 type  2   force =    -0.00025082    0.00072359   -0.02088004
     atom   27 type  1   force =     0.00000000    0.00000000    0.00000000
     atom   28 type  2   force =     0.00040615    0.00162256    0.02097128
     atom   29 type  2   force =    -0.00055692   -0.00051548   -0.02061661
     atom   30 type  1   force =     0.00000000    0.00000000    0.00000000
     atom   31 type  2   force =    -0.00355548   -0.00390034    0.01453883
     atom   32 type  2   force =    -0.00022161    0.00054673   -0.02112545
     atom   33 type  1   force =     0.00000000    0.00000000    0.00000000
     atom   34 type  2   force =     0.00032798    0.00094384    0.02128787
     atom   35 type  2   force =    -0.00025081    0.00111285   -0.02092314
     atom   36 type  3   force =     0.00000000    0.00000000    0.00000000
     The Hubbard contrib.    to forces
     atom    1 type  1   force =     0.00000000    0.00000000    0.00000000
     atom    2 type  2   force =     0.00000000    0.00000000    0.00000000
     atom    3 type  2   force =     0.00000000    0.00000000    0.00000000
     atom    4 type  1   force =     0.00000000    0.00000000    0.00000000
     atom    5 type  2   force =     0.00000000    0.00000000    0.00000000
     atom    6 type  2   force =     0.00000000    0.00000000    0.00000000
     atom    7 type  1   force =     0.00000000    0.00000000    0.00000000
     atom    8 type  2   force =     0.00000000    0.00000000    0.00000000
     atom    9 type  2   force =     0.00000000    0.00000000    0.00000000
     atom   10 type  1   force =     0.00000000    0.00000000    0.00000000
     atom   11 type  2   force =     0.00000000    0.00000000    0.00000000
     atom   12 type  2   force =     0.00000000    0.00000000    0.00000000
     atom   13 type  1   force =     0.00000000    0.00000000    0.00000000
     atom   14 type  2   force =     0.00000000    0.00000000    0.00000000
     atom   15 type  2   force =     0.00000000    0.00000000    0.00000000
     atom   16 type  1   force =     0.00000000    0.00000000    0.00000000
     atom   17 type  2   force =     0.00000000    0.00000000    0.00000000
     atom   18 type  2   force =     0.00000000    0.00000000    0.00000000
     atom   19 type  1   force =     0.00000000    0.00000000    0.00000000
     atom   20 type  2   force =     0.00000000    0.00000000    0.00000000
     atom   21 type  1   force =     0.00000000    0.00000000    0.00000000
     atom   22 type  2   force =     0.00000000    0.00000000    0.00000000
     atom   23 type  2   force =     0.00000000    0.00000000    0.00000000
     atom   24 type  1   force =     0.00000000    0.00000000    0.00000000
     atom   25 type  2   force =     0.00000000    0.00000000    0.00000000
     atom   26 type  2   force =     0.00000000    0.00000000    0.00000000
     atom   27 type  1   force =     0.00000000    0.00000000    0.00000000
     atom   28 type  2   force =     0.00000000    0.00000000    0.00000000
     atom   29 type  2   force =     0.00000000    0.00000000    0.00000000
     atom   30 type  1   force =     0.00000000    0.00000000    0.00000000
     atom   31 type  2   force =     0.00000000    0.00000000    0.00000000
     atom   32 type  2   force =     0.00000000    0.00000000    0.00000000
     atom   33 type  1   force =     0.00000000    0.00000000    0.00000000
     atom   34 type  2   force =     0.00000000    0.00000000    0.00000000
     atom   35 type  2   force =     0.00000000    0.00000000    0.00000000
     atom   36 type  3   force =     0.00000000    0.00000000    0.00000000
     The SCF correction term to forces
     atom    1 type  1   force =    -0.00008098    0.00036045    0.00034620
     atom    2 type  2   force =    -0.00003337    0.00001487    0.00027325
     atom    3 type  2   force =     0.00006362   -0.00000780    0.00005412
     atom    4 type  1   force =     0.00000802    0.00012269    0.00043684
     atom    5 type  2   force =    -0.00003081    0.00019442    0.00033513
     atom    6 type  2   force =     0.00001431    0.00012658    0.00008752
     atom    7 type  1   force =    -0.00014647   -0.00018852    0.00049568
     atom    8 type  2   force =    -0.00005396   -0.00007464    0.00029796
     atom    9 type  2   force =    -0.00003311   -0.00003160    0.00011492
     atom   10 type  1   force =     0.00007441   -0.00024738    0.00040931
     atom   11 type  2   force =    -0.00008620   -0.00013536    0.00035523
     atom   12 type  2   force =     0.00004221   -0.00009970    0.00010025
     atom   13 type  1   force =    -0.00024643    0.00040820    0.00041841
     atom   14 type  2   force =    -0.00000306   -0.00001044    0.00030600
     atom   15 type  2   force =    -0.00001998    0.00002587    0.00008789
     atom   16 type  1   force =    -0.00022829    0.00026107    0.00050296
     atom   17 type  2   force =    -0.00003269    0.00021242    0.00026477
     atom   18 type  2   force =    -0.00006820    0.00010773    0.00012669
     atom   19 type  1   force =     0.00004051   -0.00030102    0.00056459
     atom   20 type  2   force =    -0.00005039   -0.00003391    0.00019008
     atom   21 type  1   force =     0.00000422   -0.00034153    0.00057982
     atom   22 type  2   force =     0.00002747   -0.00020796    0.00038155
     atom   23 type  2   force =    -0.00002694   -0.00014458    0.00015199
     atom   24 type  1   force =     0.00017150    0.00036106    0.00032896
     atom   25 type  2   force =     0.00006088    0.00003911    0.00026587
     atom   26 type  2   force =    -0.00002111    0.00007072    0.00006708
     atom   27 type  1   force =     0.00019281    0.00008314    0.00049560
     atom   28 type  2   force =     0.00003955    0.00015443    0.00024842
     atom   29 type  2   force =     0.00004218    0.00006581    0.00013373
     atom   30 type  1   force =     0.00008537   -0.00020588    0.00045277
     atom   31 type  2   force =     0.00012277   -0.00004880    0.00035162
     atom   32 type  2   force =     0.00008414   -0.00005477    0.00013666
     atom   33 type  1   force =    -0.00005840   -0.00021378    0.00043072
     atom   34 type  2   force =     0.00005280   -0.00015514    0.00031038
     atom   35 type  2   force =    -0.00001126   -0.00005714    0.00008828
     atom   36 type  3   force =     0.00001500   -0.00002203    0.00006523

     Total force =     0.083060     Total SCF correction =     0.002294
     Energy error            =      1.1E-02 Ry
     Gradient error          =      2.9E-02 Ry/Bohr

     number of scf cycles    =   2
     number of bfgs steps    =   1

     energy             old  =   -2205.4879671964 Ry
     energy             new  =   -2205.4992426046 Ry

     CASE: energy            _new < energy            _old

     new trust radius        =       0.0505722909 bohr
     new conv_thr            =       0.0000000293 Ry


ATOMIC_POSITIONS (angstrom)
Mo            6.5856976443        1.7650439706        2.8272823851
S             8.1615141816        0.8274811845        4.4345652724
S             8.1790704657        0.8215653827        1.2704426091
Mo            8.1022051977        4.5004617398        2.7187405477
S             6.4993944257        3.7148759720        4.3379778690
S             6.5545992942        3.5232356966        1.1226021870
Mo            6.4944258970        7.2028701156        2.6672202533
S             8.0825480839        6.3387385297        4.2610042728
S             8.0955181627        6.3122471825        1.0951930191
Mo            8.1504217173        9.9148145540        2.8202537558
S             6.5039196295        8.9411912632        4.3727864977
S             6.6145189161        9.0483301579        1.1452518235
Mo            3.4287826064        1.7497305656        2.7702000443
S             4.9839275056        0.8167659824        4.3645466830
S             5.0453553228        0.8500276444        1.2163504390
Mo            4.9781813385        4.5237545492        2.6369886357
S             3.4358280003        3.6687477298        4.2830830670
S             3.4338456444        3.5421658148        1.0737161272
Mo            3.4593226482        7.2139200542        2.6042814555
S             4.9884684574        6.3201944737        1.0333853944
Mo            5.0105416339        9.9077996457        2.7392552386
S             3.4658914013        8.9196933426        4.3424476615
S             3.4077281585        9.0671305873        1.1023980587
Mo            0.2853467225        1.7433707854        2.8299077309
S             1.8685738219        0.8136950495        4.4030341348
S             1.8486398987        0.8532882856        1.2042294699
Mo            1.8619649073        4.4915759752        2.6639429962
S             0.2719989226        3.6517688482        4.3313142465
S             0.2360100248        3.5266331834        1.1682542299
Mo            0.2708399532        7.2256139278        2.7020494126
S             1.9222392992        6.3262217885        4.2674046127
S             1.8511236961        6.3168123039        1.0510823212
Mo            1.8583844261        9.9343656689        2.7688335374
S             0.2939555837        9.0454674315        4.4001243635
S             0.2689157659        9.0522954030        1.1650183274
H             3.1249009903        7.2949849540        5.4595928564



     Writing config-only to output data dir ./MoS2-V-O.save/
     NEW-OLD atomic charge density approx. for the potential

     negative rho (up, down):  1.443E-04 0.000E+00

     total cpu time spent up to now is      166.6 secs

     Self-consistent Calculation

     iteration #  1     ecut=    80.00 Ry     beta= 0.70
     Davidson diagonalization with overlap
     ethr =  1.00E-06,  avg # of iterations =  8.0

     negative rho (up, down):  8.639E-05 0.000E+00

     total cpu time spent up to now is      179.8 secs

     total energy              =   -2205.50764843 Ry
     estimated scf accuracy    <       0.00110372 Ry

     iteration #  2     ecut=    80.00 Ry     beta= 0.70
     Davidson diagonalization with overlap
     ethr =  3.60E-07,  avg # of iterations =  2.0

     negative rho (up, down):  7.479E-05 0.000E+00

     total cpu time spent up to now is      198.4 secs

     total energy              =   -2205.50772719 Ry
     estimated scf accuracy    <       0.00022299 Ry

     iteration #  3     ecut=    80.00 Ry     beta= 0.70
     Davidson diagonalization with overlap
     ethr =  7.26E-08,  avg # of iterations =  5.0

     negative rho (up, down):  6.389E-05 0.000E+00

     total cpu time spent up to now is      213.8 secs

     total energy              =   -2205.50774499 Ry
     estimated scf accuracy    <       0.00004891 Ry

     iteration #  4     ecut=    80.00 Ry     beta= 0.70
     Davidson diagonalization with overlap
     ethr =  1.59E-08,  avg # of iterations =  5.0

     negative rho (up, down):  6.177E-05 0.000E+00

     total cpu time spent up to now is      230.3 secs

     total energy              =   -2205.50775658 Ry
     estimated scf accuracy    <       0.00000431 Ry

     iteration #  5     ecut=    80.00 Ry     beta= 0.70
     Davidson diagonalization with overlap
     ethr =  1.40E-09,  avg # of iterations =  5.0

     negative rho (up, down):  6.242E-05 0.000E+00

     total cpu time spent up to now is      241.5 secs

     total energy              =   -2205.50775780 Ry
     estimated scf accuracy    <       0.00000174 Ry

     iteration #  6     ecut=    80.00 Ry     beta= 0.70
     Davidson diagonalization with overlap
     ethr =  5.65E-10,  avg # of iterations =  2.0

     negative rho (up, down):  6.746E-05 0.000E+00

     total cpu time spent up to now is      254.9 secs

     total energy              =   -2205.50775791 Ry
     estimated scf accuracy    <       0.00000057 Ry

     iteration #  7     ecut=    80.00 Ry     beta= 0.70
     Davidson diagonalization with overlap
     ethr =  1.85E-10,  avg # of iterations =  6.0

     negative rho (up, down):  8.133E-05 0.000E+00

     total cpu time spent up to now is      268.6 secs

     total energy              =   -2205.50775793 Ry
     estimated scf accuracy    <       0.00000019 Ry

     iteration #  8     ecut=    80.00 Ry     beta= 0.70
     Davidson diagonalization with overlap
     ethr =  6.32E-11,  avg # of iterations =  5.0

     negative rho (up, down):  1.036E-04 0.000E+00

     total cpu time spent up to now is      283.9 secs

     total energy              =   -2205.50775782 Ry
     estimated scf accuracy    <       0.00000006 Ry

     iteration #  9     ecut=    80.00 Ry     beta= 0.70
     Davidson diagonalization with overlap
     ethr =  1.83E-11,  avg # of iterations =  5.0

     negative rho (up, down):  1.373E-04 0.000E+00

     total cpu time spent up to now is      286.4 secs

     End of self-consistent calculation

          k = 0.0000 0.0000 0.0000 (105382 PWs)   bands (ev):

   -62.9034 -62.8865 -62.8786 -62.8592 -62.8474 -62.8421 -62.8384 -62.8341
   -62.8297 -62.8226 -62.7944 -62.7114 -37.2455 -37.1790 -37.1601 -37.1520
   -37.1427 -37.1201 -37.0973 -37.0938 -37.0851 -37.0822 -37.0770 -37.0614
   -37.0491 -37.0452 -37.0345 -37.0302 -37.0258 -37.0222 -37.0190 -37.0093
   -36.9969 -36.9914 -36.9852 -36.9555 -36.9443 -36.9374 -36.9292 -36.9114
   -36.9023 -36.8869 -36.8743 -36.8655 -36.8376 -36.8204 -36.7816 -36.7339
   -16.0049 -15.2369 -15.1775 -15.0422 -14.9063 -14.8358 -14.5962 -14.5402
   -14.4388 -14.4356 -14.4147 -14.3520 -14.3352 -14.3105 -14.1704 -14.1542
   -14.1368 -14.1211 -14.0502 -13.8996 -13.8699 -13.8519 -13.8226  -7.8658
    -7.5590  -7.4317  -7.3049  -7.2514  -7.2241  -7.2139  -7.1498  -7.0297
    -6.8441  -6.8014  -6.7825  -6.7219  -6.6110  -6.5033  -6.4479  -6.4098
    -6.3314  -6.2804  -6.0672  -5.9456  -5.9294  -5.9042  -5.8463  -5.7852
    -5.7777  -5.7156  -5.7037  -5.6687  -5.6537  -5.5582  -5.5341  -5.4939
    -5.4605  -5.3905  -5.1919  -5.1509  -5.0776  -5.0161  -4.9892  -4.9687
    -4.9287  -4.8638  -4.7283  -4.5476  -4.3455  -4.3355  -4.2936  -4.2651
    -4.2398  -4.1119  -4.0278  -3.9088  -3.8172  -3.7924  -3.7495  -3.7027
    -3.6852  -3.5743  -3.5470  -3.5316  -3.4997  -3.4761  -3.4532  -3.4004
    -3.3724  -3.2362  -3.1515  -2.9047  -2.8818  -2.8179  -2.7805  -2.7403
    -2.7278  -2.6930  -2.6771  -2.6405  -2.5920  -2.3150  -2.0255  -2.0160
    -1.9854  -1.0732  -0.8055  -0.7552  -0.1866  -0.1640  -0.1240  -0.0317
     0.0341   0.1111   0.1970   0.2200   0.2663   0.2809   0.3290   0.4108
     0.4762   0.4994   0.5170   0.5678   0.6041   0.6294   0.7018   0.7308
     0.7424   0.7923   0.8385   0.8730   0.9357   0.9689   0.9986   1.0569
     1.3736

     the Fermi energy is    -1.0740 ev

!    total energy              =   -2205.50775777 Ry
     estimated scf accuracy    <       0.00000001 Ry
     smearing contrib. (-TS)   =      -0.00577999 Ry
     internal energy E=F+TS    =   -2205.50197778 Ry

     The total energy is F=E-TS. E is the sum of the following terms:
     one-electron contribution =  -18037.38707166 Ry
     hartree contribution      =    9005.28068991 Ry
     xc contribution           =    -385.16665379 Ry
     ewald contribution        =    7211.77105776 Ry

     convergence has been achieved in   9 iterations

     negative rho (up, down):  1.373E-04 0.000E+00

     Forces acting on atoms (cartesian axes, Ry/au):

     atom    1 type  1   force =    -0.00367008   -0.00219851   -0.00416268
     atom    2 type  2   force =    -0.00448180    0.00577745   -0.00130679
     atom    3 type  2   force =    -0.00878767    0.00558787   -0.01171610
     atom    4 type  1   force =     0.00508010    0.00181132    0.00161140
     atom    5 type  2   force =     0.00141299   -0.00524779   -0.00563190
     atom    6 type  2   force =     0.00076247    0.00499514    0.00387769
     atom    7 type  1   force =     0.00196158   -0.00572178    0.00264357
     atom    8 type  2   force =     0.00093689   -0.00352383    0.00868302
     atom    9 type  2   force =     0.00992085    0.00442324    0.00424369
     atom   10 type  1   force =    -0.00048215    0.00595582   -0.00048749
     atom   11 type  2   force =     0.00490890   -0.00073540   -0.00943938
     atom   12 type  2   force =    -0.00409472   -0.00106217   -0.00009665
     atom   13 type  1   force =     0.00331537    0.00023581   -0.00031735
     atom   14 type  2   force =     0.00391653   -0.00116192    0.00510633
     atom   15 type  2   force =    -0.00489300    0.00138537   -0.00550668
     atom   16 type  1   force =    -0.00012599    0.00334464    0.00166265
     atom   17 type  2   force =     0.00471537   -0.00170659    0.00286987
     atom   18 type  2   force =    -0.00164709   -0.00165368    0.00780230
     atom   19 type  1   force =     0.00043360   -0.00050465   -0.00290713
     atom   20 type  2   force =     0.00444224   -0.00474231   -0.00816396
     atom   21 type  1   force =    -0.00291206   -0.00053952    0.00379216
     atom   22 type  2   force =     0.00207394   -0.01484691    0.00449661
     atom   23 type  2   force =     0.00094391    0.00273937   -0.00195793
     atom   24 type  1   force =    -0.00349105   -0.00125880   -0.00244335
     atom   25 type  2   force =     0.00720999    0.00931258   -0.00364141
     atom   26 type  2   force =    -0.00374447   -0.00188436   -0.00294899
     atom   27 type  1   force =     0.00164691    0.00141109    0.00656162
     atom   28 type  2   force =     0.00007262   -0.00286109   -0.00479117
     atom   29 type  2   force =     0.00308506    0.00159991   -0.00330357
     atom   30 type  1   force =     0.00246441   -0.00258824    0.01034554
     atom   31 type  2   force =     0.01651974    0.00728854    0.02053992
     atom   32 type  2   force =    -0.00759945    0.00178245    0.00252347
     atom   33 type  1   force =     0.00265862   -0.00126820    0.00780465
     atom   34 type  2   force =    -0.00391291   -0.01728481   -0.01303406
     atom   35 type  2   force =    -0.00238805    0.00643328    0.00436339
     atom   36 type  3   force =    -0.02625160    0.00670669   -0.01707126
     The non-local contrib.  to forces
     atom    1 type  1   force =     0.00224362    0.02427723   -0.01211404
     atom    2 type  2   force =    -0.00381246   -0.00484412   -0.26793065
     atom    3 type  2   force =    -0.01015046   -0.00616617    0.26228588
     atom    4 type  1   force =     0.00169437    0.00494247    0.00555053
     atom    5 type  2   force =     0.00717434   -0.03151424   -0.25384758
     atom    6 type  2   force =    -0.00204703    0.00667434    0.26661038
     atom    7 type  1   force =    -0.01973925    0.00051360   -0.02336476
     atom    8 type  2   force =     0.00274222   -0.00287334   -0.26036239
     atom    9 type  2   force =     0.00357911   -0.00928425    0.27380607
     atom   10 type  1   force =     0.00268080    0.00424840    0.00027534
     atom   11 type  2   force =     0.01285575    0.00018948   -0.26092515
     atom   12 type  2   force =    -0.01485770   -0.01645475    0.26043768
     atom   13 type  1   force =    -0.00041707    0.02378181   -0.00733795
     atom   14 type  2   force =     0.00881152   -0.00910363   -0.26570694
     atom   15 type  2   force =    -0.00734082   -0.00835909    0.26131149
     atom   16 type  1   force =    -0.00225576    0.02867764   -0.03358884
     atom   17 type  2   force =     0.00347013   -0.02781007   -0.25041414
     atom   18 type  2   force =    -0.00465820    0.00120244    0.27002966
     atom   19 type  1   force =     0.01807987   -0.00354671   -0.00193854
     atom   20 type  2   force =     0.00115493   -0.01930718    0.26078688
     atom   21 type  1   force =    -0.00592148    0.02682155    0.00122143
     atom   22 type  2   force =    -0.02145157   -0.07140023   -0.16109625
     atom   23 type  2   force =     0.00858134   -0.01598586    0.26358749
     atom   24 type  1   force =     0.00204560    0.01559170   -0.00866485
     atom   25 type  2   force =     0.00343749   -0.00184247   -0.26667400
     atom   26 type  2   force =     0.00297146   -0.01319641    0.26532901
     atom   27 type  1   force =    -0.00029638    0.00945014   -0.00248490
     atom   28 type  2   force =    -0.00693415   -0.02276408   -0.27475999
     atom   29 type  2   force =     0.00607436    0.00081001    0.26490460
     atom   30 type  1   force =     0.00353156    0.01721746    0.00372049
     atom   31 type  2   force =     0.07321864    0.08453034   -0.14006744
     atom   32 type  2   force =     0.00078589   -0.01094095    0.27480855
     atom   33 type  1   force =    -0.00122715    0.00082149    0.00117053
     atom   34 type  2   force =    -0.00167281   -0.02019037   -0.27897931
     atom   35 type  2   force =     0.00332537   -0.01383393    0.26506977
     atom   36 type  3   force =    -0.00527271    0.00164253   -0.00920380
     The ionic contribution  to forces
     atom    1 type  1   force =    -0.03262529    0.83543843    5.79310135
     atom    2 type  2   force =    -0.32102055    0.22223362   39.44779590
     atom    3 type  2   force =    -0.11370625    0.06660623  -36.35094827
     atom    4 type  1   force =     0.02936248    0.34635882    0.75999537
     atom    5 type  2   force =    -0.91396450    1.39048115   38.55218944
     atom    6 type  2   force =     0.29822143   -0.58826789  -37.83597093
     atom    7 type  1   force =    -2.46789808   -2.45387048    2.41353189
     atom    8 type  2   force =    -0.98969199    0.02526344   37.58173645
     atom    9 type  2   force =     0.35479997   -0.08948874  -37.96082165
     atom   10 type  1   force =    -0.67525133   -0.35064124    5.06161707
     atom   11 type  2   force =    -0.43229366   -1.53063576   38.94345201
     atom   12 type  2   force =     0.37422568    0.57617493  -37.81236621
     atom   13 type  1   force =     0.35973945    0.86108395    2.69928664
     atom   14 type  2   force =    -0.05367052    0.03444063   38.67197454
     atom   15 type  2   force =     0.18446198    0.04331624  -36.92486052
     atom   16 type  1   force =     0.17154414    3.43615310    0.65920351
     atom   17 type  2   force =     0.77918009    1.29687519   37.91647506
     atom   18 type  2   force =    -0.11473631   -0.61193249  -38.43177168
     atom   19 type  1   force =     2.56580600   -2.43329696   -1.29085764
     atom   20 type  2   force =     0.29835694   -0.25398410  -38.70400864
[...]
     atom   27 type  1   force =    -0.00043329    0.00464275   -0.01534913
     atom   28 type  2   force =    -0.00567008   -0.01768124   -0.26696207
     atom   29 type  2   force =     0.00739996   -0.00936237    0.27085586
     atom   30 type  1   force =    -0.00088522    0.02058777    0.00316112
     atom   31 type  2   force =    -0.04243556    0.23250985    0.07563635
     atom   32 type  2   force =     0.00725227   -0.01229662    0.27624549
     atom   33 type  1   force =    -0.00217697    0.00707018    0.00533068
     atom   34 type  2   force =     0.00121761   -0.01247873   -0.25546932
     atom   35 type  2   force =    -0.00243463   -0.01135698    0.26825788
     atom   36 type  3   force =     0.00373374   -0.03270724   -0.04526106
     The ionic contribution  to forces
     atom    1 type  1   force =    -0.01157682    0.77605960    1.37340922
     atom    2 type  2   force =    -0.24022409    0.23219856   38.72025897
     atom    3 type  2   force =     0.04303883   -0.12725803  -37.67353153
     atom    4 type  1   force =    -0.08292713    0.42848508    0.90531141
     atom    5 type  2   force =    -0.87773395    1.10920136   38.15729905
     atom    6 type  2   force =     0.31117072   -0.08233013  -38.15841167
     atom    7 type  1   force =    -2.68873338   -2.11338873    4.03479066
     atom    8 type  2   force =    -1.31495894   -0.08119823   38.41800269
     atom    9 type  2   force =     0.33850070    0.11919927  -37.40798037
     atom   10 type  1   force =    -0.65357232   -0.46019057    2.72256589
     atom   11 type  2   force =    -0.43569381   -1.29503890   38.52969781
     atom   12 type  2   force =     0.27324843    0.03361854  -37.73208018
     atom   13 type  1   force =     0.19373637    0.80420408    1.31625072
     atom   14 type  2   force =     0.05726230    0.13369120   38.38135915
     atom   15 type  2   force =     0.08089985   -0.14971721  -37.83395501
     atom   16 type  1   force =    -0.05629755    3.75788684    0.65993618
     atom   17 type  2   force =     0.76334595    1.22683449   38.11401140
     atom   18 type  2   force =    -0.05226975   -0.13397084  -38.41754578
     atom   19 type  1   force =     2.86371863   -3.11610890    3.82371885
     atom   20 type  2   force =    -0.04708105    0.05632664  -38.22087038
     atom   21 type  1   force =     0.31448108   -0.29912626    0.49730979
     atom   22 type  2   force =     0.77655607   -0.92128314   38.51903416
     atom   23 type  2   force =    -0.18445188    0.09330467  -38.04476784
     atom   24 type  1   force =    -0.19275003    0.64894194    1.92734711
     atom   25 type  2   force =     0.19663996    0.33771060   38.73516555
     atom   26 type  2   force =    -0.11674368   -0.10768572  -37.78148480
     atom   27 type  1   force =     0.04931429    1.48344465   -0.09189845
     atom   28 type  2   force =     0.12329220    0.51236420   37.94361504
     atom   29 type  2   force =    -0.18956833    0.11131280  -37.69828546
     atom   30 type  1   force =    -0.20209352   -1.40334424    3.73882733
     atom   31 type  2   force =     1.33658271   -1.87371314   37.60943082
     atom   32 type  2   force =    -0.33652588    0.11342270  -37.19085689
     atom   33 type  1   force =     0.30678965   -0.26709073    2.32702839
     atom   34 type  2   force =    -0.32007168   -0.01156573   38.78566913
     atom   35 type  2   force =    -0.08393380   -0.09875463  -37.38799998
     atom   36 type  3   force =     0.05862986    0.56355791    8.39962902
     The local contribution  to forces
     atom    1 type  1   force =     0.01644226   -0.80230838   -1.36967148
     atom    2 type  2   force =     0.24078542   -0.22046136  -38.47825689
     atom    3 type  2   force =    -0.04040871    0.13719212   37.42895987
     atom    4 type  1   force =     0.08159599   -0.43330081   -0.91089658
     atom    5 type  2   force =     0.87166905   -1.08858686  -37.92583236
     atom    6 type  2   force =    -0.31110709    0.08708433   37.91524295
     atom    7 type  1   force =     2.71736345    2.11164933   -4.00652632
     atom    8 type  2   force =     1.30084641    0.07684655  -38.17976259
     atom    9 type  2   force =    -0.32936041   -0.10296968   37.16362347
     atom   10 type  1   force =     0.65457735    0.45218144   -2.72508077
     atom   11 type  2   force =     0.42958349    1.30176320  -38.29209674
     atom   12 type  2   force =    -0.26342200   -0.02290601   37.48820046
     atom   13 type  1   force =    -0.19482984   -0.82613427   -1.30759065
     atom   14 type  2   force =    -0.05713981   -0.12075640  -38.13662028
     atom   15 type  2   force =    -0.08091903    0.15797071   37.59370214
     atom   16 type  1   force =     0.06318868   -3.79326324   -0.63346154
     atom   17 type  2   force =    -0.76736637   -1.19905459  -37.88810050
     atom   18 type  2   force =     0.05334544    0.13749062   38.17240053
     atom   19 type  1   force =    -2.88131360    3.12536862   -3.80548633
     atom   20 type  2   force =     0.04451548   -0.04072055   37.97954138
     atom   21 type  1   force =    -0.31506054    0.27144707   -0.50046466
     atom   22 type  2   force =    -0.76889594    0.92268140  -38.29439378
     atom   23 type  2   force =     0.17834460   -0.08290876   37.80151721
     atom   24 type  1   force =     0.19089863   -0.66457479   -1.92592828
     atom   25 type  2   force =    -0.19583017   -0.32685982  -38.49168530
     atom   26 type  2   force =     0.11478519    0.11842922   37.53638269
     atom   27 type  1   force =    -0.04862073   -1.48957452    0.10677888
     atom   28 type  2   force =    -0.11761629   -0.49605913  -37.69713972
     atom   29 type  2   force =     0.18251351   -0.10232607   37.44805825
     atom   30 type  1   force =     0.20158966    1.38463452   -3.74348155
     atom   31 type  2   force =    -1.29653012    1.65625766  -37.68407589
     atom   32 type  2   force =     0.33047958   -0.10188303   36.93541708
     atom   33 type  1   force =    -0.30353616    0.25954316   -2.33244780
     atom   34 type  2   force =     0.31993836    0.02351507  -38.54996658
     atom   35 type  2   force =     0.08641629    0.10970474   37.14152735
     atom   36 type  3   force =    -0.06305065   -0.53231268   -8.35586830
     The core correction contribution to forces
     atom    1 type  1   force =     0.00000000    0.00000000    0.00000000
     atom    2 type  2   force =    -0.00004088    0.00064962    0.02061464
     atom    3 type  2   force =     0.00022893    0.00032439   -0.02083756
     atom    4 type  1   force =     0.00000000    0.00000000    0.00000000
     atom    5 type  2   force =    -0.00062239    0.00091797    0.02018657
     atom    6 type  2   force =     0.00028925   -0.00015155   -0.02073016
     atom    7 type  1   force =     0.00000000    0.00000000    0.00000000
     atom    8 type  2   force =    -0.00083053   -0.00001969    0.02038860
     atom    9 type  2   force =     0.00083391    0.00102356   -0.02072519
     atom   10 type  1   force =     0.00000000    0.00000000    0.00000000
     atom   11 type  2   force =    -0.00019837    0.00024720    0.02041713
     atom   12 type  2   force =     0.00076032    0.00054766   -0.02080523
     atom   13 type  1   force =     0.00000000    0.00000000    0.00000000
     atom   14 type  2   force =     0.00001135    0.00040914    0.02075425
     atom   15 type  2   force =     0.00003628    0.00029265   -0.02059989
     atom   16 type  1   force =     0.00000000    0.00000000    0.00000000
     atom   17 type  2   force =     0.00005857    0.00123313    0.01997938
     atom   18 type  2   force =     0.00008767   -0.00021266   -0.02094370
     atom   19 type  1   force =     0.00000000    0.00000000    0.00000000
     atom   20 type  2   force =    -0.00023002    0.00080392   -0.02112951
     atom   21 type  1   force =     0.00000000    0.00000000    0.00000000
     atom   22 type  2   force =     0.00043544    0.00022427    0.01976112
     atom   23 type  2   force =    -0.00057461    0.00074261   -0.02085956
     atom   24 type  1   force =     0.00000000    0.00000000    0.00000000
     atom   25 type  2   force =     0.00019571    0.00067892    0.02069832
     atom   26 type  2   force =    -0.00017226    0.00033762   -0.02088732
     atom   27 type  1   force =     0.00000000    0.00000000    0.00000000
     atom   28 type  2   force =     0.00035117    0.00099205    0.02075665
     atom   29 type  2   force =    -0.00046653    0.00028615   -0.02091430
     atom   30 type  1   force =     0.00000000    0.00000000    0.00000000
     atom   31 type  2   force =     0.00248302   -0.01501485   -0.00153093
     atom   32 type  2   force =    -0.00054081    0.00087665   -0.02133936
     atom   33 type  1   force =     0.00000000    0.00000000    0.00000000
     atom   34 type  2   force =    -0.00014197    0.00093036    0.02019469
     atom   35 type  2   force =     0.00013575    0.00055516   -0.02102084
     atom   36 type  3   force =     0.00000000    0.00000000    0.00000000
     The Hubbard contrib.    to forces
     atom    1 type  1   force =     0.00000000    0.00000000    0.00000000
     atom    2 type  2   force =     0.00000000    0.00000000    0.00000000
     atom    3 type  2   force =     0.00000000    0.00000000    0.00000000
     atom    4 type  1   force =     0.00000000    0.00000000    0.00000000
     atom    5 type  2   force =     0.00000000    0.00000000    0.00000000
     atom    6 type  2   force =     0.00000000    0.00000000    0.00000000
     atom    7 type  1   force =     0.00000000    0.00000000    0.00000000
     atom    8 type  2   force =     0.00000000    0.00000000    0.00000000
     atom    9 type  2   force =     0.00000000    0.00000000    0.00000000
     atom   10 type  1   force =     0.00000000    0.00000000    0.00000000
     atom   11 type  2   force =     0.00000000    0.00000000    0.00000000
     atom   12 type  2   force =     0.00000000    0.00000000    0.00000000
     atom   13 type  1   force =     0.00000000    0.00000000    0.00000000
     atom   14 type  2   force =     0.00000000    0.00000000    0.00000000
     atom   15 type  2   force =     0.00000000    0.00000000    0.00000000
     atom   16 type  1   force =     0.00000000    0.00000000    0.00000000
     atom   17 type  2   force =     0.00000000    0.00000000    0.00000000
     atom   18 type  2   force =     0.00000000    0.00000000    0.00000000
     atom   19 type  1   force =     0.00000000    0.00000000    0.00000000
     atom   20 type  2   force =     0.00000000    0.00000000    0.00000000
     atom   21 type  1   force =     0.00000000    0.00000000    0.00000000
     atom   22 type  2   force =     0.00000000    0.00000000    0.00000000
     atom   23 type  2   force =     0.00000000    0.00000000    0.00000000
     atom   24 type  1   force =     0.00000000    0.00000000    0.00000000
     atom   25 type  2   force =     0.00000000    0.00000000    0.00000000
     atom   26 type  2   force =     0.00000000    0.00000000    0.00000000
     atom   27 type  1   force =     0.00000000    0.00000000    0.00000000
     atom   28 type  2   force =     0.00000000    0.00000000    0.00000000
     atom   29 type  2   force =     0.00000000    0.00000000    0.00000000
     atom   30 type  1   force =     0.00000000    0.00000000    0.00000000
     atom   31 type  2   force =     0.00000000    0.00000000    0.00000000
     atom   32 type  2   force =     0.00000000    0.00000000    0.00000000
     atom   33 type  1   force =     0.00000000    0.00000000    0.00000000
     atom   34 type  2   force =     0.00000000    0.00000000    0.00000000
     atom   35 type  2   force =     0.00000000    0.00000000    0.00000000
     atom   36 type  3   force =     0.00000000    0.00000000    0.00000000
     The SCF correction term to forces
     atom    1 type  1   force =     0.00000146    0.00000571   -0.00002641
     atom    2 type  2   force =    -0.00000271    0.00001204   -0.00001199
     atom    3 type  2   force =    -0.00001011    0.00000862   -0.00000108
     atom    4 type  1   force =    -0.00001342   -0.00001799    0.00001101
     atom    5 type  2   force =     0.00000793   -0.00000281   -0.00000752
     atom    6 type  2   force =    -0.00000797   -0.00001569    0.00000035
     atom    7 type  1   force =     0.00001095   -0.00000088    0.00000627
     atom    8 type  2   force =     0.00000344    0.00000109    0.00000377
     atom    9 type  2   force =    -0.00000913    0.00000309    0.00000879
     atom   10 type  1   force =    -0.00001126    0.00001344   -0.00001712
     atom   11 type  2   force =     0.00000623   -0.00000954   -0.00000973
     atom   12 type  2   force =    -0.00000658    0.00000393   -0.00000160
     atom   13 type  1   force =     0.00002049    0.00001907   -0.00003238
     atom   14 type  2   force =     0.00000151    0.00001084   -0.00001877
     atom   15 type  2   force =     0.00000049    0.00001322   -0.00000759
     atom   16 type  1   force =     0.00001272   -0.00002828   -0.00002215
     atom   17 type  2   force =    -0.00000146   -0.00001304   -0.00000788
     atom   18 type  2   force =     0.00001271   -0.00002014   -0.00000353
     atom   19 type  1   force =     0.00002709    0.00001209   -0.00001413
     atom   20 type  2   force =     0.00000785   -0.00000184   -0.00000233
     atom   21 type  1   force =     0.00001659    0.00002335   -0.00003469
     atom   22 type  2   force =     0.00000031   -0.00000100   -0.00000972
     atom   23 type  2   force =     0.00000764    0.00000559   -0.00000921
     atom   24 type  1   force =     0.00000954    0.00001085   -0.00001324
     atom   25 type  2   force =    -0.00000741    0.00001058   -0.00001012
     atom   26 type  2   force =     0.00000679    0.00000862   -0.00000361
     atom   27 type  1   force =    -0.00001760   -0.00003673   -0.00000491
     atom   28 type  2   force =    -0.00000289   -0.00000058    0.00000620
     atom   29 type  2   force =    -0.00000083   -0.00001425    0.00000309
     atom   30 type  1   force =    -0.00002154   -0.00000503    0.00000983
     atom   31 type  2   force =    -0.00000953   -0.00000341    0.00002328
     atom   32 type  2   force =    -0.00000176   -0.00000281   -0.00000478
     atom   33 type  1   force =    -0.00000122    0.00003178   -0.00002172
     atom   34 type  2   force =    -0.00000592   -0.00000595   -0.00000256
     atom   35 type  2   force =    -0.00000276    0.00000396    0.00000022
     atom   36 type  3   force =    -0.00000146   -0.00000330   -0.00000167

     Total force =     0.007193     Total SCF correction =     0.000132
     Energy error            =      9.2E-05 Ry
     Gradient error          =      1.9E-03 Ry/Bohr

     bfgs converged in  27 scf cycles and  26 bfgs steps
     (criteria: energy <  1.0E-04 Ry, force <  1.0E-02 Ry/Bohr)

     End of BFGS Geometry Optimization

     Final energy             =   -2205.5919110093 Ry

     File ./MoS2-V-O.bfgs deleted, as requested
Begin final coordinates

ATOMIC_POSITIONS (angstrom)
Mo            6.6017986429        1.7589177574        2.7351496492
S             8.1624308309        0.8579637457        4.3558772941
S             8.1846774527        0.8278625690        1.1607696864
Mo            8.1736252320        4.4945558355        2.7228384140
S             6.5626340029        3.6563355134        4.2966054514
S             6.6098698995        3.5678431618        1.0988876202
Mo            6.5406919600        7.1683951360        2.7043362590
S             8.1048343196        6.2930199780        4.3355531395
S             8.1802850042        6.3334477559        1.1527630406
Mo            8.1701258551        9.9344122560        2.7714941883
S             6.5520532191        8.9603043554        4.3331008895
S             6.6256227631        9.0096098280        1.1409778625
Mo            3.4646208356        1.7485536865        2.7321614270
S             5.0367717200        0.8301719324        4.3228630571
S             5.0362698393        0.8326029414        1.1450570347
Mo            5.0321148016        4.5168611751        2.6379210250
S             3.5155594900        3.6477869014        4.2930632915
S             3.4586368829        3.5558649554        1.0857969434
Mo            3.5032938035        7.2207821216        2.7088950159
S             5.0111828940        6.3268999599        1.0690006431
Mo            5.0336442698        9.9142012711        2.7240418850
S             3.5074932650        8.9969773948        4.3373982383
S             3.4317126160        9.0321542013        1.1281501492
Mo            0.3023925439        1.7381525125        2.7555711709
S             1.8991060817        0.8584667877        4.3531456566
S             1.8772396049        0.8321515120        1.1569342502
Mo            1.9223390807        4.4729591320        2.6868794733
S             0.3213061675        3.6017724342        4.3060320323
S             0.3123346922        3.5571716828        1.1385191768
Mo            0.3041531171        7.2196817913        2.7878256204
S             1.9603102701        6.4089632257        4.4308449777
S             1.8827739711        6.3315298313        1.1621789045
Mo            1.8826104447        9.9440065642        2.7674403965
S             0.2935223078        9.0537890479        4.3750482822
S             0.3009873930        9.0278451801        1.1880659287
H             1.8655750705        7.2348656090        5.5535734620
End final coordinates



     Writing all to output data dir ./MoS2-V-O.save/
 
     init_run     :      2.38s CPU      2.67s WALL (       1 calls)
     electrons    :   2353.92s CPU   2625.53s WALL (      27 calls)
     update_pot   :     37.31s CPU     39.55s WALL (      26 calls)
     forces       :     37.14s CPU     43.39s WALL (      27 calls)

     Called by init_run:
     wfcinit      :      0.38s CPU      0.44s WALL (       1 calls)
     potinit      :      1.32s CPU      1.44s WALL (       1 calls)
     hinit0       :      0.17s CPU      0.19s WALL (       1 calls)

     Called by electrons:
     c_bands      :    309.46s CPU    314.83s WALL (     228 calls)
     sum_band     :     67.59s CPU     89.25s WALL (     228 calls)
     v_of_rho     :    104.94s CPU    128.71s WALL (     246 calls)
     newd         :     32.61s CPU     52.49s WALL (     246 calls)
     mix_rho      :   1851.07s CPU   2052.62s WALL (     228 calls)

     Called by c_bands:
     init_us_2    :      4.81s CPU      5.24s WALL (     457 calls)
     init_us_2:cp :      4.80s CPU      5.24s WALL (     457 calls)
     regterg      :    292.58s CPU    297.48s WALL (     228 calls)

     Called by *egterg:
     rdiaghg      :     23.79s CPU     24.06s WALL (    1329 calls)
     h_psi        :    158.71s CPU    160.19s WALL (    1365 calls)
     s_psi        :     19.56s CPU     19.64s WALL (    1365 calls)
     g_psi        :      1.72s CPU      1.74s WALL (    1136 calls)

     Called by h_psi:
     h_psi:calbec :     23.25s CPU     23.35s WALL (    1365 calls)
     vloc_psi     :    112.49s CPU    113.69s WALL (    1365 calls)
     add_vuspsi   :     19.69s CPU     19.84s WALL (    1365 calls)

     General routines
     calbec       :     32.81s CPU     32.97s WALL (    1701 calls)
     fft          :     67.75s CPU     79.50s WALL (   16580 calls)
     ffts         :    834.67s CPU   1028.90s WALL (  451092 calls)
     fftw         :     95.74s CPU     96.65s WALL (  142036 calls)
     interpolate  :      1.77s CPU      2.08s WALL (     246 calls)
 
     Parallel routines
 
     PWSCF        :  40m35.57s CPU  45m19.32s WALL

 
   This run was terminated on:   6:57:10   4Nov2023            

=------------------------------------------------------------------------------=
   JOB DONE.
=------------------------------------------------------------------------------=
