
     Program PWSCF v.7.2 starts on  3Nov2023 at 22:42: 2 

     This program is part of the open-source Quantum ESPRESSO suite
     for quantum simulation of materials; please cite
         "P. Giannozzi et al., J. Phys.:Condens. Matter 21 395502 (2009);
         "P. Giannozzi et al., J. Phys.:Condens. Matter 29 465901 (2017);
         "P. Giannozzi et al., J. Chem. Phys. 152 154105 (2020);
          URL http://www.quantum-espresso.org", 
     in publications or presentations arising from this work. More details at
     http://www.quantum-espresso.org/quote

     Parallel version (MPI & OpenMP), running on      48 processor cores
     Number of MPI processes:                48
     Threads/MPI process:                     1

     MPI processes distributed on     1 nodes
     66199 MiB available memory on the printing compute node when the environment starts
 
     Waiting for input...
     Reading input from standard input
Warning: card &CELL ignored
Warning: card CELL_DYNAMICS = 'BFGS', ignored
Warning: card CELL_DOFREE = '2DXY' ignored
Warning: card / ignored

     Current dimensions of program PWSCF are:
     Max number of different atomic species (ntypx) = 10
     Max number of k-points (npk) =  40000
     Max angular momentum in pseudopotentials (lmaxx) =  4

     IMPORTANT: XC functional enforced from input :
     Exchange-correlation= RVV10
                           (   1   4  13   4  26   0   0)
     Any further DFT definition will be discarded
     Please, verify this is what you really want


     gamma-point specific algorithms are used
     signal trapping enabled: kill the code with -SIGUSR1 to stop cleanly the simulation 
 
     R & G space division:  proc/nbgrp/npool/nimage =      48
     Subspace diagonalization in iterative solution of the eigenvalue problem:
     one sub-group per band group will be used
     scalapack distributed-memory algorithm (size of sub-group:  2*  2 procs)

 
     Parallelization info
     --------------------
     sticks:   dense  smooth     PW     G-vecs:    dense   smooth      PW
     Min         243     194     47                49060    35090    4376
     Max         246     196     50                49086    35128    4410
     Sum       11735    9389   2349              2355467  1685513  210763
 
     Using Slab Decomposition
 


     bravais-lattice index     =            0
     lattice parameter (alat)  =      17.8707  a.u.
     unit-cell volume          =   17436.2743 (a.u.)^3
     number of atoms/cell      =           36
     number of atomic types    =            3
     number of electrons       =       307.00
     number of Kohn-Sham states=          185
     kinetic-energy cutoff     =      80.0000  Ry
     charge density cutoff     =     400.0000  Ry
     scf convergence threshold =      1.0E-06
     mixing beta               =       0.7000
     number of iterations used =            8  local-TF  mixing
     energy convergence thresh.=      1.0E-04
     force convergence thresh. =      1.0E-02
     Exchange-correlation= RVV10
                           (   1   4  13   4  26   0   0)
     nstep                     =          200


     celldm(1)=  17.870686  celldm(2)=   0.000000  celldm(3)=   0.000000
     celldm(4)=   0.000000  celldm(5)=   0.000000  celldm(6)=   0.000000

     crystal axes: (cart. coord. in units of alat)
               a(1) = (   1.000000   0.000000   0.000000 )  
               a(2) = (   0.000000   1.155671   0.000000 )  
               a(3) = (   0.000000   0.000000   2.643601 )  

     reciprocal axes: (cart. coord. in units 2 pi/alat)
               b(1) = (  1.000000  0.000000  0.000000 )  
               b(2) = (  0.000000  0.865298  0.000000 )  
               b(3) = (  0.000000  0.000000  0.378272 )  


     PseudoPot. # 1 for Mo read from file:
     ../pseudo/Mo_ONCV_PBE-1.0.oncvpsp.upf
     MD5 check sum: 1b5d28e075c9ccadda658a603575cd1f
     Pseudo is Norm-conserving, Zval = 14.0
     Generated using ONCVPSP code by D. R. Hamann
     Using radial grid of 1526 points,  6 beta functions with: 
                l(1) =   0
                l(2) =   0
                l(3) =   1
                l(4) =   1
                l(5) =   2
                l(6) =   2

     PseudoPot. # 2 for S  read from file:
     ../pseudo/s_pbe_v1.4.uspp.F.UPF
     MD5 check sum: 88d86576ff6df21479756cfb9bdac1df
     Pseudo is Ultrasoft + core correction, Zval =  6.0
     Generated by new atomic code, or converted to UPF format
     Using radial grid of  907 points,  6 beta functions with: 
                l(1) =   0
                l(2) =   0
                l(3) =   1
                l(4) =   1
                l(5) =   2
                l(6) =   2
     Q(r) pseudized with  8 coefficients,  rinner =    1.300   1.300   1.300
                                                       1.300   1.300

     PseudoPot. # 3 for H  read from file:
     ../pseudo/H_ONCV_PBE-1.0.oncvpsp.upf
     MD5 check sum: 1790becc920ee074925cf490c71280fe
     Pseudo is Norm-conserving, Zval =  1.0
     Generated using ONCVPSP code by D. R. Hamann
     Using radial grid of 1166 points,  2 beta functions with: 
                l(1) =   0
                l(2) =   0

     atomic species   valence    mass     pseudopotential
        Mo            14.00    95.94000     Mo( 1.00)
        S              6.00    32.06500     S ( 1.00)
        H              1.00     1.00794     H ( 1.00)

     No symmetry found



   Cartesian axes

     site n.     atom                  positions (alat units)
         1           Mo  tau(   1) = (   0.6952221   0.1890506   0.2985846  )
         2           S   tau(   2) = (   0.8646417   0.0856217   0.4689279  )
         3           S   tau(   3) = (   0.8663890   0.0857843   0.1351291  )
         4           Mo  tau(   4) = (   0.8560186   0.4753274   0.2873942  )
         5           S   tau(   5) = (   0.6873294   0.3936244   0.4596353  )
         6           S   tau(   6) = (   0.6929804   0.3713468   0.1185692  )
         7           Mo  tau(   7) = (   0.6862796   0.7633098   0.2825370  )
         8           S   tau(   8) = (   0.8545980   0.6708292   0.4486168  )
         9           S   tau(   9) = (   0.8545123   0.6666874   0.1146125  )
        10           Mo  tau(  10) = (   0.8629403   1.0471007   0.3006803  )
        11           S   tau(  11) = (   0.6868280   0.9456650   0.4634891  )
        12           S   tau(  12) = (   0.6998113   0.9568511   0.1205389  )
        13           Mo  tau(  13) = (   0.3618216   0.1847309   0.2935964  )
        14           S   tau(  14) = (   0.5260962   0.0863870   0.4600448  )
        15           S   tau(  15) = (   0.5348379   0.0894875   0.1297123  )
        16           Mo  tau(  16) = (   0.5265817   0.4772436   0.2784130  )
        17           S   tau(  17) = (   0.3624753   0.3882513   0.4525556  )
        18           S   tau(  18) = (   0.3635411   0.3752055   0.1119148  )
        19           Mo  tau(  19) = (   0.3652268   0.7630864   0.2781795  )
        20           S   tau(  20) = (   0.5269494   0.6690381   0.1096838  )
        21           Mo  tau(  21) = (   0.5300192   1.0470394   0.2900995  )
        22           S   tau(  22) = (   0.3670346   0.9457522   0.4574073  )
        23           S   tau(  23) = (   0.3604225   0.9585725   0.1159032  )
        24           Mo  tau(  24) = (   0.0313099   0.1847895   0.3013130  )
        25           S   tau(  25) = (   0.1956761   0.0838230   0.4650863  )
        26           S   tau(  26) = (   0.1967693   0.0903508   0.1278874  )
        27           Mo  tau(  27) = (   0.1967578   0.4753919   0.2813011  )
        28           S   tau(  28) = (   0.0287851   0.3864324   0.4586755  )
        29           S   tau(  29) = (   0.0244514   0.3729871   0.1239344  )
        30           Mo  tau(  30) = (   0.0286728   0.7631204   0.2856894  )
        31           S   tau(  31) = (   0.2011512   0.6675435   0.4465001  )
        32           S   tau(  32) = (   0.1969214   0.6672839   0.1104564  )
        33           Mo  tau(  33) = (   0.1950294   1.0511147   0.2932237  )
        34           S   tau(  34) = (   0.0312912   0.9612169   0.4667423  )
        35           S   tau(  35) = (   0.0292670   0.9563028   0.1216485  )
        36           H   tau(  36) = (   0.1111111   0.2568157   0.5650415  )

     number of k points=     1  Gaussian smearing, width (Ry)=  0.0100
                       cart. coord. in units 2pi/alat
        k(    1) = (   0.0000000   0.0000000   0.0000000), wk =   2.0000000

     Dense  grid:  1177734 G-vectors     FFT dimensions: ( 120, 135, 320)

     Smooth grid:   842757 G-vectors     FFT dimensions: ( 108, 120, 270)

     Estimated max dynamical RAM per process >     146.59 MB

     Estimated total dynamical RAM >       6.87 GB

     Initial potential from superposition of free atoms

     starting charge     306.9873, renormalised to     307.0000

     negative rho (up, down):  1.410E-04 0.000E+00


---------------------------------------------------------------------------------
Carrying out rVV10 run using the following parameters:
Nqs =      20    Nr_points =    1024   r_max =   100.000
b_value =  6.30000    beta =  0.00901
     q_mesh =  0.00010000  0.00030000  0.00058939  0.00100810
               0.00161396  0.00249058  0.00375900  0.00559430
               0.00824984  0.01209221  0.01765183  0.02569619
               0.03733578  0.05417739  0.07854596  0.11380545
               0.16482331  0.23864234  0.34545298  0.50000000

Gradients computed in Reciprocal space

---------------------------------------------------------------------------------


     Starting wfcs are  213 randomized atomic wfcs

     total cpu time spent up to now is        2.8 secs

     Self-consistent Calculation

     iteration #  1     ecut=    80.00 Ry     beta= 0.70
     Davidson diagonalization with overlap
     ethr =  1.00E-02,  avg # of iterations =  2.0

     Threshold (ethr) on eigenvalues was too large:
     Diagonalizing with lowered threshold

     Davidson diagonalization with overlap
     ethr =  3.74E-04,  avg # of iterations =  4.0

     negative rho (up, down):  1.871E-08 0.000E+00

     total cpu time spent up to now is       23.8 secs

     total energy              =   -2205.57487147 Ry
     estimated scf accuracy    <       1.44208337 Ry

     iteration #  2     ecut=    80.00 Ry     beta= 0.70
     Davidson diagonalization with overlap
     ethr =  4.70E-04,  avg # of iterations =  2.0

     total cpu time spent up to now is       26.3 secs

     total energy              =   -2205.45562276 Ry
     estimated scf accuracy    <       0.56522865 Ry

     iteration #  3     ecut=    80.00 Ry     beta= 0.70
     Davidson diagonalization with overlap
     ethr =  1.84E-04,  avg # of iterations =  2.0

     total cpu time spent up to now is       28.8 secs

     total energy              =   -2205.49869833 Ry
     estimated scf accuracy    <       0.15288642 Ry

     iteration #  4     ecut=    80.00 Ry     beta= 0.70
     Davidson diagonalization with overlap
     ethr =  4.98E-05,  avg # of iterations =  9.0

     total cpu time spent up to now is       31.6 secs

     total energy              =   -2205.51471087 Ry
     estimated scf accuracy    <       0.03110621 Ry

     iteration #  5     ecut=    80.00 Ry     beta= 0.70
     Davidson diagonalization with overlap
     ethr =  1.01E-05,  avg # of iterations =  9.0

     total cpu time spent up to now is       34.2 secs

     total energy              =   -2205.51523313 Ry
     estimated scf accuracy    <       0.01827964 Ry

     iteration #  6     ecut=    80.00 Ry     beta= 0.70
     Davidson diagonalization with overlap
     ethr =  5.95E-06,  avg # of iterations =  2.0

     total cpu time spent up to now is       36.5 secs

     total energy              =   -2205.51398610 Ry
     estimated scf accuracy    <       0.01233650 Ry

     iteration #  7     ecut=    80.00 Ry     beta= 0.70
     Davidson diagonalization with overlap
     ethr =  4.02E-06,  avg # of iterations =  2.0

     total cpu time spent up to now is       40.2 secs

     total energy              =   -2205.51260122 Ry
     estimated scf accuracy    <       0.00690226 Ry

     iteration #  8     ecut=    80.00 Ry     beta= 0.70
     Davidson diagonalization with overlap
     c_bands:  1 eigenvalues not converged
     ethr =  2.25E-06,  avg # of iterations = 20.0

     negative rho (up, down):  7.492E-03 0.000E+00

     total cpu time spent up to now is       45.5 secs

     total energy              =   -2205.51214815 Ry
     estimated scf accuracy    <       0.00345836 Ry

     iteration #  9     ecut=    80.00 Ry     beta= 0.70
     Davidson diagonalization with overlap
     c_bands:  1 eigenvalues not converged
     ethr =  1.13E-06,  avg # of iterations = 20.0

     negative rho (up, down):  3.117E-02 0.000E+00

     total cpu time spent up to now is       51.3 secs

     total energy              =   -2205.51213027 Ry
     estimated scf accuracy    <       0.00207167 Ry

     iteration # 10     ecut=    80.00 Ry     beta= 0.70
     Davidson diagonalization with overlap
     c_bands:  1 eigenvalues not converged
     ethr =  6.75E-07,  avg # of iterations = 20.0

     negative rho (up, down):  2.704E-02 0.000E+00

     total cpu time spent up to now is       56.6 secs

     total energy              =   -2205.51216915 Ry
     estimated scf accuracy    <       0.00079350 Ry

     iteration # 11     ecut=    80.00 Ry     beta= 0.70
     Davidson diagonalization with overlap
     ethr =  2.58E-07,  avg # of iterations =  2.0

     negative rho (up, down):  1.436E-02 0.000E+00

     total cpu time spent up to now is       63.7 secs

     total energy              =   -2205.51222186 Ry
     estimated scf accuracy    <       0.00013606 Ry

     iteration # 12     ecut=    80.00 Ry     beta= 0.70
     Davidson diagonalization with overlap
     ethr =  4.43E-08,  avg # of iterations =  5.0

     negative rho (up, down):  2.307E-03 0.000E+00

     total cpu time spent up to now is       70.1 secs

     total energy              =   -2205.51227473 Ry
     estimated scf accuracy    <       0.00002826 Ry

     iteration # 13     ecut=    80.00 Ry     beta= 0.70
     Davidson diagonalization with overlap
     ethr =  9.20E-09,  avg # of iterations =  4.0

     negative rho (up, down):  3.588E-04 0.000E+00

     total cpu time spent up to now is       77.2 secs

     total energy              =   -2205.51228347 Ry
     estimated scf accuracy    <       0.00000204 Ry

     iteration # 14     ecut=    80.00 Ry     beta= 0.70
     Davidson diagonalization with overlap
     ethr =  6.65E-10,  avg # of iterations =  6.0

     negative rho (up, down):  1.372E-04 0.000E+00

     total cpu time spent up to now is       80.1 secs

     End of self-consistent calculation

          k = 0.0000 0.0000 0.0000 (105382 PWs)   bands (ev):

   -62.8964 -62.8767 -62.8560 -62.8402 -62.8333 -62.8249 -62.8097 -62.8080
   -62.7974 -62.7920 -62.7763 -62.7585 -37.2332 -37.1696 -37.1533 -37.1451
   -37.1273 -37.1115 -37.0918 -37.0766 -37.0733 -37.0700 -37.0656 -37.0410
   -37.0371 -37.0255 -37.0209 -37.0188 -37.0129 -36.9999 -36.9984 -36.9814
   -36.9681 -36.9598 -36.9573 -36.9402 -36.9294 -36.9251 -36.9202 -36.9081
   -36.8962 -36.8882 -36.8743 -36.8531 -36.8513 -36.8109 -36.7538 -36.7158
   -16.0304 -15.2931 -15.1435 -15.0580 -14.9500 -14.8131 -14.6263 -14.5229
   -14.4877 -14.4509 -14.3990 -14.3642 -14.3382 -14.2906 -14.2022 -14.1394
   -14.1327 -14.1123 -14.0215 -13.9521 -13.8461 -13.8162 -13.7982  -8.1314
    -7.5922  -7.4398  -7.3025  -7.2783  -7.2571  -7.1991  -7.1420  -7.0094
    -6.8412  -6.7982  -6.7700  -6.6822  -6.6120  -6.5210  -6.4672  -6.4317
    -6.2851  -6.2398  -6.0499  -5.9934  -5.9481  -5.9168  -5.8537  -5.7887
    -5.7599  -5.7341  -5.6890  -5.6650  -5.6291  -5.5879  -5.5593  -5.5039
    -5.4555  -5.3776  -5.2021  -5.1319  -5.0745  -5.0363  -4.9841  -4.9766
    -4.9424  -4.8324  -4.6554  -4.5234  -4.3479  -4.3304  -4.3063  -4.2768
    -4.1847  -4.1061  -4.0395  -3.8798  -3.8189  -3.7911  -3.7483  -3.7184
    -3.6543  -3.6052  -3.5606  -3.5159  -3.5026  -3.4739  -3.4574  -3.3904
    -3.3660  -3.2187  -3.1298  -2.9164  -2.9079  -2.8049  -2.7736  -2.7377
    -2.7251  -2.6884  -2.6450  -2.6301  -2.5792  -2.3025  -2.0610  -2.0019
    -1.9158  -0.9838  -0.7919  -0.7151  -0.1822  -0.1492  -0.1160  -0.0465
     0.0010   0.1165   0.2193   0.2259   0.2695   0.3006   0.3368   0.4305
     0.4579   0.5063   0.5543   0.5806   0.6217   0.6578   0.6943   0.7423
     0.7709   0.7796   0.8285   0.8706   0.9087   0.9550   1.0139   1.2614
     1.3744

     the Fermi energy is    -0.9892 ev

!    total energy              =   -2205.51228991 Ry
     estimated scf accuracy    <       0.00000034 Ry
     smearing contrib. (-TS)   =      -0.00641959 Ry
     internal energy E=F+TS    =   -2205.50587032 Ry

     The total energy is F=E-TS. E is the sum of the following terms:
     one-electron contribution =  -18047.66798153 Ry
     hartree contribution      =    9010.49420439 Ry
     xc contribution           =    -385.23317759 Ry
     ewald contribution        =    7216.90108441 Ry

     convergence has been achieved in  14 iterations

     negative rho (up, down):  1.372E-04 0.000E+00

     Forces acting on atoms (cartesian axes, Ry/au):

     atom    1 type  1   force =     0.01396699   -0.02447849    0.00265103
     atom    2 type  2   force =    -0.01416667    0.01716426    0.00153510
     atom    3 type  2   force =    -0.01191543    0.00954737   -0.00265911
     atom    4 type  1   force =    -0.01439216    0.00965747   -0.02458825
     atom    5 type  2   force =    -0.00388852   -0.00406716   -0.00821173
     atom    6 type  2   force =     0.00341703    0.00638378   -0.00063951
     atom    7 type  1   force =     0.00117206   -0.00629060   -0.00862944
     atom    8 type  2   force =     0.00310311   -0.00308715    0.02068138
     atom    9 type  2   force =     0.01004031    0.00283096    0.01127609
     atom   10 type  1   force =    -0.00966422    0.01025519   -0.02709808
     atom   11 type  2   force =     0.00385142   -0.00233085   -0.00724375
     atom   12 type  2   force =    -0.00082648    0.00082795    0.00652246
     atom   13 type  1   force =     0.00495532    0.00488381   -0.00441960
     atom   14 type  2   force =     0.00865491   -0.00022671    0.01229405
     atom   15 type  2   force =    -0.01037728    0.00185555   -0.00961829
     atom   16 type  1   force =    -0.00070620    0.01268560    0.00846905
     atom   17 type  2   force =     0.00491489    0.00049047   -0.00112748
     atom   18 type  2   force =    -0.00380590   -0.00788841    0.01196792
     atom   19 type  1   force =     0.00861938   -0.01041110   -0.00392248
     atom   20 type  2   force =     0.00352110   -0.00488506    0.00159347
     atom   21 type  1   force =    -0.00503208    0.00551870    0.00041524
     atom   22 type  2   force =    -0.00278829   -0.00143784   -0.00268573
     atom   23 type  2   force =    -0.00269613    0.00147939    0.01015558
     atom   24 type  1   force =    -0.02108665   -0.01467168   -0.05571228
     atom   25 type  2   force =     0.01270063    0.04309508    0.02849426
     atom   26 type  2   force =    -0.01165470   -0.00124263   -0.00462799
     atom   27 type  1   force =     0.00322945   -0.00083045    0.01059167
     atom   28 type  2   force =     0.03924006   -0.03737494    0.04802173
     atom   29 type  2   force =     0.00179288   -0.00031527   -0.00208630
     atom   30 type  1   force =    -0.00512136    0.00578668   -0.00475609
     atom   31 type  2   force =     0.00065745    0.00246298    0.01688231
     atom   32 type  2   force =    -0.00925982    0.00833533    0.00609121
     atom   33 type  1   force =     0.01259573   -0.01262786   -0.02217734
     atom   34 type  2   force =     0.00230346   -0.04569289   -0.00887191
     atom   35 type  2   force =    -0.00697808    0.00796672    0.01590930
     atom   36 type  3   force =    -0.00437623    0.02663181   -0.01447650
     The non-local contrib.  to forces
     atom    1 type  1   force =    -0.00129731    0.03170702   -0.01278568
     atom    2 type  2   force =    -0.00862053    0.00206206   -0.26404984
     atom    3 type  2   force =    -0.01495193   -0.00247426    0.27189624
     atom    4 type  1   force =     0.00611334   -0.00340349    0.00153908
     atom    5 type  2   force =     0.00052001   -0.03260488   -0.24744717
     atom    6 type  2   force =    -0.00254311    0.01397491    0.26390594
     atom    7 type  1   force =    -0.02074241   -0.00109618   -0.01735062
     atom    8 type  2   force =     0.00225404    0.00206094   -0.25020181
     atom    9 type  2   force =     0.00854621   -0.01064306    0.27898564
     atom   10 type  1   force =     0.00487498   -0.00027979   -0.00181756
     atom   11 type  2   force =     0.01324022    0.00667421   -0.25935656
     atom   12 type  2   force =    -0.01165166   -0.01620131    0.26326621
     atom   13 type  1   force =    -0.00319607    0.01526921   -0.00625182
     atom   14 type  2   force =     0.01184671   -0.00952044   -0.26178564
     atom   15 type  2   force =    -0.01346343   -0.00418012    0.26174161
     atom   16 type  1   force =     0.00042872    0.03089711   -0.03120028
     atom   17 type  2   force =    -0.00058915   -0.03109869   -0.24502562
     atom   18 type  2   force =    -0.00226722   -0.00369348    0.27166095
     atom   19 type  1   force =     0.01513677   -0.00179188   -0.01347046
     atom   20 type  2   force =    -0.00014218   -0.02206873    0.26637584
     atom   21 type  1   force =     0.00411486    0.02226846    0.00704482
     atom   22 type  2   force =    -0.00698054    0.00373470   -0.25887641
     atom   23 type  2   force =     0.00554587   -0.01524702    0.26822609
     atom   24 type  1   force =     0.00314601    0.01527618   -0.00350690
     atom   25 type  2   force =    -0.01092385    0.07187137   -0.17909901
     atom   26 type  2   force =    -0.00279636   -0.01300697    0.26556302
     atom   27 type  1   force =    -0.00513748    0.00611039    0.00946527
     atom   28 type  2   force =     0.10641588   -0.18005627   -0.10461620
     atom   29 type  2   force =     0.00794066    0.00197020    0.26589190
     atom   30 type  1   force =     0.00155591    0.02095820    0.00973244
     atom   31 type  2   force =    -0.00782886    0.00242332   -0.25223907
     atom   32 type  2   force =    -0.00301236   -0.01096833    0.27526373
     atom   33 type  1   force =    -0.00826386    0.00802332   -0.00029380
     atom   34 type  2   force =    -0.00310425   -0.04055194   -0.27187645
     atom   35 type  2   force =    -0.00003397   -0.01084823    0.27061818
     atom   36 type  3   force =    -0.00465986    0.00815969   -0.01227709
     The ionic contribution  to forces
     atom    1 type  1   force =     0.27181053    0.17673586    5.58466622
     atom    2 type  2   force =    -0.91618131    0.21027454   39.19174589
     atom    3 type  2   force =    -0.20077417   -0.01953919  -36.13636234
     atom    4 type  1   force =    -0.09659665    0.77895967    0.48872731
     atom    5 type  2   force =    -1.03860201    1.55330294   38.72440788
     atom    6 type  2   force =     0.32940662   -0.48501664  -38.04858604
     atom    7 type  1   force =    -2.63777786   -2.73795227    2.58154294
     atom    8 type  2   force =    -1.03557318    0.11059397   37.37976400
     atom    9 type  2   force =     0.32693371   -0.01028979  -38.00741567
     atom   10 type  1   force =    -1.19798878   -0.47427971    5.60354455
     atom   11 type  2   force =    -0.57905521   -1.63845536   39.14558364
     atom   12 type  2   force =     0.43576080    0.67899233  -37.84484157
     atom   13 type  1   force =     0.80047045    0.87440596    2.52215689
     atom   14 type  2   force =     0.13174136   -0.07511854   38.49709205
     atom   15 type  2   force =     0.17231319   -0.08608219  -36.82368893
     atom   16 type  1   force =     0.04989999    4.05640940    0.41668925
     atom   17 type  2   force =     1.09865892    1.66495868   37.81196060
     atom   18 type  2   force =    -0.12565317   -0.62290012  -38.61720530
     atom   19 type  1   force =     2.77002258   -2.38820142    0.64447225
     atom   20 type  2   force =     0.23613883   -0.17800743  -38.47263513
     atom   21 type  1   force =     0.08052584   -0.04315986    1.15385695
     atom   22 type  2   force =     0.49700822   -1.76915884   38.42930427
     atom   23 type  2   force =    -0.07335497    0.64740721  -38.28912907
     atom   24 type  1   force =    -0.82647949    0.87685206    4.96629220
     atom   25 type  2   force =     0.95466904   -0.33797321   38.93017710
     atom   26 type  2   force =    -0.26794310    0.01809200  -37.41841948
     atom   27 type  1   force =     0.14927378    0.74386965   -2.62473611
     atom   28 type  2   force =    -0.41008986    1.74092122   37.62364075
     atom   29 type  2   force =    -0.28878650   -0.39261456  -37.36389451
     atom   30 type  1   force =    -0.36932795   -0.82281605   -0.06742280
     atom   31 type  2   force =     1.25867691    0.07755234   37.30092581
     atom   32 type  2   force =    -0.47303103    0.02637776  -38.64951486
     atom   33 type  1   force =     0.84947818   -1.08863080    1.93809811
     atom   34 type  2   force =     0.21497720   -1.53989675   39.34198220
     atom   35 type  2   force =    -0.30750655    0.45394383  -37.82285757
     atom   36 type  3   force =     0.21695564    0.02044330    7.91007853
     The local contribution  to forces
     atom    1 type  1   force =    -0.25665794   -0.23276888   -5.56905756
     atom    2 type  2   force =     0.91060321   -0.19502253  -38.94630220
     atom    3 type  2   force =     0.20312954    0.03145317   35.88267920
     atom    4 type  1   force =     0.07593749   -0.76585609   -0.51485134
     atom    5 type  2   force =     1.03451517   -1.52654748  -38.50519222
     atom    6 type  2   force =    -0.32389939    0.47873998   37.80489347
     atom    7 type  1   force =     2.65979778    2.73288616   -2.57279852
     atom    8 type  2   force =     1.03652941   -0.11606711  -37.12886797
     atom    9 type  2   force =    -0.32522457    0.02315321   37.76058659
     atom   10 type  1   force =     1.18348113    0.48471110   -5.62862667
     atom   11 type  2   force =     0.57034019    1.63008140  -38.91392868
     atom   12 type  2   force =    -0.42597001   -0.66341574   37.60881010
     atom   13 type  1   force =    -0.79228016   -0.88441391   -2.52010308
     atom   14 type  2   force =    -0.13438154    0.08444159  -38.24339062
     atom   15 type  2   force =    -0.16996420    0.09185384   36.57281842
     atom   16 type  1   force =    -0.05132421   -4.07493755   -0.37688975
     atom   17 type  2   force =    -1.09327126   -1.63492906  -37.58804206
     atom   18 type  2   force =     0.12421650    0.61929394   38.37839312
     atom   19 type  1   force =    -2.77682552    2.37953398   -0.63495977
     atom   20 type  2   force =    -0.23270771    0.19429997   38.22892974
     atom   21 type  1   force =    -0.08964220    0.02625251   -1.16035888
     atom   22 type  2   force =    -0.49303778    1.76445708  -38.19346772
     atom   23 type  2   force =     0.06555122   -0.63212948   38.05181738
     atom   24 type  1   force =     0.80226280   -0.90693138   -5.01827109
     atom   25 type  2   force =    -0.93219143    0.31324667  -38.73868919
     atom   26 type  2   force =     0.25924103   -0.00706065   37.16905648
     atom   27 type  1   force =    -0.14050024   -0.75071924    2.62589267
     atom   28 type  2   force =     0.34884130   -1.60892399  -37.48201121
     atom   29 type  2   force =     0.28328025    0.39100865   37.11647022
     atom   30 type  1   force =     0.36277853    0.80771855    0.05286573
     atom   31 type  2   force =    -1.25060339   -0.07760418  -37.05215336
     atom   32 type  2   force =     0.46700941   -0.00768900   38.40132586
     atom   33 type  1   force =    -0.82869735    1.06781719   -1.95980948
     atom   34 type  2   force =    -0.21009295    1.53354010  -39.09985682
     atom   35 type  2   force =     0.30072184   -0.43617936   37.58909399
     atom   36 type  3   force =    -0.21667117   -0.00197689   -7.91224099
     The core correction contribution to forces
     atom    1 type  1   force =     0.00000000    0.00000000    0.00000000
     atom    2 type  2   force =     0.00007496   -0.00024043    0.02038364
     atom    3 type  2   force =     0.00070289    0.00002053   -0.02096839
     atom    4 type  1   force =     0.00000000    0.00000000    0.00000000
     atom    5 type  2   force =    -0.00037380    0.00180884    0.02009637
     atom    6 type  2   force =     0.00033590   -0.00119519   -0.02090327
     atom    7 type  1   force =     0.00000000    0.00000000    0.00000000
     atom    8 type  2   force =    -0.00009357    0.00030396    0.02016963
     atom    9 type  2   force =    -0.00020276    0.00060861   -0.02107883
     atom   10 type  1   force =     0.00000000    0.00000000    0.00000000
     atom   11 type  2   force =    -0.00061299   -0.00061674    0.02061815
     atom   12 type  2   force =     0.00109474    0.00136307   -0.02083322
     atom   13 type  1   force =     0.00000000    0.00000000    0.00000000
     atom   14 type  2   force =    -0.00059913   -0.00002515    0.02059159
     atom   15 type  2   force =     0.00072290    0.00029153   -0.02060241
     atom   16 type  1   force =     0.00000000    0.00000000    0.00000000
     atom   17 type  2   force =     0.00019481    0.00161726    0.02002675
     atom   18 type  2   force =    -0.00001884   -0.00046262   -0.02093031
     atom   19 type  1   force =     0.00000000    0.00000000    0.00000000
     atom   20 type  2   force =     0.00013428    0.00084099   -0.02122045
     atom   21 type  1   force =     0.00000000    0.00000000    0.00000000
     atom   22 type  2   force =     0.00019780   -0.00051433    0.02052405
     atom   23 type  2   force =    -0.00049486    0.00128029   -0.02091264
     atom   24 type  1   force =     0.00000000    0.00000000    0.00000000
     atom   25 type  2   force =     0.00115662   -0.00413388    0.01639519
     atom   26 type  2   force =    -0.00016770    0.00071068   -0.02095188
     atom   27 type  1   force =     0.00000000    0.00000000    0.00000000
     atom   28 type  2   force =    -0.00596572    0.01073557    0.01133400
     atom   29 type  2   force =    -0.00063619   -0.00059747   -0.02073164
     atom   30 type  1   force =     0.00000000    0.00000000    0.00000000
     atom   31 type  2   force =     0.00048387    0.00004443    0.02044866
     atom   32 type  2   force =    -0.00012403    0.00065396   -0.02111318
     atom   33 type  1   force =     0.00000000    0.00000000    0.00000000
     atom   34 type  2   force =     0.00047270    0.00128080    0.02104192
     atom   35 type  2   force =    -0.00017190    0.00098207   -0.02106725
     atom   36 type  3   force =     0.00000000    0.00000000    0.00000000
     The Hubbard contrib.    to forces
     atom    1 type  1   force =     0.00000000    0.00000000    0.00000000
     atom    2 type  2   force =     0.00000000    0.00000000    0.00000000
     atom    3 type  2   force =     0.00000000    0.00000000    0.00000000
     atom    4 type  1   force =     0.00000000    0.00000000    0.00000000
     atom    5 type  2   force =     0.00000000    0.00000000    0.00000000
     atom    6 type  2   force =     0.00000000    0.00000000    0.00000000
     atom    7 type  1   force =     0.00000000    0.00000000    0.00000000
     atom    8 type  2   force =     0.00000000    0.00000000    0.00000000
     atom    9 type  2   force =     0.00000000    0.00000000    0.00000000
     atom   10 type  1   force =     0.00000000    0.00000000    0.00000000
     atom   11 type  2   force =     0.00000000    0.00000000    0.00000000
     atom   12 type  2   force =     0.00000000    0.00000000    0.00000000
     atom   13 type  1   force =     0.00000000    0.00000000    0.00000000
     atom   14 type  2   force =     0.00000000    0.00000000    0.00000000
     atom   15 type  2   force =     0.00000000    0.00000000    0.00000000
     atom   16 type  1   force =     0.00000000    0.00000000    0.00000000
     atom   17 type  2   force =     0.00000000    0.00000000    0.00000000
     atom   18 type  2   force =     0.00000000    0.00000000    0.00000000
     atom   19 type  1   force =     0.00000000    0.00000000    0.00000000
     atom   20 type  2   force =     0.00000000    0.00000000    0.00000000
     atom   21 type  1   force =     0.00000000    0.00000000    0.00000000
     atom   22 type  2   force =     0.00000000    0.00000000    0.00000000
     atom   23 type  2   force =     0.00000000    0.00000000    0.00000000
     atom   24 type  1   force =     0.00000000    0.00000000    0.00000000
     atom   25 type  2   force =     0.00000000    0.00000000    0.00000000
     atom   26 type  2   force =     0.00000000    0.00000000    0.00000000
     atom   27 type  1   force =     0.00000000    0.00000000    0.00000000
     atom   28 type  2   force =     0.00000000    0.00000000    0.00000000
     atom   29 type  2   force =     0.00000000    0.00000000    0.00000000
     atom   30 type  1   force =     0.00000000    0.00000000    0.00000000
     atom   31 type  2   force =     0.00000000    0.00000000    0.00000000
     atom   32 type  2   force =     0.00000000    0.00000000    0.00000000
     atom   33 type  1   force =     0.00000000    0.00000000    0.00000000
     atom   34 type  2   force =     0.00000000    0.00000000    0.00000000
     atom   35 type  2   force =     0.00000000    0.00000000    0.00000000
     atom   36 type  3   force =     0.00000000    0.00000000    0.00000000
     The SCF correction term to forces
     atom    1 type  1   force =     0.00011134   -0.00015654   -0.00016903
     atom    2 type  2   force =    -0.00004337    0.00008656   -0.00023947
     atom    3 type  2   force =    -0.00002213    0.00008307    0.00009911
     atom    4 type  1   force =     0.00015329   -0.00004668   -0.00000037
     atom    5 type  2   force =     0.00005174   -0.00003064   -0.00007367
     atom    6 type  2   force =     0.00011664   -0.00012333    0.00005332
     atom    7 type  1   force =    -0.00010583   -0.00013237   -0.00002031
     atom    8 type  2   force =    -0.00001396    0.00001702   -0.00017955
     atom    9 type  2   force =    -0.00001265   -0.00000208    0.00020130
     atom   10 type  1   force =    -0.00003193    0.00009953   -0.00019547
     atom   11 type  2   force =    -0.00006115   -0.00001842   -0.00015737
     atom   12 type  2   force =    -0.00006072    0.00008554    0.00012387
     atom   13 type  1   force =    -0.00003927   -0.00038150   -0.00021867
     atom   14 type  2   force =     0.00004713   -0.00000823   -0.00021040
     atom   15 type  2   force =     0.00001390   -0.00003157    0.00011596
     atom   16 type  1   force =     0.00028892    0.00031258   -0.00012723
     atom   17 type  2   force =    -0.00007880   -0.00006178   -0.00004423
     atom   18 type  2   force =    -0.00008354   -0.00013019    0.00005240
     atom   19 type  1   force =     0.00028518    0.00004417    0.00003843
     atom   20 type  2   force =     0.00009750    0.00004607    0.00014641
     atom   21 type  1   force =    -0.00003095    0.00015354   -0.00012473
     atom   22 type  2   force =     0.00002365    0.00003949   -0.00016700
     atom   23 type  2   force =     0.00005623    0.00016434    0.00015674
     atom   24 type  1   force =    -0.00001633    0.00012740   -0.00022356
     atom   25 type  2   force =    -0.00001013    0.00008008   -0.00028690
     atom   26 type  2   force =     0.00001107    0.00001826    0.00012680
     atom   27 type  1   force =    -0.00040698   -0.00009530   -0.00002723
     atom   28 type  2   force =     0.00003810   -0.00005552   -0.00032268
     atom   29 type  2   force =    -0.00000572   -0.00008616    0.00018066
     atom   30 type  1   force =    -0.00012822   -0.00007807    0.00007146
     atom   31 type  2   force =    -0.00007144    0.00004302   -0.00009680
     atom   32 type  2   force =    -0.00010219   -0.00004312    0.00013258
     atom   33 type  1   force =     0.00007839    0.00015837   -0.00016925
     atom   34 type  2   force =     0.00005039   -0.00006917   -0.00015982
     atom   35 type  2   force =     0.00001213    0.00006436    0.00012487
     atom   36 type  3   force =    -0.00000122    0.00000165   -0.00003403

     Total force =     0.151065     Total SCF correction =     0.001357

     BFGS Geometry Optimization
     Energy error            =      0.0E+00 Ry
     Gradient error          =      5.6E-02 Ry/Bohr

     number of scf cycles    =   1
     number of bfgs steps    =   0

     energy             new  =   -2205.5122899084 Ry

     new trust radius        =       0.0724068736 bohr
     new conv_thr            =       0.0000010000 Ry


ATOMIC_POSITIONS (angstrom)
Mo            6.5819394214        1.7748527717        2.8250458976
S             8.1692126624        0.8187869619        4.4353506924
S             8.1869277142        0.8162939938        1.2764762870
Mo            8.0875465631        4.5001674576        2.7048068546
S             6.4978515389        3.7202592368        4.3423151883
S             6.5551580124        3.5151157074        1.1209418120
Mo            6.4906019226        7.2151084440        2.6673179830
S             8.0833698246        6.3422373410        4.2534056784
S             8.0862307517        6.3062003946        1.0898300509
Mo            8.1555049616        9.9076072276        2.8291220757
S             6.4972056821        8.9416933798        4.3792723050
S             6.6175098478        9.0491493476        1.1433588423
Mo            3.4242819037        1.7495402516        2.7741324085
S             4.9797454719        0.8168212405        4.3570388253
S             5.0523423359        0.8472440211        1.2215686824
Mo            4.9793829754        4.5198909320        2.6373661779
S             3.4304425112        3.6718592304        4.2791129411
S             3.4359065847        3.5440543293        1.0646848339
Mo            3.4584229184        7.2108152227        2.6286011730
S             4.9850974765        6.3243472233        1.0380969607
Mo            5.0096010574        9.9045204209        2.7436206967
S             3.4694826198        8.9429903982        4.3241700856
S             3.4070024339        9.0657728407        1.1014423996
Mo            0.2849319139        1.7397456100        2.8199630419
S             1.8571830973        0.8154989421        4.4132879498
S             1.8546326345        0.8537683492        1.2069518272
Mo            1.8624002625        4.4952273043        2.6658022516
S             0.2929787954        3.6346208604        4.3629961066
S             0.2321799595        3.5270823902        1.1709138595
Mo            0.2684420431        7.2197082757        2.6991796130
S             1.9025861533        6.3141021865        4.2313778538
S             1.8573381292        6.3147546802        1.0477826111
Mo            1.8510120377        9.9334567772        2.7612105067
S             0.2971318357        9.0658181904        4.4091746549
S             0.2730787588        9.0477415233        1.1588196173
H             1.0484353108        2.4427373910        5.3358011264



     Writing config-only to output data dir ./MoS2-V-O.save/
     NEW-OLD atomic charge density approx. for the potential

     negative rho (up, down):  1.470E-04 0.000E+00

     total cpu time spent up to now is       83.5 secs

     Self-consistent Calculation

     iteration #  1     ecut=    80.00 Ry     beta= 0.70
     Davidson diagonalization with overlap
     ethr =  1.00E-06,  avg # of iterations = 10.0

     negative rho (up, down):  9.333E-05 0.000E+00

     total cpu time spent up to now is      103.9 secs

     total energy              =   -2205.53071522 Ry
     estimated scf accuracy    <       0.00193825 Ry

     iteration #  2     ecut=    80.00 Ry     beta= 0.70
     Davidson diagonalization with overlap
     ethr =  6.31E-07,  avg # of iterations =  2.0

     negative rho (up, down):  7.837E-05 0.000E+00

     total cpu time spent up to now is      120.1 secs

     total energy              =   -2205.53075693 Ry
     estimated scf accuracy    <       0.00040791 Ry

     iteration #  3     ecut=    80.00 Ry     beta= 0.70
     Davidson diagonalization with overlap
     ethr =  1.33E-07,  avg # of iterations =  4.0

     negative rho (up, down):  7.165E-05 0.000E+00

     total cpu time spent up to now is      134.3 secs

     total energy              =   -2205.53079943 Ry
     estimated scf accuracy    <       0.00009832 Ry

     iteration #  4     ecut=    80.00 Ry     beta= 0.70
     Davidson diagonalization with overlap
     ethr =  3.20E-08,  avg # of iterations = 20.0

     negative rho (up, down):  6.869E-05 0.000E+00

     total cpu time spent up to now is      150.6 secs

     total energy              =   -2205.53082051 Ry
     estimated scf accuracy    <       0.00000857 Ry

     iteration #  5     ecut=    80.00 Ry     beta= 0.70
     Davidson diagonalization with overlap
     ethr =  2.79E-09,  avg # of iterations =  4.0

     negative rho (up, down):  6.453E-05 0.000E+00

     total cpu time spent up to now is      159.8 secs

     total energy              =   -2205.53082216 Ry
     estimated scf accuracy    <       0.00000286 Ry

     iteration #  6     ecut=    80.00 Ry     beta= 0.70
     Davidson diagonalization with overlap
     ethr =  9.32E-10,  avg # of iterations =  4.0

     negative rho (up, down):  6.501E-05 0.000E+00

     total cpu time spent up to now is      174.7 secs

     total energy              =   -2205.53082276 Ry
     estimated scf accuracy    <       0.00000137 Ry

     iteration #  7     ecut=    80.00 Ry     beta= 0.70
     Davidson diagonalization with overlap
     ethr =  4.47E-10,  avg # of iterations =  2.0

     negative rho (up, down):  1.376E-04 0.000E+00

     total cpu time spent up to now is      176.8 secs

     End of self-consistent calculation

          k = 0.0000 0.0000 0.0000 (105382 PWs)   bands (ev):

   -62.9011 -62.8710 -62.8494 -62.8314 -62.8270 -62.8240 -62.8055 -62.8031
   -62.7932 -62.7908 -62.7726 -62.7535 -37.2286 -37.1680 -37.1476 -37.1387
   -37.1207 -37.1036 -37.0943 -37.0753 -37.0670 -37.0653 -37.0586 -37.0343
   -37.0305 -37.0199 -37.0156 -37.0108 -37.0090 -36.9953 -36.9944 -36.9764
   -36.9639 -36.9579 -36.9543 -36.9353 -36.9240 -36.9225 -36.9132 -36.9046
   -36.8908 -36.8832 -36.8685 -36.8481 -36.8463 -36.8082 -36.7524 -36.7126
   -16.0239 -15.2940 -15.1309 -15.0478 -14.9493 -14.8166 -14.6126 -14.5058
   -14.4899 -14.4406 -14.4006 -14.3575 -14.3296 -14.2946 -14.2007 -14.1351
   -14.1336 -14.1130 -14.0203 -13.9308 -13.8528 -13.8278 -13.7879  -8.1637
    -7.5798  -7.4356  -7.2856  -7.2757  -7.2427  -7.1971  -7.1435  -7.0215
    -6.8260  -6.7951  -6.7602  -6.6663  -6.6202  -6.5111  -6.4709  -6.4146
    -6.2836  -6.2297  -6.0543  -5.9844  -5.9406  -5.9036  -5.8317  -5.7848
    -5.7606  -5.7336  -5.6795  -5.6684  -5.6358  -5.5936  -5.5575  -5.4810
    -5.4445  -5.3514  -5.1693  -5.1201  -5.0762  -5.0272  -4.9809  -4.9677
    -4.9418  -4.8365  -4.6497  -4.5255  -4.3271  -4.3142  -4.3036  -4.2720
    -4.2067  -4.1237  -4.0566  -3.8724  -3.8137  -3.7911  -3.7458  -3.7028
    -3.6600  -3.5885  -3.5593  -3.5295  -3.4904  -3.4720  -3.4574  -3.4019
    -3.3561  -3.2158  -3.1296  -2.9108  -2.8970  -2.7963  -2.7687  -2.7396
    -2.7179  -2.6876  -2.6525  -2.6275  -2.5750  -2.3009  -2.0642  -2.0044
    -1.9329  -0.9810  -0.7693  -0.7154  -0.1730  -0.1533  -0.1133  -0.0422
     0.0099   0.1150   0.2242   0.2426   0.2842   0.3085   0.3522   0.4333
     0.4691   0.5147   0.5562   0.5792   0.6328   0.6544   0.7097   0.7468
     0.7605   0.7802   0.8455   0.8887   0.9104   0.9742   1.0149   1.2694
     1.3878

     the Fermi energy is    -0.9846 ev

!    total energy              =   -2205.53082225 Ry
     estimated scf accuracy    <       0.00000067 Ry
     smearing contrib. (-TS)   =      -0.00621163 Ry
     internal energy E=F+TS    =   -2205.52461061 Ry

     The total energy is F=E-TS. E is the sum of the following terms:
     one-electron contribution =  -18044.65344867 Ry
     hartree contribution      =    9009.06231563 Ry
     xc contribution           =    -385.22703767 Ry
     ewald contribution        =    7215.29356010 Ry

     convergence has been achieved in   7 iterations

     negative rho (up, down):  1.376E-04 0.000E+00

     Forces acting on atoms (cartesian axes, Ry/au):

     atom    1 type  1   force =     0.00369092   -0.01230309   -0.00029421
     atom    2 type  2   force =    -0.00764774    0.01094656   -0.00319840
     atom    3 type  2   force =    -0.01499635    0.00524679   -0.01407111
     atom    4 type  1   force =    -0.00369077    0.00531874   -0.00878614
     atom    5 type  2   force =    -0.00051353   -0.00370957   -0.00935572
     atom    6 type  2   force =    -0.00000303    0.00332648   -0.00029046
     atom    7 type  1   force =     0.00314476   -0.00452797   -0.00093884
     atom    8 type  2   force =     0.00211244   -0.00471051    0.01318188
     atom    9 type  2   force =     0.00779239    0.00399150    0.00472525
     atom   10 type  1   force =    -0.00362605    0.00775535   -0.00833606
     atom   11 type  2   force =     0.00330241   -0.00161148   -0.00927957
     atom   12 type  2   force =    -0.00305490    0.00084562    0.00149746
     atom   13 type  1   force =     0.00379912    0.00344051   -0.00012839
     atom   14 type  2   force =     0.00636666   -0.00033036    0.00801027
     atom   15 type  2   force =    -0.00758860    0.00108242   -0.00778608
     atom   16 type  1   force =    -0.00058933    0.00760943    0.00568966
     atom   17 type  2   force =     0.00586999    0.00143870   -0.00027624
     atom   18 type  2   force =    -0.00278978   -0.00491491    0.00998210
     atom   19 type  1   force =     0.00541477   -0.00733544    0.00114149
     atom   20 type  2   force =     0.00321404   -0.00439415   -0.00218119
     atom   21 type  1   force =    -0.00429877    0.00317823    0.00267228
     atom   22 type  2   force =    -0.00205951   -0.00161216   -0.00396909
     atom   23 type  2   force =    -0.00008035   -0.00072889    0.00468168
     atom   24 type  1   force =    -0.00870649   -0.00798985   -0.02032906
     atom   25 type  2   force =     0.00495545    0.02995823    0.01006286
     atom   26 type  2   force =    -0.00621083   -0.00258974   -0.00813188
     atom   27 type  1   force =     0.00220118   -0.00122992    0.01098500
     atom   28 type  2   force =     0.02955975   -0.03727925    0.03652233
     atom   29 type  2   force =     0.00106646    0.00316031   -0.00424909
     atom   30 type  1   force =    -0.00414248   -0.00123996    0.00345709
     atom   31 type  2   force =     0.00014975    0.00221789    0.01119253
     atom   32 type  2   force =    -0.00742186    0.00580313    0.00517954
     atom   33 type  1   force =     0.00572231   -0.00264459   -0.00219120
     atom   34 type  2   force =     0.00071523   -0.03304727   -0.01490916
     atom   35 type  2   force =    -0.00579806    0.00697822    0.00753903
     atom   36 type  3   force =    -0.00585923    0.02990103   -0.01781856
     The non-local contrib.  to forces
     atom    1 type  1   force =     0.00108925    0.02861473   -0.01377534
     atom    2 type  2   force =    -0.00463607   -0.00255861   -0.26375842
     atom    3 type  2   force =    -0.01586738   -0.00693242    0.26247562
     atom    4 type  1   force =     0.00388234   -0.00237991    0.00113296
     atom    5 type  2   force =     0.00116029   -0.03312047   -0.24779347
     atom    6 type  2   force =    -0.00542558    0.01148434    0.26514369
     atom    7 type  1   force =    -0.02057584   -0.00155121   -0.01914725
     atom    8 type  2   force =     0.00084496    0.00315639   -0.25395943
     atom    9 type  2   force =     0.00627857   -0.00995617    0.27490848
     atom   10 type  1   force =     0.00374348    0.00023359   -0.00319982
     atom   11 type  2   force =     0.01220321    0.00718769   -0.26127237
     atom   12 type  2   force =    -0.01268013   -0.01646336    0.26113394
     atom   13 type  1   force =    -0.00232283    0.01603675   -0.00750429
     atom   14 type  2   force =     0.01021216   -0.00887670   -0.26361549
     atom   15 type  2   force =    -0.01129940   -0.00499645    0.26250261
     atom   16 type  1   force =     0.00078164    0.03232392   -0.03323872
     atom   17 type  2   force =    -0.00005018   -0.02987673   -0.24587275
     atom   18 type  2   force =    -0.00077286   -0.00118372    0.27127988
     atom   19 type  1   force =     0.01681150   -0.00107249   -0.01403238
     atom   20 type  2   force =     0.00001931   -0.02069883    0.26333735
     atom   21 type  1   force =     0.00336479    0.02240795    0.00563856
     atom   22 type  2   force =    -0.00521443    0.00239733   -0.25997763
     atom   23 type  2   force =     0.00726635   -0.01742100    0.26530219
     atom   24 type  1   force =     0.00013914    0.01443268   -0.00167308
     atom   25 type  2   force =    -0.01400911    0.06090716   -0.19084719
     atom   26 type  2   force =     0.00039234   -0.01377162    0.26471900
     atom   27 type  1   force =    -0.00518445    0.00471739    0.00676266
     atom   28 type  2   force =     0.11438360   -0.19284321   -0.10419863
     atom   29 type  2   force =     0.00630687    0.00176308    0.26672507
     atom   30 type  1   force =     0.00126013    0.02184852    0.00789517
     atom   31 type  2   force =    -0.00784945    0.00188247   -0.25593134
     atom   32 type  2   force =    -0.00060259   -0.01226891    0.27500337
     atom   33 type  1   force =    -0.00663366    0.00528885   -0.00305197
     atom   34 type  2   force =    -0.00508048   -0.03102551   -0.27655163
     atom   35 type  2   force =     0.00073454   -0.01134829    0.26596819
     atom   36 type  3   force =    -0.00596914    0.01049169   -0.01405813
     The ionic contribution  to forces
     atom    1 type  1   force =    -0.01115384    0.52960747    5.74056915
     atom    2 type  2   force =    -0.68022189    0.12841776   39.28526454
     atom    3 type  2   force =    -0.27086055   -0.04571013  -36.30535908
     atom    4 type  1   force =     0.28533832    0.58099243    0.30570858
     atom    5 type  2   force =    -0.93293767    1.52078505   38.64669857
     atom    6 type  2   force =     0.20690401   -0.55799931  -37.98748483
     atom    7 type  1   force =    -2.57384245   -2.60985753    2.54794533
     atom    8 type  2   force =    -1.00496600    0.03491065   37.49514678
     atom    9 type  2   force =     0.35597377    0.01737372  -37.99337914
     atom   10 type  1   force =    -0.94744796   -0.56735995    5.37805394
     atom   11 type  2   force =    -0.53145805   -1.63930906   39.11248933
     atom   12 type  2   force =     0.35446009    0.62874756  -37.82565910
     atom   13 type  1   force =     0.68632113    0.75612024    2.55121899
     atom   14 type  2   force =     0.05443307   -0.05944286   38.57784824
     atom   15 type  2   force =     0.15607700   -0.03607086  -36.85800003
     atom   16 type  1   force =     0.06402536    3.82793370    0.69095490
     atom   17 type  2   force =     1.10381318    1.61792708   37.81671773
     atom   18 type  2   force =    -0.11153779   -0.57287739  -38.53326817
     atom   19 type  1   force =     2.64062575   -2.33550363    0.65478114
     atom   20 type  2   force =     0.20278642   -0.18926692  -38.53924867
     atom   21 type  1   force =     0.02483454   -0.07759588    1.33573095
     atom   22 type  2   force =     0.45241419   -1.73269430   38.44071007
     atom   23 type  2   force =    -0.01718250    0.59163636  -38.26609809
     atom   24 type  1   force =    -0.49290148    0.96659414    3.99220215
     atom   25 type  2   force =     0.78426137   -0.47207846   38.90074180
     atom   26 type  2   force =    -0.13387273    0.02363493  -37.37333672
     atom   27 type  1   force =    -0.12862012    0.74485343   -2.24567276
     atom   28 type  2   force =    -0.61029754    1.76586251   37.64840082
     atom   29 type  2   force =    -0.20989736   -0.24704368  -37.28989495
     atom   30 type  1   force =    -0.29427574   -1.00822826   -0.01183722
     atom   31 type  2   force =     1.20782501    0.09441108   37.35432493
     atom   32 type  2   force =    -0.46201624   -0.03520595  -38.57774795
     atom   33 type  1   force =     0.68724274   -0.73321630    1.91307160
     atom   34 type  2   force =     0.19975188   -1.29187569   39.25078824
     atom   35 type  2   force =    -0.28067384    0.41380369  -37.75007273
     atom   36 type  3   force =     0.22707591   -0.03227563    7.91769167
     The local contribution  to forces
     atom    1 type  1   force =     0.01371795   -0.57064627   -5.72827120
     atom    2 type  2   force =     0.67709301   -0.11487029  -39.04565707
     atom    3 type  2   force =     0.27113975    0.05769647   36.04931577
     atom    4 type  1   force =    -0.29303510   -0.57316339   -0.31679338
     atom    5 type  2   force =     0.93157336   -1.49310361  -38.42875499
     atom    6 type  2   force =    -0.20179344    0.55099446   37.74268609
     atom    7 type  1   force =     2.59758788    2.60692785   -2.53067946
     atom    8 type  2   force =     1.00621263   -0.04288250  -37.24877624
     atom    9 type  2   force =    -0.35444866   -0.00401417   37.74393935
     atom   10 type  1   force =     0.94008397    0.57482008   -5.38431327
     atom   11 type  2   force =     0.52304353    1.63112140  -38.88159226
     atom   12 type  2   force =    -0.34587177   -0.61277917   37.58650538
     atom   13 type  1   force =    -0.68019772   -0.76887590   -2.54496645
     atom   14 type  2   force =    -0.05768514    0.06795246  -38.32741343
     atom   15 type  2   force =    -0.15297233    0.04172701   36.60809522
     atom   16 type  1   force =    -0.06536737   -3.85254131   -0.65304178
     atom   17 type  2   force =    -1.09806899   -1.58809534  -37.59168120
     atom   18 type  2   force =     0.10958670    0.56966935   38.29260825
     atom   19 type  1   force =    -2.65202362    2.32929947   -0.64056705
     atom   20 type  2   force =    -0.19969310    0.20485481   38.29464467
     atom   21 type  1   force =    -0.03239487    0.05834488   -1.33976740
     atom   22 type  2   force =    -0.44931554    1.72913352  -38.20569685
     atom   23 type  2   force =     0.01032806   -0.57625268   38.02602355
     atom   24 type  1   force =     0.48406002   -0.98918625   -4.01209112
     atom   25 type  2   force =    -0.76646609    0.44488213  -38.71693392
     atom   26 type  2   force =     0.12740073   -0.01322949   37.12110386
     atom   27 type  1   force =     0.13613729   -0.75066787    2.24875261
     atom   28 type  2   force =     0.53224782   -1.62201337  -37.51871285
     atom   29 type  2   force =     0.20510918    0.24881664   37.03938123
     atom   30 type  1   force =     0.28885280    0.98522255    0.00646668
     atom   31 type  2   force =    -1.20028266   -0.09413107  -37.10821693
     atom   32 type  2   force =     0.45545619    0.05264621   38.32875351
     atom   33 type  1   force =    -0.67495865    0.72526690   -1.91331120
     atom   34 type  2   force =    -0.19447507    1.28876341  -39.01076180
     atom   35 type  2   force =     0.27434262   -0.39644565   37.51226667
     atom   36 type  3   force =    -0.22696157    0.05167948   -7.92153161
     The core correction contribution to forces
     atom    1 type  1   force =     0.00000000    0.00000000    0.00000000
     atom    2 type  2   force =     0.00005002   -0.00009542    0.02040873
     atom    3 type  2   force =     0.00063914    0.00018233   -0.02075263
     atom    4 type  1   force =     0.00000000    0.00000000    0.00000000
     atom    5 type  2   force =    -0.00034117    0.00179014    0.02006978
     atom    6 type  2   force =     0.00036056   -0.00115833   -0.02091344
     atom    7 type  1   force =     0.00000000    0.00000000    0.00000000
     atom    8 type  2   force =    -0.00001547    0.00020827    0.02027999
     atom    9 type  2   force =    -0.00007042    0.00061969   -0.02100856
     atom   10 type  1   force =     0.00000000    0.00000000    0.00000000
     atom   11 type  2   force =    -0.00050981   -0.00065559    0.02067254
     atom   12 type  2   force =     0.00106694    0.00134735   -0.02076699
     atom   13 type  1   force =     0.00000000    0.00000000    0.00000000
     atom   14 type  2   force =    -0.00056532   -0.00003677    0.02066190
     atom   15 type  2   force =     0.00064566    0.00035769   -0.02063295
     atom   16 type  1   force =     0.00000000    0.00000000    0.00000000
     atom   17 type  2   force =     0.00019558    0.00152641    0.02007555
     atom   18 type  2   force =    -0.00007097   -0.00052924   -0.02093674
     atom   19 type  1   force =     0.00000000    0.00000000    0.00000000
     atom   20 type  2   force =     0.00012840    0.00076773   -0.02115220
     atom   21 type  1   force =     0.00000000    0.00000000    0.00000000
     atom   22 type  2   force =     0.00008729   -0.00046800    0.02057821
     atom   23 type  2   force =    -0.00050050    0.00133181   -0.02085915
     atom   24 type  1   force =     0.00000000    0.00000000    0.00000000
     atom   25 type  2   force =     0.00120348   -0.00377971    0.01664462
     atom   26 type  2   force =    -0.00019180    0.00073876   -0.02092386
     atom   27 type  1   force =     0.00000000    0.00000000    0.00000000
     atom   28 type  2   force =    -0.00671270    0.01169215    0.01066725
     atom   29 type  2   force =    -0.00049053   -0.00045975   -0.02078347
     atom   30 type  1   force =     0.00000000    0.00000000    0.00000000
     atom   31 type  2   force =     0.00045609    0.00012446    0.02053072
     atom   32 type  2   force =    -0.00024450    0.00066990   -0.02109550
     atom   33 type  1   force =     0.00000000    0.00000000    0.00000000
     atom   34 type  2   force =     0.00052796    0.00099415    0.02118310
     atom   35 type  2   force =    -0.00021367    0.00098625   -0.02093725
     atom   36 type  3   force =     0.00000000    0.00000000    0.00000000
     The Hubbard contrib.    to forces
     atom    1 type  1   force =     0.00000000    0.00000000    0.00000000
     atom    2 type  2   force =     0.00000000    0.00000000    0.00000000
     atom    3 type  2   force =     0.00000000    0.00000000    0.00000000
     atom    4 type  1   force =     0.00000000    0.00000000    0.00000000
     atom    5 type  2   force =     0.00000000    0.00000000    0.00000000
     atom    6 type  2   force =     0.00000000    0.00000000    0.00000000
     atom    7 type  1   force =     0.00000000    0.00000000    0.00000000
     atom    8 type  2   force =     0.00000000    0.00000000    0.00000000
     atom    9 type  2   force =     0.00000000    0.00000000    0.00000000
     atom   10 type  1   force =     0.00000000    0.00000000    0.00000000
     atom   11 type  2   force =     0.00000000    0.00000000    0.00000000
     atom   12 type  2   force =     0.00000000    0.00000000    0.00000000
     atom   13 type  1   force =     0.00000000    0.00000000    0.00000000
     atom   14 type  2   force =     0.00000000    0.00000000    0.00000000
     atom   15 type  2   force =     0.00000000    0.00000000    0.00000000
     atom   16 type  1   force =     0.00000000    0.00000000    0.00000000
     atom   17 type  2   force =     0.00000000    0.00000000    0.00000000
     atom   18 type  2   force =     0.00000000    0.00000000    0.00000000
     atom   19 type  1   force =     0.00000000    0.00000000    0.00000000
     atom   20 type  2   force =     0.00000000    0.00000000    0.00000000
     atom   21 type  1   force =     0.00000000    0.00000000    0.00000000
     atom   22 type  2   force =     0.00000000    0.00000000    0.00000000
     atom   23 type  2   force =     0.00000000    0.00000000    0.00000000
     atom   24 type  1   force =     0.00000000    0.00000000    0.00000000
     atom   25 type  2   force =     0.00000000    0.00000000    0.00000000
     atom   26 type  2   force =     0.00000000    0.00000000    0.00000000
     atom   27 type  1   force =     0.00000000    0.00000000    0.00000000
     atom   28 type  2   force =     0.00000000    0.00000000    0.00000000
     atom   29 type  2   force =     0.00000000    0.00000000    0.00000000
     atom   30 type  1   force =     0.00000000    0.00000000    0.00000000
     atom   31 type  2   force =     0.00000000    0.00000000    0.00000000
     atom   32 type  2   force =     0.00000000    0.00000000    0.00000000
     atom   33 type  1   force =     0.00000000    0.00000000    0.00000000
     atom   34 type  2   force =     0.00000000    0.00000000    0.00000000
     atom   35 type  2   force =     0.00000000    0.00000000    0.00000000
     atom   36 type  3   force =     0.00000000    0.00000000    0.00000000
     The SCF correction term to forces
     atom    1 type  1   force =     0.00003888    0.00011848    0.00115644
     atom    2 type  2   force =     0.00006851    0.00005061    0.00051708
     atom    3 type  2   force =    -0.00004599    0.00000804    0.00022247
     atom    4 type  1   force =     0.00012499   -0.00013290    0.00113897
     atom    5 type  2   force =     0.00003299   -0.00006318    0.00039766
     atom    6 type  2   force =    -0.00004726    0.00000281    0.00025130
     atom    7 type  1   force =    -0.00002351   -0.00004959    0.00091581
     atom    8 type  2   force =     0.00003765   -0.00010582    0.00046404
     atom    9 type  2   force =     0.00006046   -0.00003408    0.00023839
     atom   10 type  1   force =    -0.00000422    0.00005913    0.00109635
     atom   11 type  2   force =     0.00002485    0.00004158    0.00039645
     atom   12 type  2   force =    -0.00002869   -0.00000926    0.00025750
     atom   13 type  1   force =    -0.00000013    0.00015691    0.00109663
     atom   14 type  2   force =    -0.00002680    0.00007101    0.00050231
     atom   15 type  2   force =    -0.00003820    0.00006251    0.00022233
     atom   16 type  1   force =    -0.00002763   -0.00010938    0.00098852
     atom   17 type  2   force =    -0.00001828   -0.00004522    0.00045769
     atom   18 type  2   force =     0.00000647    0.00000359    0.00027213
     atom   19 type  1   force =     0.00000246   -0.00006129    0.00093304
     atom   20 type  2   force =    -0.00002567   -0.00005345    0.00021093
     atom   21 type  1   force =    -0.00010190    0.00001878    0.00104342
     atom   22 type  2   force =    -0.00002969    0.00001678    0.00039038
     atom   23 type  2   force =     0.00000957   -0.00002588    0.00028643
     atom   24 type  1   force =    -0.00000285    0.00016708    0.00120624
     atom   25 type  2   force =    -0.00003289    0.00002460    0.00043081
     atom   26 type  2   force =     0.00006195    0.00003517    0.00027911
     atom   27 type  1   force =    -0.00013022   -0.00013537    0.00111575
     atom   28 type  2   force =    -0.00006011    0.00002016    0.00033900
     atom   29 type  2   force =     0.00003961    0.00008153    0.00029631
     atom   30 type  1   force =     0.00002165   -0.00008528    0.00090573
     atom   31 type  2   force =     0.00000208   -0.00007155    0.00045841
     atom   32 type  2   force =    -0.00001339   -0.00004063    0.00023939
     atom   33 type  1   force =     0.00007320    0.00001346    0.00107363
     atom   34 type  2   force =    -0.00000774    0.00009387    0.00040619
     atom   35 type  2   force =     0.00001361   -0.00002029    0.00028741
     atom   36 type  3   force =    -0.00000309    0.00000299    0.00005277

     Total force =     0.103886     Total SCF correction =     0.004080
     Energy error            =      1.9E-02 Ry
     Gradient error          =      3.7E-02 Ry/Bohr

     number of scf cycles    =   2
     number of bfgs steps    =   1

     energy             old  =   -2205.5122899084 Ry
     energy             new  =   -2205.5308222479 Ry

     CASE: energy            _new < energy            _old

     new trust radius        =       0.0796475609 bohr
     new conv_thr            =       0.0000000373 Ry


ATOMIC_POSITIONS (angstrom)
Mo            6.5856964089        1.7650216383        2.8252054431
S             8.1632294846        0.8269713475        4.4337580735
S             8.1771297819        0.8203778491        1.2683219199
Mo            8.0837378142        4.5043047764        2.6969194069
S             6.4970916191        3.7176990358        4.3361077090
S             6.5555729899        3.5177452119        1.1207022004
Mo            6.4924947995        7.2118217097        2.6657432937
S             8.0849237192        6.3392396542        4.2632628168
S             8.0917912644        6.3087667355        1.0938344843
Mo            8.1523087425        9.9131733303        2.8211790377
S             6.4995130050        8.9405124251        4.3732252319
S             6.6157091180        9.0497208650        1.1449874702
Mo            3.4270002344        1.7520503062        2.7735220475
S             4.9843436760        0.8166097641        4.3629953968
S             5.0468541403        0.8480726123        1.2160631421
Mo            4.9789689218        4.5256721930        2.6415649882
S             3.4343082871        3.6727196257        4.2788217368
S             3.4338900798        3.5403574427        1.0716988950
Mo            3.4624870918        7.2054637761        2.6287580760
S             4.9873153410        6.3213063446        1.0370775050
Mo            5.0065953281        9.9069619439        2.7451583686
S             3.4679965692        8.9419179548        4.3216339232
S             3.4066289623        9.0655476327        1.1052859537
Mo            0.2775157664        1.7335104756        2.8018571214
S             1.8614893391        0.8374246672        4.4223621414
S             1.8497553560        0.8521757164        1.2018623700
Mo            1.8640189402        4.4944416301        2.6732065812
S             0.3142127049        3.6093187255        4.3891752871
S             0.2329920296        3.5288025567        1.1682949795
Mo            0.2655123960        7.2197238949        2.7005234249
S             1.9027496529        6.3156367044        4.2396647340
S             1.8520789798        6.3190003287        1.0514076113
Mo            1.8557322211        9.9304453294        2.7572869087
S             0.2978107151        9.0418567410        4.3997963622
S             0.2690014324        9.0525961241        1.1649547956
H             1.0446412106        2.4626237858        5.3241204341



     Writing config-only to output data dir ./MoS2-V-O.save/
     NEW-OLD atomic charge density approx. for the potential

     negative rho (up, down):  1.477E-04 0.000E+00

     total cpu time spent up to now is      180.4 secs

     Self-consistent Calculation

     iteration #  1     ecut=    80.00 Ry     beta= 0.70
     Davidson diagonalization with overlap
     ethr =  1.00E-06,  avg # of iterations = 10.0

     negative rho (up, down):  8.891E-05 0.000E+00

     total cpu time spent up to now is      195.5 secs

     total energy              =   -2205.54323779 Ry
     estimated scf accuracy    <       0.00113352 Ry

     iteration #  2     ecut=    80.00 Ry     beta= 0.70
     Davidson diagonalization with overlap
     ethr =  3.69E-07,  avg # of iterations =  2.0

     negative rho (up, down):  6.576E-05 0.000E+00

     total cpu time spent up to now is      209.6 secs

     total energy              =   -2205.54327538 Ry
     estimated scf accuracy    <       0.00021243 Ry

     iteration #  3     ecut=    80.00 Ry     beta= 0.70
     Davidson diagonalization with overlap
     ethr =  6.92E-08,  avg # of iterations =  3.0

     negative rho (up, down):  5.213E-05 0.000E+00

     total cpu time spent up to now is      223.8 secs

     total energy              =   -2205.54329345 Ry
     estimated scf accuracy    <       0.00005164 Ry

     iteration #  4     ecut=    80.00 Ry     beta= 0.70
     Davidson diagonalization with overlap
     ethr =  1.68E-08,  avg # of iterations =  5.0

     negative rho (up, down):  5.004E-05 0.000E+00

     total cpu time spent up to now is      241.0 secs

     total energy              =   -2205.54330327 Ry
     estimated scf accuracy    <       0.00000493 Ry

     iteration #  5     ecut=    80.00 Ry     beta= 0.70
     Davidson diagonalization with overlap
     ethr =  1.60E-09,  avg # of iterations =  6.0

     negative rho (up, down):  5.210E-05 0.000E+00

     total cpu time spent up to now is      258.3 secs

     total energy              =   -2205.54330448 Ry
     estimated scf accuracy    <       0.00000204 Ry

     iteration #  6     ecut=    80.00 Ry     beta= 0.70
     Davidson diagonalization with overlap
     ethr =  6.65E-10,  avg # of iterations =  3.0

     negative rho (up, down):  5.729E-05 0.000E+00

     total cpu time spent up to now is      270.8 secs

     total energy              =   -2205.54330471 Ry
     estimated scf accuracy    <       0.00000047 Ry

     iteration #  7     ecut=    80.00 Ry     beta= 0.70
     Davidson diagonalization with overlap
     ethr =  1.54E-10,  avg # of iterations =  5.0

     negative rho (up, down):  6.716E-05 0.000E+00

     total cpu time spent up to now is      282.3 secs

     total energy              =   -2205.54330469 Ry
     estimated scf accuracy    <       0.00000019 Ry

     iteration #  8     ecut=    80.00 Ry     beta= 0.70
     Davidson diagonalization with overlap
     ethr =  6.22E-11,  avg # of iterations =  2.0

     negative rho (up, down):  9.347E-05 0.000E+00

     total cpu time spent up to now is      293.8 secs

     total energy              =   -2205.54330456 Ry
     estimated scf accuracy    <       0.00000008 Ry

     iteration #  9     ecut=    80.00 Ry     beta= 0.70
     Davidson diagonalization with overlap
     ethr =  2.60E-11,  avg # of iterations =  3.0

     negative rho (up, down):  1.380E-04 0.000E+00

     total cpu time spent up to now is      296.0 secs

     End of self-consistent calculation

          k = 0.0000 0.0000 0.0000 (105382 PWs)   bands (ev):

   -62.9007 -62.8616 -62.8394 -62.8240 -62.8207 -62.8083 -62.7986 -62.7949
   -62.7840 -62.7829 -62.7633 -62.7449 -37.2204 -37.1620 -37.1389 -37.1279
   -37.1136 -37.0925 -37.0909 -37.0695 -37.0586 -37.0549 -37.0486 -37.0257
   -37.0205 -37.0131 -37.0066 -37.0023 -36.9943 -36.9860 -36.9847 -36.9691
   -36.9560 -36.9497 -36.9460 -36.9258 -36.9147 -36.9141 -36.9028 -36.8966
   -36.8824 -36.8731 -36.8580 -36.8393 -36.8363 -36.8007 -36.7445 -36.7042
   -16.0196 -15.3117 -15.1156 -15.0473 -14.9431 -14.8108 -14.6148 -14.4936
   -14.4791 -14.4237 -14.3943 -14.3480 -14.3198 -14.2893 -14.1930 -14.1312
   -14.1248 -14.1035 -14.0132 -13.9183 -13.8489 -13.8237 -13.7766  -8.2301
    -7.5690  -7.4291  -7.2733  -7.2681  -7.2207  -7.1895  -7.1360  -7.0299
    -6.8103  -6.7922  -6.7448  -6.6502  -6.6225  -6.4958  -6.4685  -6.3968
    -6.2816  -6.2190  -6.0662  -5.9756  -5.9385  -5.8808  -5.8077  -5.7795
    -5.7579  -5.7296  -5.6662  -5.6586  -5.6277  -5.5906  -5.5504  -5.4613
    -5.4277  -5.3322  -5.1520  -5.1042  -5.0705  -5.0117  -4.9753  -4.9538
    -4.9303  -4.8355  -4.6348  -4.5191  -4.3207  -4.3049  -4.2931  -4.2611
    -4.2181  -4.1364  -4.0561  -3.8626  -3.8098  -3.7834  -3.7415  -3.6846
    -3.6570  -3.5707  -3.5486  -3.5327  -3.4838  -3.4674  -3.4486  -3.3997
    -3.3432  -3.2118  -3.1211  -2.9018  -2.8837  -2.7888  -2.7567  -2.7345
    -2.7092  -2.6754  -2.6534  -2.6162  -2.5654  -2.2976  -2.0599  -1.9982
    -1.9375  -0.9698  -0.7434  -0.7110  -0.1749  -0.1492  -0.1054  -0.0359
     0.0253   0.1165   0.2266   0.2520   0.2986   0.3183   0.3670   0.4331
     0.4848   0.5278   0.5603   0.5830   0.6452   0.6588   0.7280   0.7513
     0.7725   0.7833   0.8649   0.9084   0.9177   0.9872   1.0186   1.2784
     1.4059

     the Fermi energy is    -0.9727 ev

!    total energy              =   -2205.54330446 Ry
     estimated scf accuracy    <       0.00000002 Ry
     smearing contrib. (-TS)   =      -0.00610863 Ry
     internal energy E=F+TS    =   -2205.53719583 Ry

     The total energy is F=E-TS. E is the sum of the following terms:
     one-electron contribution =  -18041.54874798 Ry
     hartree contribution      =    9007.58033566 Ry
     xc contribution           =    -385.22844407 Ry
     ewald contribution        =    7213.65966055 Ry

     convergence has been achieved in   9 iterations

     negative rho (up, down):  1.380E-04 0.000E+00

     Forces acting on atoms (cartesian axes, Ry/au):

     atom    1 type  1   force =    -0.00326875   -0.00349218   -0.00389528
     atom    2 type  2   force =    -0.00311563    0.00592231   -0.00457533
     atom    3 type  2   force =    -0.01452323    0.00228017   -0.01771897
     atom    4 type  1   force =     0.00246833    0.00200335   -0.00128001
     atom    5 type  2   force =     0.00185510   -0.00321752   -0.00859855
     atom    6 type  2   force =    -0.00183373    0.00167827    0.00049540
     atom    7 type  1   force =     0.00362989   -0.00314497    0.00203617
     atom    8 type  2   force =     0.00128568   -0.00614513    0.00873780
     atom    9 type  2   force =     0.00549440    0.00405246    0.00091037
     atom   10 type  1   force =    -0.00085249    0.00553562   -0.00019632
     atom   11 type  2   force =     0.00278506   -0.00087942   -0.00853281
     atom   12 type  2   force =    -0.00408983    0.00070163   -0.00032936
     atom   13 type  1   force =     0.00220239    0.00152352    0.00085653
     atom   14 type  2   force =     0.00409722   -0.00034816    0.00516107
     atom   15 type  2   force =    -0.00574901    0.00013991   -0.00520518
     atom   16 type  1   force =    -0.00007729    0.00360691    0.00239163
     atom   17 type  2   force =     0.00682264    0.00222659    0.00152152
     atom   18 type  2   force =    -0.00219881   -0.00210142    0.00829287
     atom   19 type  1   force =     0.00286647   -0.00451813    0.00286794
     atom   20 type  2   force =     0.00291239   -0.00343664   -0.00326699
     atom   21 type  1   force =    -0.00305859    0.00163006    0.00186527
     atom   22 type  2   force =    -0.00134303   -0.00164124   -0.00304990
     atom   23 type  2   force =     0.00119276   -0.00221492    0.00228343
     atom   24 type  1   force =    -0.00206318   -0.00334082   -0.00254186
     atom   25 type  2   force =     0.00172827    0.01604937   -0.00177842
     atom   26 type  2   force =    -0.00194412   -0.00297350   -0.00767727
     atom   27 type  1   force =     0.00087517   -0.00170810    0.00968310
     atom   28 type  2   force =     0.02183889   -0.03302842    0.02919026
     atom   29 type  2   force =     0.00100835    0.00487068   -0.00311301
     atom   30 type  1   force =    -0.00280398   -0.00507691    0.00549010
     atom   31 type  2   force =     0.00007777    0.00118609    0.00777256
     atom   32 type  2   force =    -0.00531650    0.00324460    0.00547657
     atom   33 type  1   force =     0.00083517    0.00342737    0.00675795
     atom   34 type  2   force =    -0.00035704   -0.02140159   -0.01455624
     atom   35 type  2   force =    -0.00403424    0.00523064    0.00346871
     atom   36 type  3   force =    -0.00734650    0.03335954   -0.01894373
     The non-local contrib.  to forces
     atom    1 type  1   force =     0.00234629    0.02631405   -0.01382449
     atom    2 type  2   force =    -0.00132504   -0.00629387   -0.26219462
     atom    3 type  2   force =    -0.01455558   -0.00990830    0.25806067
     atom    4 type  1   force =     0.00277181   -0.00201631    0.00150783
     atom    5 type  2   force =     0.00129314   -0.03313206   -0.24689151
     atom    6 type  2   force =    -0.00695409    0.01021981    0.26625623
     atom    7 type  1   force =    -0.01998218   -0.00192418   -0.02039736
     atom    8 type  2   force =    -0.00011573    0.00418145   -0.25551854
     atom    9 type  2   force =     0.00382922   -0.01007654    0.27215919
     atom   10 type  1   force =     0.00306556    0.00061013   -0.00324644
     atom   11 type  2   force =     0.01145129    0.00770382   -0.26136098
     atom   12 type  2   force =    -0.01288063   -0.01658135    0.26087265
     atom   13 type  1   force =    -0.00151833    0.01710948   -0.00801910
     atom   14 type  2   force =     0.00826049   -0.00823973   -0.26457664
     atom   15 type  2   force =    -0.00970530   -0.00588679    0.26356147
     atom   16 type  1   force =     0.00102830    0.03372051   -0.03417148
     atom   17 type  2   force =     0.00001891   -0.02909904   -0.24590663
     atom   18 type  2   force =     0.00038889    0.00122578    0.27094400
     atom   19 type  1   force =     0.01819328   -0.00046298   -0.01411228
     atom   20 type  2   force =     0.00020344   -0.01892967    0.26186512
     atom   21 type  1   force =     0.00272062    0.02236712    0.00493590
     atom   22 type  2   force =    -0.00415433    0.00150650   -0.25971551
     atom   23 type  2   force =     0.00805077   -0.01887473    0.26407679
     atom   24 type  1   force =    -0.00204091    0.01377319   -0.00007538
     atom   25 type  2   force =    -0.01253859    0.04531888   -0.19999751
     atom   26 type  2   force =     0.00293717   -0.01351858    0.26559986
     atom   27 type  1   force =    -0.00517801    0.00339418    0.00461775
     atom   28 type  2   force =     0.12599592   -0.20428378   -0.09818638
     atom   29 type  2   force =     0.00548037    0.00065995    0.26881791
     atom   30 type  1   force =     0.00081321    0.02246630    0.00705775
     atom   31 type  2   force =    -0.00786240    0.00081409   -0.25797399
     atom   32 type  2   force =     0.00204316   -0.01369380    0.27528586
     atom   33 type  1   force =    -0.00528104    0.00345460   -0.00434704
     atom   34 type  2   force =    -0.00615540   -0.02203589   -0.27728011
     atom   35 type  2   force =     0.00196407   -0.01275029    0.26415991
     atom   36 type  3   force =    -0.00808047    0.01399155   -0.01653207
     The ionic contribution  to forces
     atom    1 type  1   force =    -0.17114662    0.78422939    5.75474671
     atom    2 type  2   force =    -0.52773329    0.06378708   39.32881430
     atom    3 type  2   force =    -0.27792682   -0.05718730  -36.49020757
     atom    4 type  1   force =     0.58123641    0.38650619    0.19881495
     atom    5 type  2   force =    -0.84570159    1.49230809   38.54971139
     atom    6 type  2   force =     0.13636655   -0.59409079  -37.93862859
     atom    7 type  1   force =    -2.55288208   -2.49393870    2.52814096
     atom    8 type  2   force =    -0.99735025   -0.02834621   37.60611450
     atom    9 type  2   force =     0.37175051    0.03715843  -37.99682361
     atom   10 type  1   force =    -0.77587739   -0.62845875    5.24167295
     atom   11 type  2   force =    -0.50312044   -1.63484176   39.05345438
     atom   12 type  2   force =     0.30186879    0.58265435  -37.80150294
     atom   13 type  1   force =     0.59652795    0.63065845    2.54836126
     atom   14 type  2   force =     0.00148768   -0.05639509   38.65056763
     atom   15 type  2   force =     0.13526830   -0.01595020  -36.91089993
[...]
     atom   27 type  1   force =    -0.00795521    0.00564332   -0.00146160
     atom   28 type  2   force =     0.25433242   -0.16529131   -0.04065833
     atom   29 type  2   force =    -0.00244112   -0.00632739    0.27205704
     atom   30 type  1   force =    -0.00152705    0.01944423    0.00375031
     atom   31 type  2   force =    -0.00551225   -0.00739401   -0.26026264
     atom   32 type  2   force =     0.00821943   -0.01348922    0.27136232
     atom   33 type  1   force =    -0.00199130    0.00352151    0.00028309
     atom   34 type  2   force =    -0.00002921   -0.00805366   -0.27365250
     atom   35 type  2   force =    -0.00123633   -0.01536346    0.26509123
     atom   36 type  3   force =    -0.03303595    0.02063669   -0.03778361
     The ionic contribution  to forces
     atom    1 type  1   force =     0.10296736    0.75961377    1.85937464
     atom    2 type  2   force =    -0.49287801    0.01641404   38.77843557
     atom    3 type  2   force =     0.26550637    0.01273357  -37.29786541
     atom    4 type  1   force =     1.32126625   -0.45138473   -2.77445384
     atom    5 type  2   force =    -0.52589561    1.21909853   37.81959719
     atom    6 type  2   force =     0.08570953   -0.55534552  -38.59002431
     atom    7 type  1   force =    -2.66979789   -1.91530867    1.97630715
     atom    8 type  2   force =    -1.22619675   -0.11385654   37.95324708
     atom    9 type  2   force =     0.56189333    0.25283687  -38.47370849
     atom   10 type  1   force =    -0.34373500   -0.46015424    2.92948098
     atom   11 type  2   force =    -0.45348245   -1.51519886   38.51602647
     atom   12 type  2   force =     0.19798502    0.41557490  -38.03375331
     atom   13 type  1   force =     0.35589845    0.45700806    2.02151626
     atom   14 type  2   force =     0.17430628   -0.06749592   38.45846458
     atom   15 type  2   force =    -0.05099212   -0.13609228  -37.61417683
     atom   16 type  1   force =    -0.02062399    3.58540865    0.98339510
     atom   17 type  2   force =     1.49231765    1.31278945   38.11908903
     atom   18 type  2   force =    -0.38632292   -0.25190715  -37.99618945
     atom   19 type  1   force =     2.55875423   -1.98286223    3.48671957
     atom   20 type  2   force =    -0.20308251    0.02627539  -38.54098903
     atom   21 type  1   force =    -0.01596370   -0.31500242    0.92678773
     atom   22 type  2   force =     0.51967303   -1.44721910   38.62378918
     atom   23 type  2   force =    -0.28676978    0.24346610  -37.76276522
     atom   24 type  1   force =    -0.71624293    1.07931746    3.97043974
     atom   25 type  2   force =     0.42118739   -0.51328742   38.75222586
     atom   26 type  2   force =    -0.15763433   -0.05300441  -37.36507724
     atom   27 type  1   force =    -0.76759380    0.78328508    2.50021484
     atom   28 type  2   force =    -1.95757562    1.69114170   38.10384510
     atom   29 type  2   force =     0.21796442   -0.20458367  -36.81745611
     atom   30 type  1   force =     0.15961137   -0.73455482    1.92944506
     atom   31 type  2   force =     1.06250221    0.40755934   38.22414088
     atom   32 type  2   force =    -0.29411000   -0.07206824  -37.50822478
     atom   33 type  1   force =     0.32196476   -0.70364644    3.08628893
     atom   34 type  2   force =    -0.05511245   -0.59108577   38.78703979
     atom   35 type  2   force =     0.09701102    0.14511907  -37.30675626
     atom   36 type  3   force =     0.70749118   -0.32358356    8.27556953
     The local contribution  to forces
     atom    1 type  1   force =    -0.10127514   -0.78169586   -1.85403877
     atom    2 type  2   force =     0.48773083   -0.01010905  -38.53668229
     atom    3 type  2   force =    -0.25927481   -0.00082056   37.05302235
     atom    4 type  1   force =    -1.32562550    0.45647610    2.76197277
     atom    5 type  2   force =     0.53698465   -1.19035511  -37.60137828
     atom    6 type  2   force =    -0.08567364    0.54847366   38.34500877
     atom    7 type  1   force =     2.68333786    1.91642242   -1.95469458
     atom    8 type  2   force =     1.22501502    0.09476305  -37.71866088
     atom    9 type  2   force =    -0.55749293   -0.23840269   38.22692984
     atom   10 type  1   force =     0.34395816    0.45574230   -2.93094859
     atom   11 type  2   force =     0.44773683    1.51150981  -38.27838644
     atom   12 type  2   force =    -0.19161448   -0.40296889   37.79102503
     atom   13 type  1   force =    -0.35793885   -0.47781329   -2.01433035
     atom   14 type  2   force =    -0.17401656    0.07578536  -38.21353403
     atom   15 type  2   force =     0.05252270    0.14204893   37.37103867
     atom   16 type  1   force =     0.01679820   -3.61873868   -0.95412680
     atom   17 type  2   force =    -1.48791694   -1.28830663  -37.90037306
     atom   18 type  2   force =     0.38061234    0.25386927   37.75052381
     atom   19 type  1   force =    -2.57960282    1.98019345   -3.46615019
     atom   20 type  2   force =     0.20013120   -0.01212682   38.29826339
     atom   21 type  1   force =     0.01483100    0.29003624   -0.93143369
     atom   22 type  2   force =    -0.51280665    1.44994119  -38.38498928
     atom   23 type  2   force =     0.27814283   -0.23060105   37.51968543
     atom   24 type  1   force =     0.72134305   -1.09682504   -3.96190375
     atom   25 type  2   force =    -0.42550779    0.51706066  -38.52370691
     atom   26 type  2   force =     0.15353650    0.06291781   37.11719992
     atom   27 type  1   force =     0.77547564   -0.78860295   -2.49866065
     atom   28 type  2   force =     1.72014369   -1.53708581  -38.06795864
     atom   29 type  2   force =    -0.21587563    0.21180186   36.56687962
     atom   30 type  1   force =    -0.15794114    0.71396227   -1.93298106
     atom   31 type  2   force =    -1.05702203   -0.40098251  -37.98439486
     atom   32 type  2   force =     0.28587324    0.08514412   37.25822346
     atom   33 type  1   force =    -0.32050200    0.70098056   -3.08607088
     atom   34 type  2   force =     0.05579804    0.59920238  -38.53591261
     atom   35 type  2   force =    -0.09598114   -0.13091214   37.06256591
     atom   36 type  3   force =    -0.67415292    0.30420352   -8.23929066
     The core correction contribution to forces
     atom    1 type  1   force =     0.00000000    0.00000000    0.00000000
     atom    2 type  2   force =    -0.00051675    0.00015530    0.02053087
     atom    3 type  2   force =     0.00057721    0.00057031   -0.02082682
     atom    4 type  1   force =     0.00000000    0.00000000    0.00000000
     atom    5 type  2   force =     0.00058387    0.00134545    0.01973945
     atom    6 type  2   force =    -0.00001158   -0.00088197   -0.02083212
     atom    7 type  1   force =     0.00000000    0.00000000    0.00000000
     atom    8 type  2   force =    -0.00019521   -0.00083929    0.02038931
     atom    9 type  2   force =     0.00061818    0.00105222   -0.02090747
     atom   10 type  1   force =     0.00000000    0.00000000    0.00000000
     atom   11 type  2   force =    -0.00011499   -0.00053490    0.02055911
     atom   12 type  2   force =     0.00061061    0.00102845   -0.02082579
     atom   13 type  1   force =     0.00000000    0.00000000    0.00000000
     atom   14 type  2   force =     0.00012903    0.00010625    0.02074548
     atom   15 type  2   force =     0.00004786    0.00025292   -0.02079490
     atom   16 type  1   force =     0.00000000    0.00000000    0.00000000
     atom   17 type  2   force =     0.00083880    0.00104511    0.01954543
     atom   18 type  2   force =    -0.00063475   -0.00025656   -0.02089178
     atom   19 type  1   force =     0.00000000    0.00000000    0.00000000
     atom   20 type  2   force =    -0.00029245    0.00072226   -0.02114763
     atom   21 type  1   force =     0.00000000    0.00000000    0.00000000
     atom   22 type  2   force =     0.00025797   -0.00003227    0.02061888
     atom   23 type  2   force =    -0.00074639    0.00088261   -0.02081229
     atom   24 type  1   force =     0.00000000    0.00000000    0.00000000
     atom   25 type  2   force =     0.00010666   -0.00022399    0.01981337
     atom   26 type  2   force =    -0.00034264    0.00048923   -0.02099492
     atom   27 type  1   force =     0.00000000    0.00000000    0.00000000
     atom   28 type  2   force =    -0.01645034    0.01072773    0.00406042
     atom   29 type  2   force =     0.00044061   -0.00002259   -0.02106203
     atom   30 type  1   force =     0.00000000    0.00000000    0.00000000
     atom   31 type  2   force =     0.00020598    0.00085675    0.02047726
     atom   32 type  2   force =    -0.00061191    0.00062704   -0.02099457
     atom   33 type  1   force =     0.00000000    0.00000000    0.00000000
     atom   34 type  2   force =    -0.00002367    0.00019670    0.02111663
     atom   35 type  2   force =     0.00007897    0.00087277   -0.02083991
     atom   36 type  3   force =     0.00000000    0.00000000    0.00000000
     The Hubbard contrib.    to forces
     atom    1 type  1   force =     0.00000000    0.00000000    0.00000000
     atom    2 type  2   force =     0.00000000    0.00000000    0.00000000
     atom    3 type  2   force =     0.00000000    0.00000000    0.00000000
     atom    4 type  1   force =     0.00000000    0.00000000    0.00000000
     atom    5 type  2   force =     0.00000000    0.00000000    0.00000000
     atom    6 type  2   force =     0.00000000    0.00000000    0.00000000
     atom    7 type  1   force =     0.00000000    0.00000000    0.00000000
     atom    8 type  2   force =     0.00000000    0.00000000    0.00000000
     atom    9 type  2   force =     0.00000000    0.00000000    0.00000000
     atom   10 type  1   force =     0.00000000    0.00000000    0.00000000
     atom   11 type  2   force =     0.00000000    0.00000000    0.00000000
     atom   12 type  2   force =     0.00000000    0.00000000    0.00000000
     atom   13 type  1   force =     0.00000000    0.00000000    0.00000000
     atom   14 type  2   force =     0.00000000    0.00000000    0.00000000
     atom   15 type  2   force =     0.00000000    0.00000000    0.00000000
     atom   16 type  1   force =     0.00000000    0.00000000    0.00000000
     atom   17 type  2   force =     0.00000000    0.00000000    0.00000000
     atom   18 type  2   force =     0.00000000    0.00000000    0.00000000
     atom   19 type  1   force =     0.00000000    0.00000000    0.00000000
     atom   20 type  2   force =     0.00000000    0.00000000    0.00000000
     atom   21 type  1   force =     0.00000000    0.00000000    0.00000000
     atom   22 type  2   force =     0.00000000    0.00000000    0.00000000
     atom   23 type  2   force =     0.00000000    0.00000000    0.00000000
     atom   24 type  1   force =     0.00000000    0.00000000    0.00000000
     atom   25 type  2   force =     0.00000000    0.00000000    0.00000000
     atom   26 type  2   force =     0.00000000    0.00000000    0.00000000
     atom   27 type  1   force =     0.00000000    0.00000000    0.00000000
     atom   28 type  2   force =     0.00000000    0.00000000    0.00000000
     atom   29 type  2   force =     0.00000000    0.00000000    0.00000000
     atom   30 type  1   force =     0.00000000    0.00000000    0.00000000
     atom   31 type  2   force =     0.00000000    0.00000000    0.00000000
     atom   32 type  2   force =     0.00000000    0.00000000    0.00000000
     atom   33 type  1   force =     0.00000000    0.00000000    0.00000000
     atom   34 type  2   force =     0.00000000    0.00000000    0.00000000
     atom   35 type  2   force =     0.00000000    0.00000000    0.00000000
     atom   36 type  3   force =     0.00000000    0.00000000    0.00000000
     The SCF correction term to forces
     atom    1 type  1   force =     0.00000856   -0.00002080   -0.00005496
     atom    2 type  2   force =    -0.00000805   -0.00001287   -0.00003789
     atom    3 type  2   force =    -0.00000255   -0.00000904   -0.00001080
     atom    4 type  1   force =    -0.00001545    0.00000459   -0.00001401
     atom    5 type  2   force =    -0.00001602    0.00001454   -0.00001664
     atom    6 type  2   force =    -0.00000112   -0.00000921   -0.00000265
     atom    7 type  1   force =    -0.00001969    0.00001318   -0.00001512
     atom    8 type  2   force =    -0.00000063    0.00001058   -0.00000356
     atom    9 type  2   force =    -0.00000542    0.00001211   -0.00000199
     atom   10 type  1   force =    -0.00000511   -0.00001592   -0.00005363
     atom   11 type  2   force =    -0.00000359   -0.00000711   -0.00002292
     atom   12 type  2   force =     0.00000724    0.00001454    0.00000279
     atom   13 type  1   force =     0.00001420   -0.00002347   -0.00004777
     atom   14 type  2   force =    -0.00000759   -0.00001130   -0.00002451
     atom   15 type  2   force =    -0.00000145   -0.00001212   -0.00000495
     atom   16 type  1   force =    -0.00000130    0.00001326    0.00000831
     atom   17 type  2   force =     0.00000738    0.00002177   -0.00000449
     atom   18 type  2   force =    -0.00000044   -0.00001539    0.00000765
     atom   19 type  1   force =    -0.00001005    0.00001115    0.00002922
     atom   20 type  2   force =     0.00001355    0.00000317    0.00001831
     atom   21 type  1   force =    -0.00000999   -0.00000626   -0.00003213
     atom   22 type  2   force =    -0.00000850   -0.00000452   -0.00002235
     atom   23 type  2   force =    -0.00000931    0.00002231    0.00001431
     atom   24 type  1   force =     0.00000685   -0.00003807   -0.00006992
     atom   25 type  2   force =     0.00001078   -0.00002505   -0.00003685
     atom   26 type  2   force =    -0.00000664   -0.00001748   -0.00000344
     atom   27 type  1   force =     0.00001256    0.00001058    0.00000631
     atom   28 type  2   force =    -0.00000144    0.00001417   -0.00000457
     atom   29 type  2   force =    -0.00000226   -0.00001341   -0.00001113
     atom   30 type  1   force =    -0.00000541    0.00003294    0.00000484
     atom   31 type  2   force =     0.00001719    0.00000392    0.00000767
     atom   32 type  2   force =     0.00000588    0.00000975    0.00001071
     atom   33 type  1   force =     0.00000370   -0.00000769   -0.00003356
     atom   34 type  2   force =     0.00001527   -0.00000792   -0.00002470
     atom   35 type  2   force =     0.00000706    0.00002526    0.00000394
     atom   36 type  3   force =     0.00000127    0.00000362   -0.00000015

     Total force =     0.007084     Total SCF correction =     0.000188
     Energy error            =      9.9E-05 Ry
     Gradient error          =      2.1E-03 Ry/Bohr

     bfgs converged in  24 scf cycles and  23 bfgs steps
     (criteria: energy <  1.0E-04 Ry, force <  1.0E-02 Ry/Bohr)

     End of BFGS Geometry Optimization

     Final energy             =   -2205.5799480193 Ry

     File ./MoS2-V-O.bfgs deleted, as requested
Begin final coordinates

ATOMIC_POSITIONS (angstrom)
Mo            6.5645320838        1.7451702591        2.7437529455
S             8.1144369257        0.8288954070        4.3747276475
S             8.1571024611        0.8339151451        1.1850148502
Mo            8.0775094136        4.5085044634        2.6277935435
S             6.5385957910        3.6644040723        4.2667336794
S             6.5326811139        3.5335217634        1.0655747798
Mo            6.5104018300        7.1877737340        2.6498040218
S             8.0641508087        6.2735788590        4.2823711277
S             8.1180314291        6.3297135782        1.0692777252
Mo            8.1292815232        9.9238516496        2.7692499414
S             6.5113554439        8.9352654034        4.3187704291
S             6.5820179028        9.0359369809        1.1145789974
Mo            3.4246989814        1.7421992962        2.7588164120
S             5.0028404616        0.8100480087        4.3375032127
S             4.9867172495        0.8271089225        1.1566233199
Mo            4.9905156076        4.5190227113        2.6404471915
S             3.4908633841        3.6493378829        4.3068002113
S             3.4005426616        3.5489714099        1.1138746222
Mo            3.4702287502        7.1739154644        2.6856547207
S             4.9752928704        6.3099984086        1.0444378105
Mo            4.9857240028        9.8990105424        2.7260464149
S             3.4662077608        8.9449895080        4.3354033046
S             3.3831817768        9.0150194450        1.1369142303
Mo            0.2707859871        1.7275841335        2.8098434188
S             1.8699988626        0.8200435059        4.3855530577
S             1.8296520242        0.8319350039        1.1872969976
Mo            1.8694194919        4.4770339199        2.7600199927
S             0.3595269036        3.5343029727        4.5067910855
S             0.2732528070        3.5432254878        1.1854559764
Mo            0.2465355371        7.1861853083        2.7363373724
S             1.8959372902        6.3088336037        4.3193963840
S             1.8444838075        6.2990176183        1.1339320032
Mo            1.8429637958        9.9191790390        2.7764388947
S             0.2496227519        8.9971428223        4.3648877352
S             0.2617425258        9.0329904180        1.1803137933
H             1.2322661048        2.9919641062        5.4639020212
End final coordinates



     Writing all to output data dir ./MoS2-V-O.save/
 
     init_run     :      2.38s CPU      2.66s WALL (       1 calls)
     electrons    :   2043.28s CPU   2278.42s WALL (      24 calls)
     update_pot   :     32.98s CPU     34.99s WALL (      23 calls)
     forces       :     32.95s CPU     38.53s WALL (      24 calls)

     Called by init_run:
     wfcinit      :      0.39s CPU      0.44s WALL (       1 calls)
     potinit      :      1.31s CPU      1.44s WALL (       1 calls)
     hinit0       :      0.15s CPU      0.18s WALL (       1 calls)

     Called by electrons:
     c_bands      :    270.29s CPU    275.34s WALL (     194 calls)
     sum_band     :     57.86s CPU     75.87s WALL (     194 calls)
     v_of_rho     :     89.53s CPU    109.42s WALL (     205 calls)
     newd         :     27.39s CPU     44.09s WALL (     205 calls)
     mix_rho      :   1608.80s CPU   1784.73s WALL (     194 calls)

     Called by c_bands:
     init_us_2    :      4.16s CPU      4.48s WALL (     389 calls)
     init_us_2:cp :      4.16s CPU      4.48s WALL (     389 calls)
     regterg      :    255.79s CPU    260.49s WALL (     194 calls)

     Called by *egterg:
     rdiaghg      :     19.41s CPU     19.64s WALL (    1108 calls)
     h_psi        :    136.36s CPU    137.60s WALL (    1145 calls)
     s_psi        :     16.44s CPU     16.49s WALL (    1145 calls)
     g_psi        :      1.62s CPU      1.64s WALL (     950 calls)

     Called by h_psi:
     h_psi:calbec :     19.93s CPU     20.02s WALL (    1145 calls)
     vloc_psi     :     96.58s CPU     97.62s WALL (    1145 calls)
     add_vuspsi   :     16.44s CPU     16.54s WALL (    1145 calls)

     General routines
     calbec       :     28.19s CPU     28.30s WALL (    1435 calls)
     fft          :     58.53s CPU     68.45s WALL (   13909 calls)
     ffts         :    723.54s CPU    893.41s WALL (  392774 calls)
     fftw         :     81.85s CPU     82.63s WALL (  120656 calls)
     interpolate  :      1.52s CPU      1.79s WALL (     205 calls)
 
     Parallel routines
 
     PWSCF        :  35m15.85s CPU  39m22.11s WALL

 
   This run was terminated on:  23:21:24   3Nov2023            

=------------------------------------------------------------------------------=
   JOB DONE.
=------------------------------------------------------------------------------=
